units real
atom_style full
boundary p p p

# --- Force Field Styles ---
pair_style lj/class2/coul/long 9.5 9.5
kspace_style pppm 1e-6
dielectric 1.000000
bond_style class2
angle_style class2
dihedral_style class2
improper_style class2
special_bonds lj/coul 0 0 1
pair_modify mix sixthpower tail yes
neighbor 2.0 bin
neigh_modify delay 0 every 1 check yes
neigh_modify one 4000
package gpu 1 neigh no

read_data /home/arz2/PolyJarvis/data/PVC1/lammps/equil/npt_cool/npt_cool_out.data
Reading data file ...
  orthogonal box = (5.4952798 5.4952798 5.4952798) to (42.890215 42.890215 42.890215)
  1 by 1 by 1 MPI processor grid
  reading atoms ...
  3620 atoms
  reading velocities ...
  3620 velocities
  scanning bonds ...
  4 = max bonds/atom
  scanning angles ...
  6 = max angles/atom
  scanning dihedrals ...
  12 = max dihedrals/atom
  scanning impropers ...
  4 = max impropers/atom
  orthogonal box = (5.4952798 5.4952798 5.4952798) to (42.890215 42.890215 42.890215)
  1 by 1 by 1 MPI processor grid
  reading bonds ...
  3610 bonds
  reading angles ...
  7200 angles
  reading dihedrals ...
  10710 dihedrals
  reading impropers ...
  4800 impropers
Finding 1-2 1-3 1-4 neighbors ...
  special bond factors lj:    0        0        1       
  special bond factors coul:  0        0        1       
     4 = max # of 1-2 neighbors
     6 = max # of 1-3 neighbors
    10 = max # of special neighbors
  special bonds CPU = 0.002 seconds
  read_data CPU = 0.201 seconds
include /home/arz2/PolyJarvis/data/PVC1/lammps/equil/emc_build.params
# LAMMPS parameters created by EMC v9.4.4, build Jul 31 2025 20:33:44

# Variables

variable	seed		index	-1
variable	ntotal		index	3620
variable	fshape		index	1
variable	output		index	emc_build
variable	field		index	pcff/pcff
variable	location1	index	/home/arz2/emc/field/
variable	nav		index	0.6022141179
variable	temperature	index	300
variable	radius		index	5
variable	nrelax		index	100
variable	weight_nonbond	index	0.0001
variable	weight_bond	index	0.0001
variable	weight_focus	index	1
variable	cutoff		index	9.5
variable	charge_cutoff	index	9.5
variable	kappa		index	4
variable	density1	index	0.55
variable	lprevious	index	0
variable	lphase		index	48.3854950346
variable	f_poly		index	10
variable	chem_repeat	index	*CC(Cl)*
variable	chem_cap	index	*[H]
variable	lg_repeat	index	6
variable	lg_cap		index	1
variable	norm_poly	index	100
variable	l_poly		index	362
variable	mg_repeat	index	50.48806
variable	mg_cap		index	1.00797
variable	m_poly		index	3031.29954
variable	n_poly		index	10
variable	mtotal		index	37519.6854
variable	nphase1		index	3620
variable	mphase1		index	37519.6854
variable	vphase1		index	113277.998291
variable	lbox		index	48.3854950346
variable	lphase1		index	48.3854950346
variable	lxx		index	48.3854950346
variable	lyy		index	48.3854950346
variable	lzz		index	48.3854950346
variable	lzy		index	0
variable	lzx		index	0
variable	lyx		index	0
variable	vtotal		index	113277.998291
variable	nl_poly		index	10

# Types

variable	type_c		index	1
variable	type_c1		index	2
variable	type_cl		index	3
variable	type_hc		index	4

variable	type_bond_c_c	index	1
variable	type_bond_c_c1	index	2
variable	type_bond_c_cl	index	3
variable	type_bond_c_hc	index	4
variable	type_bond_c1_cl	index	5
variable	type_bond_c1_hc	index	6

variable	type_angle_c_c_c1 index	1
variable	type_angle_c_c_cl index	2
variable	type_angle_c_c_hc index	3
variable	type_angle_c_c1_c index	4
variable	type_angle_c_c1_cl index	5
variable	type_angle_c_c1_hc index	6
variable	type_angle_c1_c_c1 index	7
variable	type_angle_c1_c_hc index	8
variable	type_angle_cl_c_hc index	9
variable	type_angle_cl_c1_hc index	10
variable	type_angle_hc_c_hc index	11

# Clusters

variable	n0_poly		index	1
variable	n1_poly		index	10
variable	nl_poly		index	10

# Flags

variable	flag_charged	index	1

# Masses

mass		1    12.01115  # c
mass		2    12.01115  # c1
mass		3    35.45300  # cl
mass		4     1.00797  # hc

# Potentials

pair_modify	mix sixthpower tail yes
special_bonds	lj/coul 0 0 1

# Pair Coeffs

pair_coeff	 1  1    0.05400    4.01000  # c,c
pair_coeff	 2  2    0.05400    4.01000  # c1,c1
pair_coeff	 3  3    0.22470    3.92000  # cl,cl
pair_coeff	 4  4    0.02000    2.99500  # hc,hc

# Bond Coeffs

bond_coeff	1    1.53000  299.67000 -501.77000  679.81000  # c,c
bond_coeff	2    1.53000  299.67000 -501.77000  679.81000  # c,c1
bond_coeff	3    1.79000  194.31900    0.00000    0.00000  # c,cl
bond_coeff	4    1.10100  345.00000 -691.89000  844.60000  # c,hc
bond_coeff	5    1.79000  194.31900    0.00000    0.00000  # c1,cl
bond_coeff	6    1.10100  345.00000 -691.89000  844.60000  # c1,hc

# Angle Coeffs

angle_coeff	 1  112.67000   39.51600   -7.44300   -9.55830  # c,c,c1
angle_coeff	 2  107.00000   61.17450    0.00000    0.00000  # c,c,cl
angle_coeff	 3  110.77000   41.45300  -10.60400    5.12900  # c,c,hc
angle_coeff	 4  112.67000   39.51600   -7.44300   -9.55830  # c,c1,c
angle_coeff	 5  107.00000   61.17450    0.00000    0.00000  # c,c1,cl
angle_coeff	 6  110.77000   41.45300  -10.60400    5.12900  # c,c1,hc
angle_coeff	 7  112.67000   39.51600   -7.44300   -9.55830  # c1,c,c1
angle_coeff	 8  110.77000   41.45300  -10.60400    5.12900  # c1,c,hc
angle_coeff	 9  107.99680   51.09870    0.00000    0.00000  # cl,c,hc
angle_coeff	10  107.99680   51.09870    0.00000    0.00000  # cl,c1,hc
angle_coeff	11  107.66000   39.64100  -12.92100   -2.43180  # hc,c,hc

# BondBond Coeffs

angle_coeff	 1 bb    0.00000    1.53000    1.53000  # c,c,c1
angle_coeff	 2 bb    0.00000    1.53000    1.79000  # c,c,cl
angle_coeff	 3 bb    3.38720    1.53000    1.10100  # c,c,hc
angle_coeff	 4 bb    0.00000    1.53000    1.53000  # c,c1,c
angle_coeff	 5 bb    0.00000    1.53000    1.79000  # c,c1,cl
angle_coeff	 6 bb    3.38720    1.53000    1.10100  # c,c1,hc
angle_coeff	 7 bb    0.00000    1.53000    1.53000  # c1,c,c1
angle_coeff	 8 bb    3.38720    1.53000    1.10100  # c1,c,hc
angle_coeff	 9 bb    0.00000    1.79000    1.10100  # cl,c,hc
angle_coeff	10 bb    0.00000    1.79000    1.10100  # cl,c1,hc
angle_coeff	11 bb    5.33160    1.10100    1.10100  # hc,c,hc

# BondAngle Coeffs

angle_coeff	 1 ba    8.01600    8.01600    1.53000    1.53000  # c,c,c1
angle_coeff	 2 ba    0.00000    0.00000    1.53000    1.79000  # c,c,cl
angle_coeff	 3 ba   20.75400   11.42100    1.53000    1.10100  # c,c,hc
angle_coeff	 4 ba    8.01600    8.01600    1.53000    1.53000  # c,c1,c
angle_coeff	 5 ba    0.00000    0.00000    1.53000    1.79000  # c,c1,cl
angle_coeff	 6 ba   20.75400   11.42100    1.53000    1.10100  # c,c1,hc
angle_coeff	 7 ba    8.01600    8.01600    1.53000    1.53000  # c1,c,c1
angle_coeff	 8 ba   20.75400   11.42100    1.53000    1.10100  # c1,c,hc
angle_coeff	 9 ba    0.00000    0.00000    1.79000    1.10100  # cl,c,hc
angle_coeff	10 ba    0.00000    0.00000    1.79000    1.10100  # cl,c1,hc
angle_coeff	11 ba   18.10300   18.10300    1.10100    1.10100  # hc,c,hc

# Dihedral Coeffs

dihedral_coeff	 1    0.00000    0.00000    0.05140    0.00000   -0.14300    0.00000  # c,c,c1,c
dihedral_coeff	 2    0.00000    0.00000    0.00000    0.00000    0.15000    0.00000  # c,c,c1,cl
dihedral_coeff	 3    0.00000    0.00000    0.03160    0.00000   -0.16810    0.00000  # c,c,c1,hc
dihedral_coeff	 4    0.00000    0.00000    0.05140    0.00000   -0.14300    0.00000  # c,c1,c,c1
dihedral_coeff	 5    0.00000    0.00000    0.03160    0.00000   -0.16810    0.00000  # c,c1,c,hc
dihedral_coeff	 6    0.00000    0.00000    0.00000    0.00000    0.15000    0.00000  # c1,c,c,cl
dihedral_coeff	 7    0.00000    0.00000    0.03160    0.00000   -0.16810    0.00000  # c1,c,c,hc
dihedral_coeff	 8    0.00000    0.00000    0.00000    0.00000    0.15000    0.00000  # c1,c,c1,cl
dihedral_coeff	 9    0.00000    0.00000    0.03160    0.00000   -0.16810    0.00000  # c1,c,c1,hc
dihedral_coeff	10    0.00000    0.00000    0.00000    0.00000   -0.10000    0.00000  # cl,c,c,hc
dihedral_coeff	11    0.00000    0.00000    0.00000    0.00000   -0.10000    0.00000  # cl,c1,c,hc
dihedral_coeff	12   -0.14320    0.00000    0.06170    0.00000   -0.10830    0.00000  # hc,c,c,hc
dihedral_coeff	13   -0.14320    0.00000    0.06170    0.00000   -0.10830    0.00000  # hc,c,c1,hc

# MiddleBondTorsion Coeffs

dihedral_coeff	 1 mbt  -17.78700   -7.18770    0.00000    1.53000  # c,c,c1,c
dihedral_coeff	 2 mbt    0.00000    0.00000    0.00000    1.53000  # c,c,c1,cl
dihedral_coeff	 3 mbt  -14.87900   -3.65810   -0.31380    1.53000  # c,c,c1,hc
dihedral_coeff	 4 mbt  -17.78700   -7.18770    0.00000    1.53000  # c,c1,c,c1
dihedral_coeff	 5 mbt  -14.87900   -3.65810   -0.31380    1.53000  # c,c1,c,hc
dihedral_coeff	 6 mbt    0.00000    0.00000    0.00000    1.53000  # c1,c,c,cl
dihedral_coeff	 7 mbt  -14.87900   -3.65810   -0.31380    1.53000  # c1,c,c,hc
dihedral_coeff	 8 mbt    0.00000    0.00000    0.00000    1.53000  # c1,c,c1,cl
dihedral_coeff	 9 mbt  -14.87900   -3.65810   -0.31380    1.53000  # c1,c,c1,hc
dihedral_coeff	10 mbt    0.00000    0.00000    0.00000    1.53000  # cl,c,c,hc
dihedral_coeff	11 mbt    0.00000    0.00000    0.00000    1.53000  # cl,c1,c,hc
dihedral_coeff	12 mbt  -14.26100   -0.53220   -0.48640    1.53000  # hc,c,c,hc
dihedral_coeff	13 mbt  -14.26100   -0.53220   -0.48640    1.53000  # hc,c,c1,hc

# EndBondTorsion Coeffs

dihedral_coeff	 1 ebt   -0.07320    0.00000    0.00000   -0.07320    0.00000    0.00000    1.53000    1.53000  # c,c,c1,c
dihedral_coeff	 2 ebt    0.00000    0.00000    0.00000    0.00000    0.00000    0.00000    1.53000    1.79000  # c,c,c1,cl
dihedral_coeff	 3 ebt    0.24860    0.24220   -0.09250    0.08140    0.05910    0.22190    1.53000    1.10100  # c,c,c1,hc
dihedral_coeff	 4 ebt   -0.07320    0.00000    0.00000   -0.07320    0.00000    0.00000    1.53000    1.53000  # c,c1,c,c1
dihedral_coeff	 5 ebt    0.24860    0.24220   -0.09250    0.08140    0.05910    0.22190    1.53000    1.10100  # c,c1,c,hc
dihedral_coeff	 6 ebt    0.00000    0.00000    0.00000    0.00000    0.00000    0.00000    1.53000    1.79000  # c1,c,c,cl
dihedral_coeff	 7 ebt    0.24860    0.24220   -0.09250    0.08140    0.05910    0.22190    1.53000    1.10100  # c1,c,c,hc
dihedral_coeff	 8 ebt    0.00000    0.00000    0.00000    0.00000    0.00000    0.00000    1.53000    1.79000  # c1,c,c1,cl
dihedral_coeff	 9 ebt    0.24860    0.24220   -0.09250    0.08140    0.05910    0.22190    1.53000    1.10100  # c1,c,c1,hc
dihedral_coeff	10 ebt    0.00000    0.00000    0.00000    0.00000    0.00000    0.00000    1.79000    1.10100  # cl,c,c,hc
dihedral_coeff	11 ebt    0.00000    0.00000    0.00000    0.00000    0.00000    0.00000    1.79000    1.10100  # cl,c1,c,hc
dihedral_coeff	12 ebt    0.21300    0.31200    0.07770    0.21300    0.31200    0.07770    1.10100    1.10100  # hc,c,c,hc
dihedral_coeff	13 ebt    0.21300    0.31200    0.07770    0.21300    0.31200    0.07770    1.10100    1.10100  # hc,c,c1,hc

# AngleTorsion Coeffs

dihedral_coeff	 1 at    0.38860   -0.31390    0.13890    0.38860   -0.31390    0.13890  112.67000  112.67000  # c,c,c1,c
dihedral_coeff	 2 at    0.00000    0.00000    0.00000    0.00000    0.00000    0.00000  112.67000  107.00000  # c,c,c1,cl
dihedral_coeff	 3 at   -0.24540    0.00000   -0.11360    0.31130    0.45160   -0.19880  112.67000  110.77000  # c,c,c1,hc
dihedral_coeff	 4 at    0.38860   -0.31390    0.13890    0.38860   -0.31390    0.13890  112.67000  112.67000  # c,c1,c,c1
dihedral_coeff	 5 at   -0.24540    0.00000   -0.11360    0.31130    0.45160   -0.19880  112.67000  110.77000  # c,c1,c,hc
dihedral_coeff	 6 at    0.00000    0.00000    0.00000    0.00000    0.00000    0.00000  112.67000  107.00000  # c1,c,c,cl
dihedral_coeff	 7 at   -0.24540    0.00000   -0.11360    0.31130    0.45160   -0.19880  112.67000  110.77000  # c1,c,c,hc
dihedral_coeff	 8 at    0.00000    0.00000    0.00000    0.00000    0.00000    0.00000  112.67000  107.00000  # c1,c,c1,cl
dihedral_coeff	 9 at   -0.24540    0.00000   -0.11360    0.31130    0.45160   -0.19880  112.67000  110.77000  # c1,c,c1,hc
dihedral_coeff	10 at    0.00000    0.00000    0.00000    0.00000    0.00000    0.00000  107.00000  110.77000  # cl,c,c,hc
dihedral_coeff	11 at    0.00000    0.00000    0.00000    0.00000    0.00000    0.00000  107.00000  110.77000  # cl,c1,c,hc
dihedral_coeff	12 at   -0.80850    0.55690   -0.24660   -0.80850    0.55690   -0.24660  110.77000  110.77000  # hc,c,c,hc
dihedral_coeff	13 at   -0.80850    0.55690   -0.24660   -0.80850    0.55690   -0.24660  110.77000  110.77000  # hc,c,c1,hc

# AngleAngleTorsion Coeffs

dihedral_coeff	 1 aat  -22.04500  112.67000  112.67000  # c,c,c1,c
dihedral_coeff	 2 aat    0.00000  112.67000  107.00000  # c,c,c1,cl
dihedral_coeff	 3 aat  -16.16400  112.67000  110.77000  # c,c,c1,hc
dihedral_coeff	 4 aat  -22.04500  112.67000  112.67000  # c,c1,c,c1
dihedral_coeff	 5 aat  -16.16400  112.67000  110.77000  # c,c1,c,hc
dihedral_coeff	 6 aat    0.00000  112.67000  107.00000  # c1,c,c,cl
dihedral_coeff	 7 aat  -16.16400  112.67000  110.77000  # c1,c,c,hc
dihedral_coeff	 8 aat    0.00000  112.67000  107.00000  # c1,c,c1,cl
dihedral_coeff	 9 aat  -16.16400  112.67000  110.77000  # c1,c,c1,hc
dihedral_coeff	10 aat    0.00000  107.00000  110.77000  # cl,c,c,hc
dihedral_coeff	11 aat    0.00000  107.00000  110.77000  # cl,c1,c,hc
dihedral_coeff	12 aat  -12.56400  110.77000  110.77000  # hc,c,c,hc
dihedral_coeff	13 aat  -12.56400  110.77000  110.77000  # hc,c,c1,hc

# BondBond13 Coeffs

dihedral_coeff	 1 bb13    0.00000    1.53000    1.53000  # c,c,c1,c
dihedral_coeff	 2 bb13    0.00000    1.53000    1.79000  # c,c,c1,cl
dihedral_coeff	 3 bb13    0.00000    1.53000    1.10100  # c,c,c1,hc
dihedral_coeff	 4 bb13    0.00000    1.53000    1.53000  # c,c1,c,c1
dihedral_coeff	 5 bb13    0.00000    1.53000    1.10100  # c,c1,c,hc
dihedral_coeff	 6 bb13    0.00000    1.53000    1.79000  # c1,c,c,cl
dihedral_coeff	 7 bb13    0.00000    1.53000    1.10100  # c1,c,c,hc
dihedral_coeff	 8 bb13    0.00000    1.53000    1.79000  # c1,c,c1,cl
dihedral_coeff	 9 bb13    0.00000    1.53000    1.10100  # c1,c,c1,hc
dihedral_coeff	10 bb13    0.00000    1.79000    1.10100  # cl,c,c,hc
dihedral_coeff	11 bb13    0.00000    1.79000    1.10100  # cl,c1,c,hc
dihedral_coeff	12 bb13    0.00000    1.10100    1.10100  # hc,c,c,hc
dihedral_coeff	13 bb13    0.00000    1.10100    1.10100  # hc,c,c1,hc

# Improper Coeffs

improper_coeff	 1    0.00000    0.00000  # c,c,cl,hc
improper_coeff	 2    0.00000    0.00000  # c,c,hc,c1
improper_coeff	 3    0.00000    0.00000  # c,c,hc,cl
improper_coeff	 4    0.00000    0.00000  # c,c,hc,hc
improper_coeff	 5    0.00000    0.00000  # c,c1,c1,hc
improper_coeff	 6    0.00000    0.00000  # c,c1,hc,hc
improper_coeff	 7    0.00000    0.00000  # c,cl,hc,hc
improper_coeff	 8    0.00000    0.00000  # c,hc,hc,hc
improper_coeff	 9    0.00000    0.00000  # c1,c,c,cl
improper_coeff	10    0.00000    0.00000  # c1,c,c,hc
improper_coeff	11    0.00000    0.00000  # c1,c,cl,hc

# AngleAngle Coeffs

improper_coeff	 1 aa    0.00000    0.00000    0.00000  107.00000  110.77000  107.99680  # c,c,cl,hc
improper_coeff	 2 aa    0.11840   -1.31990   -1.31990  110.77000  112.67000  110.77000  # c,c,hc,c1
improper_coeff	 3 aa    0.00000    0.00000    0.00000  110.77000  107.00000  107.99680  # c,c,hc,cl
improper_coeff	 4 aa    0.27380   -0.48250    0.27380  110.77000  110.77000  107.66000  # c,c,hc,hc
improper_coeff	 5 aa   -1.31990   -1.31990    0.11840  112.67000  110.77000  110.77000  # c,c1,c1,hc
improper_coeff	 6 aa    0.27380   -0.48250    0.27380  110.77000  110.77000  107.66000  # c,c1,hc,hc
improper_coeff	 7 aa    0.00000    0.00000    0.00000  107.99680  107.99680  107.66000  # c,cl,hc,hc
improper_coeff	 8 aa   -0.31570   -0.31570   -0.31570  107.66000  107.66000  107.66000  # c,hc,hc,hc
improper_coeff	 9 aa    0.00000    0.00000    0.00000  112.67000  107.00000  107.00000  # c1,c,c,cl
improper_coeff	10 aa   -1.31990   -1.31990    0.11840  112.67000  110.77000  110.77000  # c1,c,c,hc
improper_coeff	11 aa    0.00000    0.00000    0.00000  107.00000  110.77000  107.99680  # c1,c,cl,hc


# --- Thermo Output ---
thermo_style custom step time temp press enthalpy etotal ke pe ebond eangle edihed eimp evdwl ecoul elong etail vol lx ly lz density pxx pyy pzz
thermo_modify flush yes
thermo 1000

# --- Trajectory ---
dump dump_nvt all custom 1000 nvt_production.dump id type mol x y z ix iy iz vx vy vz

# --- Restart Checkpointing ---
# No restart checkpointing

# --- Initial Velocities (optional) ---
# Velocities read from data file

# --- SHAKE Constraints ---
# Constrains H-X bonds to allow 2fs timestep
# SHAKE disabled

# --- NVT Thermostat (Nose-Hoover) ---
# T_damp = 100.0 fs  (coupling timescale for heat exchange)
# Ramp: 530.0 K -> 530.0 K over 1000000 steps
timestep 1.0
fix nvt_fix all nvt temp 530.0 530.0 100.0

run 1000000

CITE-CITE-CITE-CITE-CITE-CITE-CITE-CITE-CITE-CITE-CITE-CITE-CITE

Your simulation uses code contributions which should be cited:

- GPU package (short-range, long-range and three-body potentials): doi:10.1016/j.cpc.2010.12.021, doi:10.1016/j.cpc.2011.10.012, doi:10.1016/j.cpc.2013.08.002, doi:10.1016/j.commatsci.2014.10.068, doi:10.1016/j.cpc.2016.10.020, doi:10.3233/APC200086

@Article{Brown11,
 author = {W. M. Brown and P. Wang and S. J. Plimpton and A. N. Tharrington},
 title = {Implementing Molecular Dynamics on Hybrid High Performance Computers---Short Range Forces},
 journal = {Comput.\ Phys.\ Commun.},
 year =    2011,
 volume =  182,
 pages =   {898--911},
 doi =     {10.1016/j.cpc.2010.12.021}
}

@Article{Brown12,
 author = {W. M. Brown and A. Kohlmeyer and S. J. Plimpton and A. N. Tharrington},
 title = {Implementing Molecular Dynamics on Hybrid High Performance Computers - Particle-Particle Particle-Mesh},
 journal = {Comput.\ Phys.\ Commun.},
 year =    2012,
 volume =  183,
 doi =     {10.1016/j.cpc.2011.10.012},
 pages =   {449--459}
}

@Article{Brown13,
 author = {W. M. Brown and Y. Masako},
 title = {Implementing Molecular Dynamics on Hybrid High Performance Computers---Three-Body Potentials},
 journal = {Comput.\ Phys.\ Commun.},
 year =    2013,
 volume =  184,
 pages =   {2785--2793},
 doi =     {10.1016/j.cpc.2013.08.002},
}

@Article{Trung15,
 author = {T. D. Nguyen and S. J. Plimpton},
 title = {Accelerating Dissipative Particle Dynamics Simulations for Soft Matter Systems},
 journal = {Comput.\ Mater.\ Sci.},
 year =    2015,
 doi =     {10.1016/j.commatsci.2014.10.068},
 volume =  100,
 pages =   {173--180}
}

@Article{Trung17,
 author = {T. D. Nguyen},
 title = {{GPU}-Accelerated {T}ersoff Potentials for Massively Parallel
    Molecular Dynamics Simulations},
 journal = {Comput.\ Phys.\ Commun.},
 year =    2017,
 doi =     {10.1016/j.cpc.2016.10.020},
 volume =  212,
 pages =   {113--122}
}

@inproceedings{Nikolskiy19,
 author = {V. Nikolskiy and V. Stegailov},
 title = {{GPU} Acceleration of Four-Site Water Models in {LAMMPS}},
 booktitle = {Proceedings of the International Conference on Parallel
    Computing (ParCo 2019), Prague, Czech Republic},
 doi =     {10.3233/APC200086},
 year =    2019
}

CITE-CITE-CITE-CITE-CITE-CITE-CITE-CITE-CITE-CITE-CITE-CITE-CITE

PPPM initialization ...
  using 12-bit tables for long-range coulomb
  G vector (1/distance) = 0.29518905
  grid = 25 25 25
  stencil order = 5
  estimated absolute RMS force accuracy = 0.00035592686
  estimated relative force accuracy = 1.0718632e-06
  using double precision KISS FFT
  3d grid and FFT values/proc = 32768 15625
Generated 6 of 6 mixed pair_coeff terms from sixthpower/sixthpower mixing rule
Neighbor list info ...
  update: every = 1 steps, delay = 0 steps, check = yes
  max neighbors/atom: 4000, page size: 100000
  master list distance cutoff = 11.5
  ghost atom cutoff = 11.5
  binsize = 5.75, bins = 7 7 7
  1 neighbor lists, perpetual/occasional/extra = 1 0 0
  (1) pair lj/class2/coul/long/gpu, perpetual
      attributes: full, newton on
      pair build: full/bin
      stencil: full/bin/3d
      bin: standard
Per MPI rank memory allocation (min/avg/max) = 25.28 | 25.28 | 25.28 Mbytes
   Step          Time           Temp          Press         Enthalpy        TotEng         KinEng         PotEng         E_bond        E_angle        E_dihed        E_impro         E_vdwl         E_coul         E_long         E_tail         Volume           Lx             Ly             Lz          Density          Pxx            Pyy            Pzz      
         0   0              516.51298     -540.78701      4650.8326      5063.2534      5571.9104     -508.65698      2274.3025      3219.4629     -1880.0292      21.713254     -382.44413     -1543.9975     -2217.6648     -242.00384      52292.375      37.394936      37.394936      37.394936      1.1914337     -1028.6264      817.26453     -1410.9992    
      1000   1000           528.21323      48.300107      5197.2355      5160.4003      5698.1274     -537.72711      2214.3391      3264.1533     -1903.212       22.031058     -378.6328      -1541.8249     -2214.5809     -242.00384      52292.375      37.394936      37.394936      37.394936      1.1914337     -816.8913       908.56581      53.225813    
      2000   2000           518.53958     -591.55618      4685.6704      5136.8093      5593.7724     -456.96315      2273.1138      3328.027      -1882.5656      22.818128     -434.12728     -1546.0721     -2218.1571     -242.00384      52292.375      37.394936      37.394936      37.394936      1.1914337     -789.82894     -1839.4119      854.57227    
      3000   3000           533.33164      860.06915      5963.5979      5307.6828      5753.3425     -445.65971      2245.6394      3271.9574     -1878.435       21.077022     -333.32594     -1545.4971     -2227.0755     -242.00384      52292.375      37.394936      37.394936      37.394936      1.1914337      312.47342      1334.5618      933.1722     
      4000   4000           523.52961     -209.0537       5154.1248      5313.5555      5647.6027     -334.04712      2353.1774      3287.672      -1877.0471      23.212931     -365.17782     -1540.2342     -2215.6503     -242.00384      52292.375      37.394936      37.394936      37.394936      1.1914337     -1023.3889     -54.078031      450.30586    
      5000   5000           537.09414      408.32305      5502.5104      5191.1107      5793.9307     -602.81998      2166.1705      3211.0069     -1874.7265      19.998925     -371.90541     -1538.1862     -2215.1781     -242.00384      52292.375      37.394936      37.394936      37.394936      1.1914337      158.89523      110.89323      955.18069    
      6000   6000           526.27861      276.96476      5266.2224      5055.0006      5677.2577     -622.25704      2224.1941      3123.2473     -1865.9543      19.725286     -366.2052      -1546.3709     -2210.8933     -242.00384      52292.375      37.394936      37.394936      37.394936      1.1914337      1120.4013      785.03384     -1074.5408    
      7000   7000           530.91224     -1632.3761      3908.3787      5153.2788      5727.2432     -573.96444      2291.5267      3182.9833     -1912.5888      21.688788     -414.65443     -1532.3783     -2210.5417     -242.00384      52292.375      37.394936      37.394936      37.394936      1.1914337     -1873.8138     -755.34438     -2267.9702    
      8000   8000           512.52367     -853.52706      4307.3337      4958.2596      5528.8755     -570.61592      2316.3584      3143.264      -1885.8519      19.673295     -388.74313     -1554.752      -2220.5646     -242.00384      52292.375      37.394936      37.394936      37.394936      1.1914337     -2949.3022      237.75964      150.96137    
      9000   9000           545.85754      564.36769      5583.2683      5152.8642      5888.4664     -735.60217      2197.1743      3114.7555     -1916.1398      20.947252     -368.05869     -1561.8505     -2222.4302     -242.00384      52292.375      37.394936      37.394936      37.394936      1.1914337      1007.7596     -170.08427      855.42775    
     10000   10000          539.53852     -1399.1027      4215.9709      5282.9695      5820.2996     -537.33012      2333.7431      3172.8945     -1893.3367      21.135528     -426.94688     -1534.0219     -2210.7978     -242.00384      52292.375      37.394936      37.394936      37.394936      1.1914337     -2708.2351     -51.338536     -1437.7344    
     11000   11000          528.79034     -1868.2726      3696.2923      5121.0942      5704.3531     -583.25889      2239.5449      3265.6049     -1911.1852      21.33825      -431.23004     -1549.4729     -2217.8588     -242.00384      52292.375      37.394936      37.394936      37.394936      1.1914337     -4025.0182     -460.33108     -1119.4686    
     12000   12000          522.57387      1055.0758      5762.929       4958.2959      5637.2925     -678.99664      2187.7936      3191.2462     -1913.4263      21.198831     -397.32124     -1553.5218     -2214.9659     -242.00384      52292.375      37.394936      37.394936      37.394936      1.1914337      1016.0296      789.01055      1360.1873    
     13000   13000          525.71046     -227.32685      4999.4163      5172.7828      5671.1287     -498.34589      2261.3662      3260.638      -1907.0364      23.062662     -379.83501     -1545.3861     -2211.1553     -242.00384      52292.375      37.394936      37.394936      37.394936      1.1914337     -943.26752     -1481.0942      1742.3812    
     14000   14000          544.73304     -410.16899      5003.278       5316.0855      5876.3358     -560.25029      2270.9653      3249.7249     -1893.2402      22.343682     -455.26661     -1534.5969     -2220.1804     -242.00384      52292.375      37.394936      37.394936      37.394936      1.1914337     -1910.8155      291.46968      388.83881    
     15000   15000          520.22494      228.5973       5345.0848      5170.7495      5611.9534     -441.20387      2290.6131      3240.9621     -1877.851       19.478661     -361.64462     -1537.6116     -2215.1506     -242.00384      52292.375      37.394936      37.394936      37.394936      1.1914337      35.776723      960.1674      -310.15222    
     16000   16000          537.32461     -237.9031       4890.4387      5071.8709      5796.417      -724.54611      2161.298       3128.536      -1894.1537      21.752847     -381.95141     -1542.6348     -2217.393      -242.00384      52292.375      37.394936      37.394936      37.394936      1.1914337     -956.98285     -467.21702      710.49058    
     17000   17000          532.1561      -605.80487      4850.7417      5312.7471      5740.6613     -427.91423      2313.7936      3246.3465     -1868.6596      20.514641     -375.33737     -1545.9241     -2218.6479     -242.00384      52292.375      37.394936      37.394936      37.394936      1.1914337      387.38394     -527.07494     -1677.7236    
     18000   18000          524.55058      392.40871      5362.1007      5062.8378      5658.6164     -595.77865      2248.8556      3155.3716     -1897.4733      21.61439      -370.43652     -1536.5112     -2217.1993     -242.00384      52292.375      37.394936      37.394936      37.394936      1.1914337      1818.5293     -102.73201     -538.57121    
     19000   19000          533.85857      928.66229      5977.6706      5269.4443      5759.0269     -489.58261      2234.0406      3273.6885     -1896.8859      21.880532     -354.35703     -1552.5043     -2215.4451     -242.00384      52292.375      37.394936      37.394936      37.394936      1.1914337      3693.9117      418.68174     -1326.6065    
     20000   20000          527.19873      200.01147      5193.5363      5041.0014      5687.1835     -646.1821       2221.6517      3143.3568     -1891.548       20.876974     -360.61981     -1556.9937     -2222.9061     -242.00384      52292.375      37.394936      37.394936      37.394936      1.1914337     -125.39078      159.35405      566.07115    
     21000   21000          526.10727      949.99217      5881.8349      5157.3418      5675.4093     -518.06749      2194.0989      3286.7752     -1910.3961      22.424554     -335.64001     -1558.7983     -2216.5317     -242.00384      52292.375      37.394936      37.394936      37.394936      1.1914337      1482.5876      607.0217       760.36717    
     22000   22000          531.58536     -13.029282      4985.2704      4995.2069      5734.5044     -739.29751      2184.7608      3087.125      -1880.7664      21.482348     -378.7571      -1550.1047     -2223.0375     -242.00384      52292.375      37.394936      37.394936      37.394936      1.1914337      1934.8526      1199.5539     -3173.4944    
     23000   23000          535.48641     -1073.5273      4336.5688      5155.2737      5776.5873     -621.31358      2291.1907      3125.3008     -1871.8984      20.520405     -408.1907      -1554.8364     -2223.4        -242.00384      52292.375      37.394936      37.394936      37.394936      1.1914337     -2075.5619     -1234.9983      89.97819     
     24000   24000          527.78194     -720.15136      4654.1714      5203.3809      5693.4749     -490.09399      2241.2461      3234.9715     -1889.5274      21.195457     -336.62333     -1545.4546     -2215.9017     -242.00384      52292.375      37.394936      37.394936      37.394936      1.1914337      191.89619     -2535.948       183.59778    
     25000   25000          540.05351     -239.42364      5040.1451      5222.7369      5825.8551     -603.11818      2233.5527      3189.3949     -1899.1307      22.24132      -380.56513     -1546.5485     -2222.0628     -242.00384      52292.375      37.394936      37.394936      37.394936      1.1914337     -646.25358      1646.5291     -1718.5464    
     26000   26000          525.08607      577.13772      5535.1994      5095.0565      5664.3931     -569.33662      2248.0795      3195.0438     -1910.0779      20.579627     -360.43021     -1542.2691     -2220.2623     -242.00384      52292.375      37.394936      37.394936      37.394936      1.1914337     -1655.8166      1637.8395      1749.3903    
     27000   27000          525.06339     -112.25515      5062.9076      5148.5168      5664.1484     -515.63152      2217.4759      3296.1934     -1918.097       21.590932     -360.48394     -1552.0287     -2220.2821     -242.00384      52292.375      37.394936      37.394936      37.394936      1.1914337     -1167.2877     -646.79264      1477.3149    
     28000   28000          522.46499      81.971787      5226.1502      5163.636       5636.1181     -472.48209      2309.7412      3245.4194     -1897.9519      21.478635     -391.64915     -1542.0977     -2217.4226     -242.00384      52292.375      37.394936      37.394936      37.394936      1.1914337     -237.21185      406.46868      76.658529    
     29000   29000          524.39046     -301.99295      4870.6331      5100.9422      5656.8892     -555.94694      2239.6768      3233.8999     -1888.5679      21.649631     -383.13699     -1555.8587     -2223.6097     -242.00384      52292.375      37.394936      37.394936      37.394936      1.1914337     -268.46276     -355.53674     -281.97934    
     30000   30000          527.83994     -26.652026      5017.1133      5037.4389      5694.1006     -656.66165      2139.1503      3247.6331     -1912.9397      22.171648     -385.64331     -1545.2209     -2221.8126     -242.00384      52292.375      37.394936      37.394936      37.394936      1.1914337      698.27429     -268.66933     -509.56104    
     31000   31000          534.69198     -30.430407      5157.3543      5180.5615      5768.0173     -587.45583      2224.6845      3229.8559     -1924.5172      23.390105     -371.25893     -1548.1804     -2221.4297     -242.00384      52292.375      37.394936      37.394936      37.394936      1.1914337      689.7077      -769.65814     -11.340784    
     32000   32000          534.77417      1126.2621      6055.7794      5196.8574      5768.9039     -572.04656      2141.4894      3214.9697     -1884.5173      19.941592     -291.67493     -1556.285      -2215.9699     -242.00384      52292.375      37.394936      37.394936      37.394936      1.1914337      971.84357      219.46575      2187.4771    
     33000   33000          537.16417     -989.75091      4586.0432      5340.8576      5794.6862     -453.8286       2296.3187      3247.404      -1895.1363      21.190234     -348.95606     -1550.203      -2224.4461     -242.00384      52292.375      37.394936      37.394936      37.394936      1.1914337     -1179.9515     -2084.6234      295.32217    
     34000   34000          538.8777       943.67805      5985.7787      5266.1009      5813.1709     -547.07004      2189.2515      3254.2064     -1885.8596      19.769902     -345.47455     -1557.492      -2221.4717     -242.00384      52292.375      37.394936      37.394936      37.394936      1.1914337      655.34024      1800.8133      374.88059    
     35000   35000          520.80143      181.70211      5347.4536      5208.882       5618.1723     -409.29026      2306.9739      3294.3468     -1903.6533      20.180326     -368.43138     -1544.7358     -2213.9708     -242.00384      52292.375      37.394936      37.394936      37.394936      1.1914337      652.40065      1589.7686     -1697.0629    
     36000   36000          538.60752     -765.74858      4683.2451      5267.2284      5810.2564     -543.028        2209.5317      3316.1198     -1950.8076      22.093946     -366.64242     -1551.6563     -2221.6671     -242.00384      52292.375      37.394936      37.394936      37.394936      1.1914337     -1278.3404     -1190.8653      171.95995    
     37000   37000          525.45966      857.20879      5801.0032      5147.2695      5668.4232     -521.15375      2229.6486      3219.8122     -1909.3453      20.283726     -320.4032      -1545.675      -2215.4747     -242.00384      52292.375      37.394936      37.394936      37.394936      1.1914337      938.70758      2094.3931     -461.47433    
     38000   38000          537.89221      2046.6118      6760.8641      5200.0552      5802.54       -602.48482      2198.0473      3248.9095     -1937.0254      21.949307     -360.34779     -1555.5109     -2218.5069     -242.00384      52292.375      37.394936      37.394936      37.394936      1.1914337      1602.9707      1425.0446      3111.8203    
     39000   39000          534.43821     -450.20023      4836.4579      5179.7944      5765.2798     -585.48534      2282.756       3204.2583     -1905.306       20.897176     -414.64746     -1549.1949     -2224.2485     -242.00384      52292.375      37.394936      37.394936      37.394936      1.1914337     -731.38342     -1940.3672      1321.1499    
     40000   40000          515.52787     -32.73728       4973.068       4998.0344      5561.2835     -563.24905      2229.0763      3153.8104     -1873.5611      19.887023     -324.19357     -1546.7415     -2221.5267     -242.00384      52292.375      37.394936      37.394936      37.394936      1.1914337      582.483       -721.59204      40.897198    
     41000   41000          528.83029      1316.4626      5936.6422      4932.6674      5704.784      -772.11661      2094.7684      3136.5444     -1900.0448      20.001243     -349.24365     -1552.673      -2221.4692     -242.00384      52292.375      37.394936      37.394936      37.394936      1.1914337      1365.3906      729.47306      1854.5242    
     42000   42000          530.86643     -566.71703      4709.7182      5141.914       5726.749      -584.83496      2283.1719      3213.1445     -1919.5158      22.771884     -400.76562     -1560.2359     -2223.4059     -242.00384      52292.375      37.394936      37.394936      37.394936      1.1914337     -457.57927     -1495.9691      253.39724    
     43000   43000          525.08103     -292.68568      4900.3761      5123.5872      5664.3386     -540.75146      2298.4354      3155.2939     -1875.018       20.590164     -396.09272     -1536.448      -2207.5122     -242.00384      52292.375      37.394936      37.394936      37.394936      1.1914337     -1481.8788     -860.851        1464.6727    
     44000   44000          544.16022     -1598.9244      4051.117       5270.5057      5870.1565     -599.65074      2238.8983      3136.8682     -1869.0567      20.027096     -357.49558     -1549.4889     -2219.4031     -242.00384      52292.375      37.394936      37.394936      37.394936      1.1914337     -394.64941     -2119.8472     -2282.2767    
     45000   45000          530.02168      966.84432      5936.5314      5199.1863      5717.6362     -518.44999      2223.7878      3244.7565     -1875.0111      20.957885     -370.58794     -1543.0767     -2219.2764     -242.00384      52292.375      37.394936      37.394936      37.394936      1.1914337     -927.92025      2050.1021      1778.3511    
     46000   46000          534.18619     -357.81264      4996.5427      5269.4216      5762.5611     -493.13952      2295.8442      3278.0354     -1915.4203      23.595489     -409.68224     -1549.1979     -2216.3142     -242.00384      52292.375      37.394936      37.394936      37.394936      1.1914337     -1817.5301     -660.87149      1404.9637    
     47000   47000          534.94012     -472.50965      4781.0853      5141.4357      5770.6941     -629.25842      2216.6398      3202.9439     -1899.7943      21.436728     -398.93824     -1551.1532     -2220.3931     -242.00384      52292.375      37.394936      37.394936      37.394936      1.1914337     -140.96199     -720.84571     -555.72126    
     48000   48000          522.95198     -1135.5838      4198.8656      5064.8967      5641.3715     -576.47483      2264.847       3197.0945     -1910.5223      21.080379     -388.32018     -1543.0665     -2217.5877     -242.00384      52292.375      37.394936      37.394936      37.394936      1.1914337      189.76828     -753.40748     -2843.1123    
     49000   49000          542.83645      483.4511       5624.2508      5255.5562      5855.8762     -600.31997      2255.6343      3131.8223     -1879.4841      21.125362     -361.24114     -1545.6636     -2222.513      -242.00384      52292.375      37.394936      37.394936      37.394936      1.1914337      1634.0241      1576.069      -1759.7398    
     50000   50000          537.59296      634.41629      5850.0747      5366.2494      5799.3118     -433.06242      2313.0922      3306.3071     -1930.461       23.7379       -389.21213     -1534.2432     -2222.2833     -242.00384      52292.375      37.394936      37.394936      37.394936      1.1914337      1193.9206      116.30564      593.02262    
     51000   51000          530.99788      27.951809      5253.2028      5231.8859      5728.167      -496.28103      2277.4788      3204.0212     -1891.2327      22.028558     -374.57438     -1522.4894     -2211.5131     -242.00384      52292.375      37.394936      37.394936      37.394936      1.1914337      61.211921     -765.24482      787.88833    
     52000   52000          527.43157      610.8206       5499.8232      5033.9927      5689.6953     -655.70256      2193.8588      3172.602      -1928.0777      20.33378      -372.68802     -1529.0559     -2212.6755     -242.00384      52292.375      37.394936      37.394936      37.394936      1.1914337      231.42855      171.5472       1429.4861    
     53000   53000          523.87915      1091.7559      5826.2384      4993.6319      5651.3734     -657.74151      2207.4993      3198.8691     -1930.7787      22.20441      -375.56097     -1558.6921     -2221.2826     -242.00384      52292.375      37.394936      37.394936      37.394936      1.1914337      177.71326      702.22216      2395.3323    
     54000   54000          523.41776      454.53756      5470.2119      5123.5676      5646.3961     -522.82849      2265.5343      3241.4896     -1903.6223      19.89339      -374.06315     -1550.3677     -2221.6927     -242.00384      52292.375      37.394936      37.394936      37.394936      1.1914337      1533.8947     -353.48486      183.20281    
     55000   55000          533.443        772.5637       5891.6133      5302.4326      5754.5439     -452.11132      2300.5521      3191.1448     -1874.7093      19.820118     -317.55053     -1549.0405     -2222.328      -242.00384      52292.375      37.394936      37.394936      37.394936      1.1914337      2200.1578     -686.75789      804.29116    
     56000   56000          533.87584      698.71895      5681.8941      5149.0297      5759.2132     -610.18355      2216.9047      3166.405      -1874.1673      20.890309     -369.18573     -1544.3118     -2226.7187     -242.00384      52292.375      37.394936      37.394936      37.394936      1.1914337     -179.22533      1307.28        968.10215    
     57000   57000          512.01924      776.4645       5570.0333      4977.8777      5523.434      -545.5563       2196.7847      3239.8821     -1862.9673      21.122428     -376.6741      -1544.4175     -2219.2866     -242.00384      52292.375      37.394936      37.394936      37.394936      1.1914337      1939.2706      450.0388      -59.915848    
     58000   58000          529.70518      1075.6422      5890.4098      5070.0921      5714.2219     -644.12985      2185.463       3174.2537     -1913.7334      21.914256     -343.71399     -1553.8097     -2214.5036     -242.00384      52292.375      37.394936      37.394936      37.394936      1.1914337     -339.58914      1583.5413      1982.9743    
     59000   59000          539.33122      547.40607      5771.7021      5354.2335      5818.0634     -463.82991      2253.3708      3247.891      -1870.228       20.830134     -351.24937     -1546.5151     -2217.9293     -242.00384      52292.375      37.394936      37.394936      37.394936      1.1914337      383.63579     -147.27732      1405.8597    
     60000   60000          532.92649     -749.04617      4582.1221      5153.3677      5748.972      -595.60433      2280.4634      3166.3868     -1914.0089      20.574326     -400.09315     -1535.3695     -2213.5573     -242.00384      52292.375      37.394936      37.394936      37.394936      1.1914337     -316.36667     -1003.1573     -927.61453    
     61000   61000          525.76598      7.5056313      5076.9506      5071.2266      5671.7277     -600.50105      2178.2026      3225.1419     -1910.2949      21.972152     -338.11838     -1555.0194     -2222.385      -242.00384      52292.375      37.394936      37.394936      37.394936      1.1914337     -922.75074      1655.5124     -710.24478    
     62000   62000          527.80805     -866.00527      4497.2113      5157.6535      5693.7566     -536.1031       2208.2863      3190.6853     -1893.0887      20.410297     -289.6172      -1553.2598     -2219.5194     -242.00384      52292.375      37.394936      37.394936      37.394936      1.1914337     -53.269369     -566.61015     -1978.1363    
     63000   63000          519.91695     -671.6147       4581.8159      5094.0099      5608.6309     -514.62107      2253.2036      3247.7949     -1911.9983      20.761862     -374.69427     -1535.6301     -2214.0588     -242.00384      52292.375      37.394936      37.394936      37.394936      1.1914337     -536.97058      351.76784     -1829.6414    
     64000   64000          541.23548     -941.42377      4754.0379      5471.9965      5838.6057     -366.60912      2373.5551      3269.3643     -1859.0025      21.047736     -403.77767     -1551.9584     -2215.8377     -242.00384      52292.375      37.394936      37.394936      37.394936      1.1914337     -1738.363      -922.04161     -163.8667     
     65000   65000          520.62004     -875.70893      4413.8915      5081.7339      5616.2155     -534.48159      2275.4232      3215.3809     -1926.0298      20.980743     -344.91735     -1553.1867     -2222.1327     -242.00384      52292.375      37.394936      37.394936      37.394936      1.1914337     -1206.6715     -791.64375     -628.81157    
     66000   66000          528.97632      374.62206      5450.1162      5164.418       5706.3594     -541.94142      2194.9423      3199.611      -1883.5195      20.05992      -311.7889      -1551.145      -2210.1014     -242.00384      52292.375      37.394936      37.394936      37.394936      1.1914337      850.04126      1733.006      -1459.181     
     67000   67000          536.72757     -555.41169      4879.8234      5303.3974      5789.9763     -486.57891      2252.1411      3258.5085     -1901.7272      19.642104     -367.33605     -1536.5649     -2211.2424     -242.00384      52292.375      37.394936      37.394936      37.394936      1.1914337      449.271       -796.36442     -1319.1417    
     68000   68000          525.85565      917.25314      5862.0629      5162.5375      5672.695      -510.15748      2250.6786      3248.4123     -1931.3978      21.283318     -319.33837     -1557.9864     -2221.8091     -242.00384      52292.375      37.394936      37.394936      37.394936      1.1914337     -408.0247       2632.8939      526.8902     
     69000   69000          521.26315     -351.68063      4737.4691      5005.6715      5623.1532     -617.48164      2175.3056      3213.7881     -1879.721       21.214959     -362.45285     -1563.6773     -2221.9392     -242.00384      52292.375      37.394936      37.394936      37.394936      1.1914337      1108.4291     -904.92889     -1258.5422    
     70000   70000          528.51106     -478.31586      4812.1157      5176.8941      5701.3403     -524.44626      2247.5052      3258.3811     -1876.5492      21.563702     -397.65999     -1554.7457     -2222.9414     -242.00384      52292.375      37.394936      37.394936      37.394936      1.1914337      595.62416     -191.84734     -1838.7244    
     71000   71000          514.70306     -552.99253      4772.9757      5194.7048      5552.3858     -357.68106      2332.2079      3261.2821     -1863.9434      20.316869     -341.47667     -1545.0109     -2221.0569     -242.00384      52292.375      37.394936      37.394936      37.394936      1.1914337      1015.2628     -2206.2093     -468.031      
     72000   72000          538.50921     -1228.4295      4312.9859      5249.8239      5809.1959     -559.37196      2262.9383      3186.7667     -1863.7719      21.623848     -408.62698     -1540.34       -2217.9618     -242.00384      52292.375      37.394936      37.394936      37.394936      1.1914337     -883.74782     -1203.5809     -1597.96      
     73000   73000          523.42459     -1282.7526      4080.672       5058.9384      5646.4697     -587.53133      2310.1408      3101.8416     -1863.1574      21.383684     -398.2475      -1538.8444     -2220.6483     -242.00384      52292.375      37.394936      37.394936      37.394936      1.1914337     -1080.0019     -1746.4813     -1021.7746    
     74000   74000          521.61547      245.59984      5267.5476      5080.2456      5626.9538     -546.7082       2228.9398      3202.6601     -1887.9687      22.250373     -345.85595     -1545.5302     -2221.2036     -242.00384      52292.375      37.394936      37.394936      37.394936      1.1914337     -422.54348      1366.9698     -207.62684    
     75000   75000          523.74527     -558.62084      4624.9613      5050.9827      5649.9291     -598.94636      2272.389       3119.3373     -1906.5114      21.112124     -342.27555     -1547.7469     -2215.2509     -242.00384      52292.375      37.394936      37.394936      37.394936      1.1914337     -359.48199     -1653.3303      336.94978    
     76000   76000          541.11034      82.228444      5362.3489      5299.639       5837.2557     -537.61667      2186.7112      3241.5428     -1916.7382      20.308484     -319.98815     -1541.2676     -2208.1852     -242.00384      52292.375      37.394936      37.394936      37.394936      1.1914337     -635.44902      1509.0896     -626.95527    
     77000   77000          521.95547     -853.17262      4521.4709      5172.1265      5630.6216     -458.49504      2321.7059      3223.2332     -1866.1426      21.158846     -397.82069     -1546.6388     -2213.9909     -242.00384      52292.375      37.394936      37.394936      37.394936      1.1914337     -37.826289     -3037.5796      515.88798    
     78000   78000          525.3411      -56.978419      5112.2623      5155.7157      5667.1442     -511.42848      2242.2954      3185.9175     -1879.2049      20.163205     -332.84494     -1540.9726     -2206.7821     -242.00384      52292.375      37.394936      37.394936      37.394936      1.1914337     -131.26152     -1536.725       1497.0513    
     79000   79000          527.22032      509.08894      5572.3357      5184.0888      5687.4164     -503.32753      2243.9708      3239.4804     -1899.6716      21.360299     -352.3589      -1543.5967     -2212.5118     -242.00384      52292.375      37.394936      37.394936      37.394936      1.1914337     -324.14211     -1396.2514      3247.6604    
     80000   80000          535.58689     -569.29255      4775.807       5209.9669      5777.6712     -567.70429      2302.9644      3066.1541     -1865.8048      20.982508     -348.8318      -1539.9133     -2203.2554     -242.00384      52292.375      37.394936      37.394936      37.394936      1.1914337     -2347.0981      705.8676      -66.647102    
     81000   81000          532.6518      -141.41143      5083.011       5190.8557      5746.0088     -555.15311      2271.0883      3194.9218     -1896.6423      20.213565     -386.3935      -1546.7622     -2211.5787     -242.00384      52292.375      37.394936      37.394936      37.394936      1.1914337      446.51201      236.39351     -1107.1398    
     82000   82000          527.48096     -1643.7273      3858.5448      5112.1016      5690.228      -578.12638      2244.2194      3173.9676     -1873.4279      20.39589      -371.70623     -1555.3599     -2216.2153     -242.00384      52292.375      37.394936      37.394936      37.394936      1.1914337     -2168.9436     -1464.5596     -1297.6787    
     83000   83000          528.20994      719.34981      5749.6011      5201.0028      5698.092      -497.08915      2121.3357      3331.8145     -1882.86        21.525745     -321.51601     -1551.6873     -2215.7018     -242.00384      52292.375      37.394936      37.394936      37.394936      1.1914337     -764.38592      3446.1634     -523.72807    
     84000   84000          521.84382      652.00884      5531.651       5034.4091      5629.4171     -595.00802      2167.8352      3214.4019     -1893.2603      22.166894     -309.13025     -1565.3985     -2231.623      -242.00384      52292.375      37.394936      37.394936      37.394936      1.1914337      1028.8505     -36.206139      963.3822     
     85000   85000          519.36694     -1516.2294      4025.8985      5182.2215      5602.6976     -420.47617      2374.67        3229.3449     -1889.0078      21.995902     -379.94963     -1550.5646     -2226.9649     -242.00384      52292.375      37.394936      37.394936      37.394936      1.1914337     -878.79114     -2241.0093     -1428.8876    
     86000   86000          532.62553     -37.63006       5205.1586      5233.8564      5745.7253     -511.86889      2244.2613      3273.8439     -1887.7196      20.310688     -378.92049     -1556.8903     -2226.7544     -242.00384      52292.375      37.394936      37.394936      37.394936      1.1914337     -1345.0071      585.23111      646.88585    
     87000   87000          527.76955     -4.1498806      5279.8413      5283.0061      5693.3413     -410.33518      2287.0612      3298.3097     -1863.9874      21.895179     -386.34031     -1549.2025     -2218.0711     -242.00384      52292.375      37.394936      37.394936      37.394936      1.1914337      49.287813      160.80631     -222.54377    
     88000   88000          533.93784      839.65227      5718.5707      5078.2261      5759.8819     -681.6558       2188.0225      3137.8167     -1928.5839      21.682752     -323.11599     -1554.8044     -2222.6735     -242.00384      52292.375      37.394936      37.394936      37.394936      1.1914337      445.55304      885.05019      1188.3536    
     89000   89000          535.29628      215.67127      5509.1401      5344.6626      5774.5363     -429.87366      2219.3699      3332.6226     -1910.5432      21.705661     -319.29472     -1548.1807     -2225.5532     -242.00384      52292.375      37.394936      37.394936      37.394936      1.1914337     -72.074072     -649.24092      1368.3288    
     90000   90000          525.69278     -1970.4633      3576.92        5079.6557      5670.938      -591.28234      2298.7148      3140.1801     -1869.5259      21.845539     -429.09481     -1538.2963     -2215.1058     -242.00384      52292.375      37.394936      37.394936      37.394936      1.1914337     -2196.1309     -2886.0691     -829.18978    
     91000   91000          538.6023       349.05129      5531.6046      5265.4074      5810.2001     -544.79274      2243.9152      3264.6181     -1906.6861      21.445565     -400.48516     -1545.3726     -2222.2277     -242.00384      52292.375      37.394936      37.394936      37.394936      1.1914337      557.17326     -1298.4302      1788.4108    
     92000   92000          529.66679     -1975.32        3811.9388      5318.3783      5713.8078     -395.42941      2368.122       3183.0039     -1856.7111      21.700266     -372.57406     -1524.9889     -2213.9816     -242.00384      52292.375      37.394936      37.394936      37.394936      1.1914337     -2138.2332     -2332.1858     -1455.541     
     93000   93000          526.99117     -545.93161      4682.4432      5098.7873      5684.9444     -586.15704      2202.631       3196.6673     -1889.0581      21.113843     -360.42633     -1543.694      -2213.3908     -242.00384      52292.375      37.394936      37.394936      37.394936      1.1914337     -558.79943      269.0115      -1348.0069    
     94000   94000          539.41266      820.86041      5962.4934      5336.4801      5818.9419     -482.46184      2291.9383      3185.3026     -1890.4936      21.782127     -333.88167     -1542.5202     -2214.5893     -242.00384      52292.375      37.394936      37.394936      37.394936      1.1914337      1735.6019     -176.05034      903.02971    
     95000   95000          525.76669     -18.202115      5063.1985      5077.08        5671.7353     -594.65529      2209.6491      3219.0402     -1869.0965      21.577116     -398.93438     -1552.1117     -2224.7791     -242.00384      52292.375      37.394936      37.394936      37.394936      1.1914337      1623.5133     -3241.8169      1563.6973    
     96000   96000          532.90106     -1721.3327      4051.0032      5363.7443      5748.6977     -384.95342      2319.966       3291.3997     -1874.8753      22.336213     -372.71049     -1548.2778     -2222.7917     -242.00384      52292.375      37.394936      37.394936      37.394936      1.1914337     -2878.6143      641.57307     -2926.9568    
     97000   97000          528.83948     -6.1620934      5048.5787      5053.2781      5704.8832     -651.60506      2160.3619      3185.3465     -1918.9517      22.477891     -336.18004     -1546.9429     -2217.7168     -242.00384      52292.375      37.394936      37.394936      37.394936      1.1914337     -2191.1114      2054.5531      118.07196    
     98000   98000          528.35495     -1360.048       4090.9145      5128.1288      5699.6562     -571.52741      2264.5343      3208.9546     -1906.6239      23.075148     -380.02036     -1555.306      -2226.1411     -242.00384      52292.375      37.394936      37.394936      37.394936      1.1914337     -876.9304      -1594.3065     -1608.9072    
     99000   99000          534.79998     -418.86079      5017.3046      5336.7407      5769.1824     -432.44164      2307.5122      3208.4706     -1886.0931      21.151459     -322.85527     -1547.1707     -2213.4569     -242.00384      52292.375      37.394936      37.394936      37.394936      1.1914337     -1442.0317      1211.5563     -1026.1069    
    100000   100000         536.80751      370.74136      5581.6969      5298.9582      5790.8387     -491.88052      2257.747       3232.1689     -1893.321       20.96742      -350.91149     -1542.5302     -2216.0011     -242.00384      52292.375      37.394936      37.394936      37.394936      1.1914337      1646.2916     -764.32059      230.25305    
    101000   101000         527.73301      142.65359      5197.7923      5089.0003      5692.9471     -603.94676      2279.5075      3120.794      -1892.5189      20.67607      -385.67862     -1537.1113     -2209.6155     -242.00384      52292.375      37.394936      37.394936      37.394936      1.1914337     -83.102585     -219.01094      730.07429    
    102000   102000         542.75505      403.34398      5769.4041      5461.8016      5854.998      -393.19645      2305.5028      3260.7885     -1906.3766      20.403255     -315.61925     -1543.6131     -2214.282      -242.00384      52292.375      37.394936      37.394936      37.394936      1.1914337      2300.597      -1212.2405      121.67547    
    103000   103000         541.18574     -493.38973      4908.0499      5284.324       5838.0691     -553.7451       2237.1614      3220.7485     -1858.3266      20.747432     -435.01969     -1531.1532     -2207.903      -242.00384      52292.375      37.394936      37.394936      37.394936      1.1914337     -425.84529     -1456.1939      401.86996    
    104000   104000         532.20059     -217.38917      5207.6511      5373.4388      5741.1413     -367.70247      2331.1408      3298.3838     -1866.0424      22.479151     -417.35701     -1524.0479     -2212.2589     -242.00384      52292.375      37.394936      37.394936      37.394936      1.1914337      43.434011     -1562.2964      866.69487    
    105000   105000         502.68977     -260.23064      4804.4744      5002.9343      5422.7918     -419.85749      2298.2013      3250.5505     -1859.2229      21.276342     -381.06665     -1530.0107     -2219.5853     -242.00384      52292.375      37.394936      37.394936      37.394936      1.1914337      963.69993     -1068.1403     -676.25152    
    106000   106000         527.92446     -491.51165      4786.4524      5161.2942      5695.0123     -533.71807      2279.7845      3186.2334     -1895.841       20.142314     -367.37658     -1541.6576     -2215.0031     -242.00384      52292.375      37.394936      37.394936      37.394936      1.1914337     -1852.5886      1715.2309     -1337.1773    
    107000   107000         534.35392     -107.29239      5221.3426      5303.167       5764.3705     -461.20347      2292.9909      3254.1667     -1900.3951      21.873424     -378.9802      -1534.3244     -2216.5348     -242.00384      52292.375      37.394936      37.394936      37.394936      1.1914337      629.85984     -275.89028     -675.84671    
    108000   108000         538.39208      1730.438       6486.2468      5166.5617      5807.9324     -641.37066      2200.2564      3194.0558     -1907.0834      20.726419     -379.63327     -1548.4785     -2221.2141     -242.00384      52292.375      37.394936      37.394936      37.394936      1.1914337      2604.8592      1116.0443      1470.4107    
    109000   109000         531.2805       1691.8567      6453.5128      5163.251       5731.2158     -567.96479      2224.0773      3169.8259     -1878.7432      21.418598     -355.14112     -1537.2193     -2212.1829     -242.00384      52292.375      37.394936      37.394936      37.394936      1.1914337      2181.6965      1297.7869      1596.0868    
    110000   110000         527.22338      559.9274       5443.3275      5016.3097      5687.4494     -671.13964      2284.5786      3111.5696     -1922.235       21.740628     -398.09129     -1547.4207     -2221.2815     -242.00384      52292.375      37.394936      37.394936      37.394936      1.1914337      1483.0322      1753.6439     -1556.894     
    111000   111000         530.60144      405.09434      5388.0848      5079.1474      5723.8904     -644.74296      2179.9798      3227.7606     -1900.0223      20.928083     -412.75035     -1536.3984     -2224.2403     -242.00384      52292.375      37.394936      37.394936      37.394936      1.1914337      299.55687      249.76051      665.96566    
    112000   112000         533.70972     -163.28307      5221.5429      5346.0676      5757.4212     -411.35359      2361.5306      3254.5457     -1944.1447      21.545937     -336.2915      -1550.9619     -2217.5777     -242.00384      52292.375      37.394936      37.394936      37.394936      1.1914337     -1199.4934      49.067657      660.57651    
    113000   113000         529.68441      241.48833      5336.5293      5152.3629      5713.9979     -561.63506      2205.7627      3270.1876     -1924.3252      22.654562     -347.44305     -1562.5244     -2225.9472     -242.00384      52292.375      37.394936      37.394936      37.394936      1.1914337     -1552.1938      801.71336      1474.9454    
    114000   114000         533.23411     -304.42769      4930.5592      5162.7251      5752.2905     -589.56534      2315.8977      3195.6874     -1908.4054      21.441312     -433.84712     -1555.0324     -2225.3068     -242.00384      52292.375      37.394936      37.394936      37.394936      1.1914337     -317.56448     -594.41393     -1.3046769    
    115000   115000         528.93653     -90.584985      5013.5875      5082.6704      5705.9301     -623.25966      2239.4777      3145.9471     -1888.6422      21.822153     -380.17983     -1545.1107     -2216.5739     -242.00384      52292.375      37.394936      37.394936      37.394936      1.1914337      15.231544     -528.11133      241.12483    
    116000   116000         549.26539     -1027.0902      4633.2657      5416.5562      5925.2287     -508.67256      2282.6111      3209.3856     -1870.7895      21.700441     -395.87467     -1541.7213     -2213.9842     -242.00384      52292.375      37.394936      37.394936      37.394936      1.1914337      1083.6957     -1879.0536     -2285.9127    
    117000   117000         526.31227     -116.9385       5071.3627      5160.5436      5677.6207     -517.07709      2349.7921      3113.1827     -1906.828       22.411652     -328.04863     -1549.2392     -2218.3478     -242.00384      52292.375      37.394936      37.394936      37.394936      1.1914337      1965.0054     -1151.606      -1164.2148    
    118000   118000         538.73887     -818.45996      4652.766       5276.9487      5811.6733     -534.72462      2279.7778      3227.138      -1923.679       20.99454      -375.05013     -1542.146      -2221.7597     -242.00384      52292.375      37.394936      37.394936      37.394936      1.1914337      1602.9938     -3008.8144     -1049.5592    
    119000   119000         519.35394     -196.57692      4829.8188      4979.7344      5602.5574     -622.82302      2205.7602      3191.7366     -1897.6439      21.936669     -392.12857     -1533.2238     -2219.2602     -242.00384      52292.375      37.394936      37.394936      37.394936      1.1914337      1254.05       -1146.527      -697.25374    
    120000   120000         527.55441     -789.26944      4659.6352      5261.5563      5691.0204     -429.46414      2226.6997      3257.3739     -1864.9186      20.832878     -334.63161     -1525.3922     -2209.4283     -242.00384      52292.375      37.394936      37.394936      37.394936      1.1914337     -2307.5285      1512.1242     -1572.404     
    121000   121000         530.7268       1708.5943      6467.1175      5164.0911      5725.2428     -561.15162      2196.9059      3131.3226     -1878.0672      20.695651     -266.26287     -1547.7219     -2218.0237     -242.00384      52292.375      37.394936      37.394936      37.394936      1.1914337      1038.3549      2453.2466      1634.1814    
    122000   122000         531.09247      811.28604      6018.8726      5400.161       5729.1874     -329.02631      2299.4821      3271.8355     -1875.709       20.853089     -275.7457      -1547.118      -2222.6243     -242.00384      52292.375      37.394936      37.394936      37.394936      1.1914337     -246.0981      -181.49831      2861.4545    
    123000   123000         522.70847     -1286.4677      4188.6953      5169.795       5638.7446     -468.94964      2328.1758      3220.3606     -1895.6877      22.25284      -383.58598     -1540.4351     -2220.0301     -242.00384      52292.375      37.394936      37.394936      37.394936      1.1914337     -2506.8872     -1935.3034      582.78738    
    124000   124000         526.56516      364.31812      5372.4876      5094.6474      5680.3488     -585.70142      2201.1148      3127.7128     -1854.3452      19.604861     -324.32608     -1537.4816     -2217.981      -242.00384      52292.375      37.394936      37.394936      37.394936      1.1914337      580.42672      1320.8061     -808.27845    
    125000   125000         517.43804     -1155.3545      4036.5922      4917.7009      5581.8895     -664.18864      2231.7241      3129.6078     -1890.0511      21.248449     -370.04841     -1556.769      -2229.9005     -242.00384      52292.375      37.394936      37.394936      37.394936      1.1914337     -1594.6648     -1083.7378     -787.66094    
    126000   126000         534.10529      1499.3651      6408.2132      5264.7513      5761.6884     -496.93701      2211.8054      3290.4705     -1901.7129      23.04068      -343.38511     -1554.8861     -2222.2696     -242.00384      52292.375      37.394936      37.394936      37.394936      1.1914337      2636.5365      1447.5974      413.96146    
    127000   127000         532.99321     -472.2192       4947.5375      5307.6663      5749.6917     -442.02539      2344.1348      3168.6221     -1879.2242      21.31632      -325.36525     -1551.2365     -2220.2726     -242.00384      52292.375      37.394936      37.394936      37.394936      1.1914337     -1891.1008      1088.965      -614.52179    
    128000   128000         517.83063     -1349.3467      4075.5209      5104.5741      5586.1247     -481.55055      2324.5098      3176.1907     -1886.944       21.114201     -356.3901      -1545.8621     -2214.1691     -242.00384      52292.375      37.394936      37.394936      37.394936      1.1914337     -1313.2779     -208.21697     -2526.5454    
    129000   129000         530.58191      1224.71        6144.22        5210.2187      5723.6798     -513.46111      2201.0244      3282.8242     -1919.7368      21.71785      -328.37215     -1548.7511     -2222.1675     -242.00384      52292.375      37.394936      37.394936      37.394936      1.1914337      944.49809      2112.2455      617.38635    
    130000   130000         534.79287      1130.6008      6096.9655      5234.7346      5769.1056     -534.37097      2283.6632      3221.2494     -1894.2826      21.967097     -413.01821     -1540.1875     -2213.7623     -242.00384      52292.375      37.394936      37.394936      37.394936      1.1914337      665.95081      217.32091      2508.5307    
    131000   131000         518.68716     -588.78273      4691.4961      5140.5198      5595.3645     -454.84466      2246.5974      3255.9368     -1872.5159      20.655289     -349.17247     -1535.8753     -2220.4705     -242.00384      52292.375      37.394936      37.394936      37.394936      1.1914337     -752.40705     -1669.5987      655.65753    
    132000   132000         539.30057      633.97679      5954.3764      5470.8862      5817.7327     -346.84646      2293.4732      3324.4089     -1908.1718      20.612837     -311.78514     -1546.7317     -2218.6528     -242.00384      52292.375      37.394936      37.394936      37.394936      1.1914337      1190.1463      1030.536      -318.75199    
    133000   133000         530.57831     -88.545293      5078.0435      5145.5708      5723.6409     -578.07007      2282.6147      3161.5598     -1874.5178      20.27432      -425.95838     -1529.8811     -2212.1617     -242.00384      52292.375      37.394936      37.394936      37.394936      1.1914337     -1660.608       215.42221      1179.5499    
    134000   134000         526.34836     -323.24861      4924.1792      5170.6985      5678.0101     -507.31166      2249.5513      3242.3372     -1876.7259      20.050271     -375.28298     -1551.6208     -2215.6208     -242.00384      52292.375      37.394936      37.394936      37.394936      1.1914337      1159.2009     -417.92177     -1711.025     
    135000   135000         518.32096     -682.22799      4388.322       4908.61        5591.4141     -682.80415      2206.9709      3094.1003     -1899.1495      20.960031     -327.85534     -1558.7681     -2219.0624     -242.00384      52292.375      37.394936      37.394936      37.394936      1.1914337      3.6852165     -330.73154     -1719.6377    
    136000   136000         525.36497     -1087.8914      4213.5307      5043.1901      5667.4017     -624.21166      2231.7317      3197.3088     -1893.5037      21.32303      -398.82301     -1557.2006     -2225.0478     -242.00384      52292.375      37.394936      37.394936      37.394936      1.1914337     -1220.2109     -1471.6697     -571.79365    
    137000   137000         536.95742     -2086.0936      3683.6928      5274.6117      5792.4558     -517.8441       2229.0979      3236.0482     -1880.015       20.563514     -348.1606      -1553.0386     -2222.3395     -242.00384      52292.375      37.394936      37.394936      37.394936      1.1914337     -2631.8766     -1584.6296     -2041.7747    
    138000   138000         525.82152     -427.55831      4775.2692      5101.3382      5672.3268     -570.98857      2215.6292      3154.649      -1840.9816      20.58806      -351.09814     -1553.1323     -2216.6428     -242.00384      52292.375      37.394936      37.394936      37.394936      1.1914337     -50.416503     -1616.6259      384.36745    
    139000   139000         542.59653      774.76628      5827.7895      5236.929       5853.288      -616.35898      2244.7956      3175.1856     -1880.0595      19.620248     -403.29393     -1559.6958     -2212.9112     -242.00384      52292.375      37.394936      37.394936      37.394936      1.1914337      26.003917     -331.58846      2629.8834    
    140000   140000         541.59947     -1661.6029      4079.7637      5346.953       5842.5323     -495.57924      2320.3752      3181.5111     -1896.315       22.101857     -388.51505     -1529.6965     -2205.0409     -242.00384      52292.375      37.394936      37.394936      37.394936      1.1914337     -1248.0314     -1993.1607     -1743.6167    
    141000   141000         531.63581      529.28304      5488.0165      5084.3691      5735.0487     -650.67965      2206.0905      3155.7289     -1926.7779      19.71982      -331.00068     -1559.193      -2215.2474     -242.00384      52292.375      37.394936      37.394936      37.394936      1.1914337      214.06272      146.50739      1227.279     
    142000   142000         533.32215      51.887786      5219.0187      5179.4475      5753.2402     -573.79266      2214.2877      3206.3145     -1862.7431      21.607505     -393.21945     -1547.7195     -2212.3204     -242.00384      52292.375      37.394936      37.394936      37.394936      1.1914337      268.82766      674.03436     -787.19867    
    143000   143000         539.36202      627.01314      5730.8275      5252.648       5818.3956     -565.74755      2222.0398      3216.0136     -1892.8956      21.529069     -391.71731     -1534.2025     -2206.5146     -242.00384      52292.375      37.394936      37.394936      37.394936      1.1914337      357.15507     -70.279363      1594.1637    
    144000   144000         524.38632      811.09724      5805.0369      5186.4693      5656.8445     -470.37519      2319.6159      3150.9545     -1858.5086      20.256786     -331.92165     -1553.3727     -2217.3994     -242.00384      52292.375      37.394936      37.394936      37.394936      1.1914337      3607.4794     -789.70953     -384.47812    
    145000   145000         535.74774     -447.14464      4914.7037      5255.7099      5779.4063     -523.69643      2308.6922      3210.8568     -1900.3418      21.554204     -410.31465     -1539.9437     -2214.1995     -242.00384      52292.375      37.394936      37.394936      37.394936      1.1914337     -1977.3653     -317.7081       953.63952    
    146000   146000         524.09402      180.02352      5345.8023      5208.5109      5653.6913     -445.18039      2334.71        3235.2798     -1920.8175      21.616899     -356.63778     -1546.316      -2213.0158     -242.00384      52292.375      37.394936      37.394936      37.394936      1.1914337      956.21908     -691.83263      275.68412    
    147000   147000         525.02249      269.87823      5309.7484      5103.931       5663.7072     -559.77616      2274.0686      3120.6479     -1883.4302      20.94606      -330.58388     -1546.5086     -2214.9161     -242.00384      52292.375      37.394936      37.394936      37.394936      1.1914337      1588.176       27.871263     -806.41253    
    148000   148000         533.82022      764.8274       5883.8186      5300.5378      5758.6132     -458.07539      2253.7002      3352.9076     -1903.4534      22.436414     -408.18219     -1554.1519     -2221.3322     -242.00384      52292.375      37.394936      37.394936      37.394936      1.1914337      1046.8722      2069.5316     -821.9216     
    149000   149000         526.87418      1087.9986      5946.0228      5116.2817      5683.6824     -567.40069      2204.821       3205.5462     -1900.3634      20.90424      -348.19594     -1539.8963     -2210.2165     -242.00384      52292.375      37.394936      37.394936      37.394936      1.1914337      1924.1722      322.80644      1017.0173    
    150000   150000         538.17357     -267.77587      5204.5815      5408.7956      5805.5752     -396.77953      2268.7919      3321.595      -1895.8467      21.553699     -347.55359     -1543.3861     -2221.9337     -242.00384      52292.375      37.394936      37.394936      37.394936      1.1914337      557.87589     -723.69251     -637.51099    
    151000   151000         532.63888     -1298.045       4120.572       5110.5009      5745.8694     -635.36848      2269.0161      3131.9513     -1891.6585      21.302487     -387.43877     -1554.3344     -2224.2067     -242.00384      52292.375      37.394936      37.394936      37.394936      1.1914337     -658.82911     -977.68668     -2257.6192    
    152000   152000         535.33922     -734.29846      4747.8036      5307.8021      5774.9994     -467.19734      2309.9149      3169.5548     -1811.4672      20.380433     -397.92096     -1540.1703     -2217.489      -242.00384      52292.375      37.394936      37.394936      37.394936      1.1914337      648.88186     -567.50076     -2284.2765    
    153000   153000         536.28978      156.37217      5295.1104      5175.8562      5785.2537     -609.39754      2193.5463      3217.0615     -1887.1255      20.737287     -394.71765     -1541.9716     -2216.9278     -242.00384      52292.375      37.394936      37.394936      37.394936      1.1914337      586.93411      1473.6727     -1591.4903    
    154000   154000         520.47895     -1338.5864      3952.4679      4973.315       5614.6935     -641.3785       2289.9056      3104.6504     -1882.5314      19.460439     -408.13676     -1552.6344     -2212.0924     -242.00384      52292.375      37.394936      37.394936      37.394936      1.1914337      716.71065     -2238.7428     -2493.7271    
    155000   155000         530.32431     -292.8574       5011.1027      5234.4447      5720.9009     -486.45617      2304.3812      3222.6441     -1887.7287      21.272338     -386.20687     -1545.2593     -2215.559      -242.00384      52292.375      37.394936      37.394936      37.394936      1.1914337     -579.21879      1170.4907     -1469.8441    
    156000   156000         509.87548     -221.44833      4786.0942      4954.9775      5500.3081     -545.33058      2183.2747      3249.8157     -1893.6777      20.375111     -331.24713     -1554.7609     -2219.1104     -242.00384      52292.375      37.394936      37.394936      37.394936      1.1914337      330.21711     -327.41459     -667.14751    
    157000   157000         543.61309     -1643.0017      4116.8515      5369.8549      5864.2543     -494.39935      2320.5803      3188.7364     -1899.5641      20.112084     -369.92073     -1542.0575     -2212.2857     -242.00384      52292.375      37.394936      37.394936      37.394936      1.1914337     -3661.8861     -1119.0909     -148.02811    
    158000   158000         519.84809      977.63972      5828.1886      5082.6105      5607.888      -525.2775       2158.215       3265.4867     -1883.0756      20.791896     -339.46562     -1534.736      -2212.4938     -242.00384      52292.375      37.394936      37.394936      37.394936      1.1914337      1527.0532      294.34624      1111.5197    
    159000   159000         526.48444      1146.0399      6089.0072      5215.002       5679.4781     -464.47605      2287.5377      3166.2298     -1874.061       19.248682     -303.37149     -1545.7626     -2214.2971     -242.00384      52292.375      37.394936      37.394936      37.394936      1.1914337      618.77379      2978.2565     -158.91058    
    160000   160000         548.94284      2156.3911      6913.9323      5269.4024      5921.7492     -652.34687      2102.1764      3162.1132     -1893.8933      22.055116     -280.41044     -1551.1947     -2213.1932     -242.00384      52292.375      37.394936      37.394936      37.394936      1.1914337      1426.3212      2700.1311      2342.721     
    161000   161000         537.1808      -85.483052      5290.5905      5355.7825      5794.8656     -439.08307      2320.8989      3244.6285     -1891.2958      20.465566     -366.98365     -1550.2668     -2216.5298     -242.00384      52292.375      37.394936      37.394936      37.394936      1.1914337     -146.3958       1195.2593     -1305.3126    
    162000   162000         525.04914     -38.150999      5128.5907      5157.6858      5663.9947     -506.30889      2247.8861      3238.2606     -1891.2122      21.822616     -354.84049     -1549.1234     -2219.1022     -242.00384      52292.375      37.394936      37.394936      37.394936      1.1914337     -1143.3259      1737.535      -708.66208    
    163000   163000         517.53475     -397.17043      4798.4609      5101.3553      5582.9328     -481.57756      2231.8766      3294.2585     -1904.4993      22.400115     -369.81394     -1543.6742     -2212.1254     -242.00384      52292.375      37.394936      37.394936      37.394936      1.1914337     -2048.0882      886.30208     -29.725157    
    164000   164000         529.14678      778.09903      5739.0958      5145.6936      5708.1982     -562.50452      2199.6268      3256.112      -1910.4525      20.75313      -359.58968     -1552.3512     -2216.6031     -242.00384      52292.375      37.394936      37.394936      37.394936      1.1914337      797.2932       1508.0505      28.953376    
    165000   165000         538.69053      1491.2858      6406.3693      5269.069       5811.1519     -542.0829       2247.4003      3175.6281     -1872.731       20.387747     -353.26154     -1542.396      -2217.1105     -242.00384      52292.375      37.394936      37.394936      37.394936      1.1914337      1549.0302      1060.8647      1863.9626    
[...]
    965000   965000         531.95227      1245.6375      6209.711       5259.7497      5738.4625     -478.71282      2166.9635      3360.9272     -1876.44        21.778948     -383.32603     -1555.3927     -2213.2237     -242.00384      52292.375      37.394936      37.394936      37.394936      1.1914337      3640.899      -1201.4383      1297.4518    
    966000   966000         528.89079      251.12217      5455.6904      5264.1769      5705.4367     -441.25977      2251.1928      3254.7771     -1887.5251      21.051665     -313.60421     -1551.5639     -2215.5881     -242.00384      52292.375      37.394936      37.394936      37.394936      1.1914337      1531.3729      86.159871     -864.16626    
    967000   967000         523.86645      48.742498      5224.5273      5187.3548      5651.2363     -463.88153      2280.7007      3299.3591     -1918.7032      21.652918     -371.71119     -1553.3666     -2221.8133     -242.00384      52292.375      37.394936      37.394936      37.394936      1.1914337      1699.6681     -797.01731     -756.42332    
    968000   968000         557.38266      1014.8234      6315.5419      5541.6065      6012.7942     -471.18776      2193.6312      3254.9017     -1855.8767      20.466871     -310.29214     -1552.3317     -2221.687      -242.00384      52292.375      37.394936      37.394936      37.394936      1.1914337      1412.0296      1121.4778      510.96275    
    969000   969000         526.38555     -554.76064      4678.5198      5101.5972      5678.4113     -576.81408      2262.9334      3237.1622     -1920.5862      21.217822     -408.04535     -1543.085      -2226.4109     -242.00384      52292.375      37.394936      37.394936      37.394936      1.1914337     -82.231884      36.773711     -1618.8238    
    970000   970000         524.58143      443.75735      5379.5837      5041.1608      5658.9492     -617.78843      2183.0099      3208.3809     -1900.3327      21.576228     -354.79993     -1554.4371     -2221.1857     -242.00384      52292.375      37.394936      37.394936      37.394936      1.1914337      648.48895      1202.6383     -519.85521    
    971000   971000         537.01592     -933.34326      4648.3211      5360.1172      5793.0869     -432.96969      2340.0129      3263.5104     -1916.7376      23.769427     -385.10148     -1541.1044     -2217.319      -242.00384      52292.375      37.394936      37.394936      37.394936      1.1914337     -769.28786      393.61145     -2424.3534    
    972000   972000         532.18333     -1253.4826      4300.3425      5256.2867      5740.9551     -484.66837      2245.0339      3230.0758     -1905.0706      20.506243     -315.35051     -1547.6797     -2212.1835     -242.00384      52292.375      37.394936      37.394936      37.394936      1.1914337     -609.19063     -1594.9464     -1556.3108    
    973000   973000         516.49646     -2192.9087      3360.3886      5032.768       5571.7322     -538.96413      2284.0747      3207.5578     -1931.416       22.710446     -345.96895     -1553.2885     -2222.6336     -242.00384      52292.375      37.394936      37.394936      37.394936      1.1914337     -839.52825     -3381.5362     -2357.6617    
    974000   974000         513.61286      171.66071      5234.6236      5103.7099      5540.6252     -436.91534      2353.4244      3211.373      -1918.1677      22.146733     -345.18428     -1543.3234     -2217.1841     -242.00384      52292.375      37.394936      37.394936      37.394936      1.1914337     -1369.5952      2366.8939     -482.3166     
    975000   975000         532.81833     -99.768284      5211.2428      5287.3292      5747.8053     -460.47606      2298.1125      3262.3557     -1883.3356      22.917502     -390.02331     -1549.3709     -2221.1319     -242.00384      52292.375      37.394936      37.394936      37.394936      1.1914337      194.55641      107.2793      -601.14056    
    976000   976000         528.50009      227.16082      5365.3828      5192.143       5701.222      -509.07904      2305.328       3185.1042     -1891.3168      21.607672     -365.02711     -1549.3455     -2215.4295     -242.00384      52292.375      37.394936      37.394936      37.394936      1.1914337      1414.7494     -488.93061     -244.33639    
    977000   977000         532.72643      859.85957      5833.6719      5177.9166      5746.8138     -568.89718      2175.6397      3246.7494     -1883.9542      21.609167     -367.1195      -1548.2479     -2213.5739     -242.00384      52292.375      37.394936      37.394936      37.394936      1.1914337      1063.5721      128.41448      1387.5922    
    978000   978000         538.96999      260.05476      5543.9414      5345.6156      5814.1666     -468.55096      2285.9302      3228.918      -1868.1963      21.643343     -389.27814     -1538.4136     -2209.1545     -242.00384      52292.375      37.394936      37.394936      37.394936      1.1914337      527.08402      520.47982     -267.39956    
    979000   979000         529.14835      178.13904      5178.1263      5042.272       5708.2151     -665.9431       2254.6522      3113.5253     -1901.2474      21.665002     -379.89427     -1555.9656     -2218.6784     -242.00384      52292.375      37.394936      37.394936      37.394936      1.1914337     -1634.3253      205.28798      1963.4544    
    980000   980000         526.35864     -387.80919      4794.569       5090.3242      5678.1209     -587.7968       2244.4754      3212.5234     -1897.9905      22.643353     -414.48549     -1542.8087     -2212.1542     -242.00384      52292.375      37.394936      37.394936      37.394936      1.1914337      774.99229     -1691.5034     -246.91641    
    981000   981000         531.7487       130.2183       5079.34        4980.0315      5736.2666     -756.23508      2146.4832      3139.1329     -1896.6945      20.451834     -384.94969     -1558.3632     -2222.2956     -242.00384      52292.375      37.394936      37.394936      37.394936      1.1914337     -244.97457      1539.2486     -903.61911    
    982000   982000         524.70103      839.89126      5718.1827      5077.6558      5660.2395     -582.58363      2190.7965      3214.3778     -1880.5686      21.427093     -366.80758     -1543.074      -2218.7349     -242.00384      52292.375      37.394936      37.394936      37.394936      1.1914337      596.33749      1501.2321      422.1042     
    983000   983000         534.10112      1426.4529      6216.8156      5128.9589      5761.6433     -632.68448      2142.0641      3280.9612     -1931.2513      22.716809     -373.44739     -1549.0952     -2224.6326     -242.00384      52292.375      37.394936      37.394936      37.394936      1.1914337      1506.2401      1516.8492      1256.2695    
    984000   984000         538.41971     -363.83222      4869.9418      5147.4114      5808.2304     -660.81893      2184.4244      3126.7633     -1887.7473      19.780944     -338.99853     -1547.6776     -2217.3642     -242.00384      52292.375      37.394936      37.394936      37.394936      1.1914337     -734.57916     -1282.8991      925.98165    
    985000   985000         520.21546      1192.7726      5839.9026      4930.2577      5611.8511     -681.59341      2185.294       3104.8569     -1891.4743      20.144271     -334.63113     -1548.103      -2217.6801     -242.00384      52292.375      37.394936      37.394936      37.394936      1.1914337      1930.1472     -795.73645      2443.9072    
    986000   986000         532.65926     -313.39911      5044.4287      5283.4364      5746.0892     -462.65277      2328.3397      3213.0429     -1907.1864      20.921726     -336.55602     -1558.4137     -2222.801      -242.00384      52292.375      37.394936      37.394936      37.394936      1.1914337      735.68089     -2736.0519      1060.1737    
    987000   987000         526.38716     -555.46224      4703.9656      5127.5781      5678.4287     -550.85056      2216.4583      3277.6625     -1891.4987      21.305382     -405.04021     -1546.8088     -2222.929      -242.00384      52292.375      37.394936      37.394936      37.394936      1.1914337     -788.60905     -223.78651     -653.99114    
    988000   988000         531.28698     -268.03023      4882.5304      5086.9385      5731.2857     -644.34722      2217.0552      3144.2236     -1878.7945      21.916378     -378.71343     -1550.7639     -2219.2706     -242.00384      52292.375      37.394936      37.394936      37.394936      1.1914337     -1619.5611      32.504494      782.96591    
    989000   989000         532.27858      337.41127      5583.7574      5326.4372      5741.9827     -415.54545      2279.0821      3308.471      -1922.4083      23.222137     -344.48321     -1545.0004     -2214.4288     -242.00384      52292.375      37.394936      37.394936      37.394936      1.1914337     -846.4018      -427.3452       2285.9808    
    990000   990000         523.4605      -1525.6518      3857.4795      5020.9883      5646.8571     -625.86884      2269.1762      3077.2885     -1862.5371      20.189192     -367.8041      -1540.3942     -2221.7873     -242.00384      52292.375      37.394936      37.394936      37.394936      1.1914337     -736.34737     -1424.2682     -2416.3397    
    991000   991000         535.63062     -446.26492      4781.8663      5122.2016      5778.1429     -655.94137      2233.2341      3088.6981     -1864.0344      20.763265     -356.95186     -1552.3677     -2225.2829     -242.00384      52292.375      37.394936      37.394936      37.394936      1.1914337      198.91212     -247.17327     -1290.5336    
    992000   992000         519.92189      550.19855      5573.255       5153.6567      5608.6842     -455.0275       2368.0438      3155.8738     -1876.6415      22.677673     -342.72659     -1556.6766     -2225.5781     -242.00384      52292.375      37.394936      37.394936      37.394936      1.1914337     -157.00686      371.94046      1435.6621    
    993000   993000         525.47693     -1192.1673      4090.4587      4999.642       5668.6094     -668.96742      2128.353       3236.4273     -1913.0742      22.202069     -383.23256     -1541.0164     -2218.6267     -242.00384      52292.375      37.394936      37.394936      37.394936      1.1914337     -2635.5725     -315.04043     -625.8889     
    994000   994000         533.75338      1107.5531      6155.187       5310.5331      5757.8921     -447.35903      2273.8001      3210.1648     -1861.9065      21.536134     -329.38959     -1545.7152     -2215.8488     -242.00384      52292.375      37.394936      37.394936      37.394936      1.1914337      574.01424      2827.6938     -79.048787    
    995000   995000         526.92043     -1148.6306      4360.587       5236.5679      5684.1813     -447.61332      2294.4659      3248.5241     -1879.1437      23.100628     -389.17917     -1530.0944     -2215.2868     -242.00384      52292.375      37.394936      37.394936      37.394936      1.1914337     -1612.466      -1487.8887     -345.53726    
    996000   996000         531.87809     -1037.0512      4441.1982      5232.0852      5737.6624     -505.57712      2220.6532      3325.6538     -1908.7942      23.678852     -404.27221     -1548.2537     -2214.243      -242.00384      52292.375      37.394936      37.394936      37.394936      1.1914337     -2167.0093     -1507.5083      563.36396    
    997000   997000         540.66388      1458.6362      6613.6508      5501.2501      5832.4394     -331.18934      2267.6707      3360.1124     -1889.5093      21.255432     -324.60114     -1546.9153     -2219.2022     -242.00384      52292.375      37.394936      37.394936      37.394936      1.1914337      1403.2389      2553.678       418.9918     
    998000   998000         526.39925      956.33649      5941.4204      5212.0889      5678.559      -466.47016      2216.2682      3262.5672     -1887.7287      20.818336     -321.57958     -1545.0874     -2211.7283     -242.00384      52292.375      37.394936      37.394936      37.394936      1.1914337      3061.5465      311.69481     -504.23182    
    999000   999000         531.74477     -552.34225      4684.593       5105.8261      5736.2242     -630.39806      2312.5199      3121.6859     -1908.2437      22.15593      -396.7358      -1558.3164     -2223.4638     -242.00384      52292.375      37.394936      37.394936      37.394936      1.1914337      415.16784     -1521.8391     -550.35552    
   1000000   1000000        552.59381     -1191.0807      4473.5794      5381.9341      5961.1343     -579.20014      2239.5807      3184.3811     -1873.416       22.620265     -380.59087     -1550.5628     -2221.2126     -242.00384      52292.375      37.394936      37.394936      37.394936      1.1914337     -837.84514     -2040.1449     -695.25216    
Loop time of 12684.9 on 1 procs for 1000000 steps with 3620 atoms

Performance: 6.811 ns/day, 3.524 hours/ns, 78.834 timesteps/s, 285.378 katom-step/s
99.8% CPU use with 1 MPI tasks x 1 OpenMP threads

MPI task timing breakdown:
Section |  min time  |  avg time  |  max time  |%varavg| %total
---------------------------------------------------------------
Pair    | 555.64     | 555.64     | 555.64     |   0.0 |  4.38
Bond    | 6551.5     | 6551.5     | 6551.5     |   0.0 | 51.65
Kspace  | 3032.7     | 3032.7     | 3032.7     |   0.0 | 23.91
Neigh   | 2299.9     | 2299.9     | 2299.9     |   0.0 | 18.13
Comm    | 122.07     | 122.07     | 122.07     |   0.0 |  0.96
Output  | 15.14      | 15.14      | 15.14      |   0.0 |  0.12
Modify  | 70.904     | 70.904     | 70.904     |   0.0 |  0.56
Other   |            | 36.99      |            |       |  0.29

Nlocal:           3620 ave        3620 max        3620 min
Histogram: 1 0 0 0 0 0 0 0 0 0
Nghost:          11572 ave       11572 max       11572 min
Histogram: 1 0 0 0 0 0 0 0 0 0
Neighs:              0 ave           0 max           0 min
Histogram: 1 0 0 0 0 0 0 0 0 0
FullNghs:  1.58992e+06 ave 1.58992e+06 max 1.58992e+06 min
Histogram: 1 0 0 0 0 0 0 0 0 0

Total # of neighbors = 1589922
Ave neighs/atom = 439.20497
Ave special neighs/atom = 5.9723757
Neighbor list builds = 38952
Dangerous builds = 0

# --- Cleanup ---
unfix nvt_fix

undump dump_nvt

# --- Write Output ---
write_dump all custom nvt_production_last.dump id type mol x y z xu yu zu vx vy vz modify sort id
write_data /home/arz2/PolyJarvis/data/PVC1/lammps/equil/nvt_production/nvt_production_out.data
System init for write_data ...
PPPM initialization ...
  using 12-bit tables for long-range coulomb
  G vector (1/distance) = 0.29518905
  grid = 25 25 25
  stencil order = 5
  estimated absolute RMS force accuracy = 0.00035592686
  estimated relative force accuracy = 1.0718632e-06
  using double precision KISS FFT
  3d grid and FFT values/proc = 32768 15625
Generated 6 of 6 mixed pair_coeff terms from sixthpower/sixthpower mixing rule

print "STAGE COMPLETE: NVT T=530.0->530.0K steps=1000000"
STAGE COMPLETE: NVT T=530.0->530.0K steps=1000000
quit
PPPM initialization ...
  using 12-bit tables for long-range coulomb
  G vector (1/distance) = 0.29518905
  grid = 25 25 25
  stencil order = 5
  estimated absolute RMS force accuracy = 0.00035592686
  estimated relative force accuracy = 1.0718632e-06
  using double precision KISS FFT
  3d grid and FFT values/proc = 32768 15625


---------------------------------------------------------------------
    Device Time Info (average) for kspace: 
---------------------------------------------------------------------
Data Out:        42.0661 s.
Data In:         226.5112 s.
Kernel (map):    12.5756 s.
Kernel (rho):    241.5863 s.
Force interp:    35.4558 s.
Total rho:       296.2280 s.
Total interp:    261.9671 s.
Force copy:      16.0729 s.
Total:           574.2680 s.
CPU Poisson:     2975.3862 s.
CPU Data Cast:   12.2803 s.
CPU Idle Time:   7.8896 s.
Max Mem / Proc:  8.69 MB.
---------------------------------------------------------------------


--------------------------------------------------------------------------
- Using acceleration for pppm:
-  with 1 proc(s) per device.
-  with 1 thread(s) per proc.
-  Horizontal vector operations: ENABLED
-  Shared memory system: No
--------------------------------------------------------------------------
Device 0: Quadro RTX 6000, 72 CUs, 23/24 GB, 1.8 GHZ (Mixed Precision)
--------------------------------------------------------------------------

Initializing Device and compiling on process 0...Done.
Initializing Device 0 on core 0...Done.



---------------------------------------------------------------------
      Device Time Info (average): 
---------------------------------------------------------------------
Data Transfer:   18.3226 s.
Neighbor copy:   148.1257 s.
Neighbor unpack: 0.0000 s.
Force calc:      90.5701 s.
Device Overhead: 19.4304 s.
CPU Cast/Pack:   25.2213 s.
CPU Driver_Time: 14.9202 s.
CPU Idle_Time:   4.8262 s.
Average split:   1.0000.
Max Mem / Proc:  9.80 MB.
Prefetch mode:   None.
Vector width:    32.
Lanes / atom:    8.
Pair block:      256.
Neigh block:     128.
Neigh mode:      Host.
---------------------------------------------------------------------


--------------------------------------------------------------------------
- Using acceleration for lj/class2/coul/long:
-  with 1 proc(s) per device.
-  with 1 thread(s) per proc.
-  Horizontal vector operations: ENABLED
-  Shared memory system: No
--------------------------------------------------------------------------
Device 0: Quadro RTX 6000, 72 CUs, 23/24 GB, 1.8 GHZ (Mixed Precision)
--------------------------------------------------------------------------

Initializing Device and compiling on process 0...Done.
Initializing Device 0 on core 0...Done.

Generated 6 of 6 mixed pair_coeff terms from sixthpower/sixthpower mixing rule
STAGE COMPLETE: NVT T=530.0->530.0K steps=1000000
Cuda driver error 4 in call at file '/home/arz2/lammps/lib/gpu/geryon/nvd_timer.h' in line 98.
Cuda driver error 4 in call at file '/home/arz2/lammps/lib/gpu/geryon/nvd_timer.h' in line 99.
Cuda driver error 4 in call at file '/home/arz2/lammps/lib/gpu/geryon/nvd_timer.h' in line 98.
Cuda driver error 4 in call at file '/home/arz2/lammps/lib/gpu/geryon/nvd_timer.h' in line 99.
Cuda driver error 4 in call at file '/home/arz2/lammps/lib/gpu/geryon/nvd_timer.h' in line 98.
Cuda driver error 4 in call at file '/home/arz2/lammps/lib/gpu/geryon/nvd_timer.h' in line 99.
Cuda driver error 4 in call at file '/home/arz2/lammps/lib/gpu/geryon/nvd_timer.h' in line 98.
Cuda driver error 4 in call at file '/home/arz2/lammps/lib/gpu/geryon/nvd_timer.h' in line 99.
Cuda driver error 4 in call at file '/home/arz2/lammps/lib/gpu/geryon/nvd_timer.h' in line 98.
Cuda driver error 4 in call at file '/home/arz2/lammps/lib/gpu/geryon/nvd_timer.h' in line 99.
Cuda driver error 4 in call at file '/home/arz2/lammps/lib/gpu/geryon/nvd_timer.h' in line 98.
Cuda driver error 4 in call at file '/home/arz2/lammps/lib/gpu/geryon/nvd_timer.h' in line 99.
Cuda driver error 4 in call at file '/home/arz2/lammps/lib/gpu/geryon/nvd_timer.h' in line 98.
Cuda driver error 4 in call at file '/home/arz2/lammps/lib/gpu/geryon/nvd_timer.h' in line 99.
Cuda driver error 4 in call at file '/home/arz2/lammps/lib/gpu/geryon/nvd_timer.h' in line 98.
Cuda driver error 4 in call at file '/home/arz2/lammps/lib/gpu/geryon/nvd_timer.h' in line 99.
Cuda driver error 4 in call at file '/home/arz2/lammps/lib/gpu/geryon/nvd_timer.h' in line 98.
Cuda driver error 4 in call at file '/home/arz2/lammps/lib/gpu/geryon/nvd_timer.h' in line 99.
Cuda driver error 4 in call at file '/home/arz2/lammps/lib/gpu/geryon/nvd_timer.h' in line 98.
Cuda driver error 4 in call at file '/home/arz2/lammps/lib/gpu/geryon/nvd_timer.h' in line 99.
