units real
atom_style full
boundary p p p

# --- Force Field Styles ---
pair_style lj/class2/coul/long 9.5 9.5
kspace_style pppm 1e-6
dielectric 1.000000
bond_style class2
angle_style class2
dihedral_style class2
improper_style class2
special_bonds lj/coul 0 0 1
pair_modify mix sixthpower tail yes
neighbor 2.0 bin
neigh_modify delay 0 every 1 check yes
neigh_modify one 4000
# KOKKOS: package loaded via -pk kokkos on the command line

read_data /home/alexzhao/PolyJarvis/data/PVC3/lammps/equil/npt_compress/npt_compress_out.data
Reading data file ...
  orthogonal box = (8.0513684 8.0513684 8.0513684) to (40.334127 40.334127 40.334127)
  1 by 1 by 1 MPI processor grid
WARNING: Pair style lj/class2/coul/cut/kk in data file differs from currently defined pair style lj/class2/coul/long/kk (src/read_data.cpp:811)
  reading atoms ...
  3620 atoms
  reading velocities ...
  3620 velocities
  scanning bonds ...
  4 = max bonds/atom
  scanning angles ...
  12 = max angles/atom
  scanning dihedrals ...
  24 = max dihedrals/atom
  scanning impropers ...
  10 = max impropers/atom
  orthogonal box = (8.0513684 8.0513684 8.0513684) to (40.334127 40.334127 40.334127)
  1 by 1 by 1 MPI processor grid
  reading bonds ...
  3610 bonds
  reading angles ...
  7200 angles
  reading dihedrals ...
  10710 dihedrals
  reading impropers ...
  4800 impropers
Finding 1-2 1-3 1-4 neighbors ...
  special bond factors lj:    0        0        1       
  special bond factors coul:  0        0        1       
     4 = max # of 1-2 neighbors
     6 = max # of 1-3 neighbors
    10 = max # of special neighbors
  special bonds CPU = 0.003 seconds
  read_data CPU = 0.175 seconds
include /home/alexzhao/PolyJarvis/data/PVC3/lammps/equil/emc_build.params
# LAMMPS parameters created by EMC v9.4.4, build Jul 31 2025 20:33:44

# Variables

variable	seed		index	472913
variable	ntotal		index	3620
variable	fshape		index	1
variable	output		index	emc_build
variable	field		index	pcff/pcff
variable	location1	index	~/emc/field/
variable	nav		index	0.6022141179
variable	temperature	index	300
variable	radius		index	5
variable	nrelax		index	100
variable	weight_nonbond	index	0.0001
variable	weight_bond	index	0.0001
variable	weight_focus	index	1
variable	cutoff		index	9.5
variable	charge_cutoff	index	9.5
variable	kappa		index	4
variable	density1	index	0.55
variable	lprevious	index	0
variable	lphase		index	48.3854950346
variable	f_poly		index	10
variable	chem_repeat	index	*CC(Cl)*
variable	chem_cap	index	*[H]
variable	lg_repeat	index	6
variable	lg_cap		index	1
variable	norm_poly	index	100
variable	l_poly		index	362
variable	mg_repeat	index	50.48806
variable	mg_cap		index	1.00797
variable	m_poly		index	3031.29954
variable	n_poly		index	10
variable	mtotal		index	37519.6854
variable	nphase1		index	3620
variable	mphase1		index	37519.6854
variable	vphase1		index	113277.998291
variable	lbox		index	48.3854950346
variable	lphase1		index	48.3854950346
variable	lxx		index	48.3854950346
variable	lyy		index	48.3854950346
variable	lzz		index	48.3854950346
variable	lzy		index	0
variable	lzx		index	0
variable	lyx		index	0
variable	vtotal		index	113277.998291
variable	nl_poly		index	10

# Types

variable	type_c		index	1
variable	type_c1		index	2
variable	type_cl		index	3
variable	type_hc		index	4

variable	type_bond_c_c	index	1
variable	type_bond_c_c1	index	2
variable	type_bond_c_cl	index	3
variable	type_bond_c_hc	index	4
variable	type_bond_c1_cl	index	5
variable	type_bond_c1_hc	index	6

variable	type_angle_c_c_c1 index	1
variable	type_angle_c_c_cl index	2
variable	type_angle_c_c_hc index	3
variable	type_angle_c_c1_c index	4
variable	type_angle_c_c1_cl index	5
variable	type_angle_c_c1_hc index	6
variable	type_angle_c1_c_c1 index	7
variable	type_angle_c1_c_hc index	8
variable	type_angle_cl_c_hc index	9
variable	type_angle_cl_c1_hc index	10
variable	type_angle_hc_c_hc index	11

# Clusters

variable	n0_poly		index	1
variable	n1_poly		index	10
variable	nl_poly		index	10

# Flags

variable	flag_charged	index	1

# Masses

mass		1    12.01115  # c
mass		2    12.01115  # c1
mass		3    35.45300  # cl
mass		4     1.00797  # hc

# Potentials

pair_modify	mix sixthpower tail yes
special_bonds	lj/coul 0 0 1

# Pair Coeffs

pair_coeff	 1  1    0.05400    4.01000  # c,c
pair_coeff	 2  2    0.05400    4.01000  # c1,c1
pair_coeff	 3  3    0.22470    3.92000  # cl,cl
pair_coeff	 4  4    0.02000    2.99500  # hc,hc

# Bond Coeffs

bond_coeff	1    1.53000  299.67000 -501.77000  679.81000  # c,c
bond_coeff	2    1.53000  299.67000 -501.77000  679.81000  # c,c1
bond_coeff	3    1.79000  194.31900    0.00000    0.00000  # c,cl
bond_coeff	4    1.10100  345.00000 -691.89000  844.60000  # c,hc
bond_coeff	5    1.79000  194.31900    0.00000    0.00000  # c1,cl
bond_coeff	6    1.10100  345.00000 -691.89000  844.60000  # c1,hc

# Angle Coeffs

angle_coeff	 1  112.67000   39.51600   -7.44300   -9.55830  # c,c,c1
angle_coeff	 2  107.00000   61.17450    0.00000    0.00000  # c,c,cl
angle_coeff	 3  110.77000   41.45300  -10.60400    5.12900  # c,c,hc
angle_coeff	 4  112.67000   39.51600   -7.44300   -9.55830  # c,c1,c
angle_coeff	 5  107.00000   61.17450    0.00000    0.00000  # c,c1,cl
angle_coeff	 6  110.77000   41.45300  -10.60400    5.12900  # c,c1,hc
angle_coeff	 7  112.67000   39.51600   -7.44300   -9.55830  # c1,c,c1
angle_coeff	 8  110.77000   41.45300  -10.60400    5.12900  # c1,c,hc
angle_coeff	 9  107.99680   51.09870    0.00000    0.00000  # cl,c,hc
angle_coeff	10  107.99680   51.09870    0.00000    0.00000  # cl,c1,hc
angle_coeff	11  107.66000   39.64100  -12.92100   -2.43180  # hc,c,hc

# BondBond Coeffs

angle_coeff	 1 bb    0.00000    1.53000    1.53000  # c,c,c1
angle_coeff	 2 bb    0.00000    1.53000    1.79000  # c,c,cl
angle_coeff	 3 bb    3.38720    1.53000    1.10100  # c,c,hc
angle_coeff	 4 bb    0.00000    1.53000    1.53000  # c,c1,c
angle_coeff	 5 bb    0.00000    1.53000    1.79000  # c,c1,cl
angle_coeff	 6 bb    3.38720    1.53000    1.10100  # c,c1,hc
angle_coeff	 7 bb    0.00000    1.53000    1.53000  # c1,c,c1
angle_coeff	 8 bb    3.38720    1.53000    1.10100  # c1,c,hc
angle_coeff	 9 bb    0.00000    1.79000    1.10100  # cl,c,hc
angle_coeff	10 bb    0.00000    1.79000    1.10100  # cl,c1,hc
angle_coeff	11 bb    5.33160    1.10100    1.10100  # hc,c,hc

# BondAngle Coeffs

angle_coeff	 1 ba    8.01600    8.01600    1.53000    1.53000  # c,c,c1
angle_coeff	 2 ba    0.00000    0.00000    1.53000    1.79000  # c,c,cl
angle_coeff	 3 ba   20.75400   11.42100    1.53000    1.10100  # c,c,hc
angle_coeff	 4 ba    8.01600    8.01600    1.53000    1.53000  # c,c1,c
angle_coeff	 5 ba    0.00000    0.00000    1.53000    1.79000  # c,c1,cl
angle_coeff	 6 ba   20.75400   11.42100    1.53000    1.10100  # c,c1,hc
angle_coeff	 7 ba    8.01600    8.01600    1.53000    1.53000  # c1,c,c1
angle_coeff	 8 ba   20.75400   11.42100    1.53000    1.10100  # c1,c,hc
angle_coeff	 9 ba    0.00000    0.00000    1.79000    1.10100  # cl,c,hc
angle_coeff	10 ba    0.00000    0.00000    1.79000    1.10100  # cl,c1,hc
angle_coeff	11 ba   18.10300   18.10300    1.10100    1.10100  # hc,c,hc

# Dihedral Coeffs

dihedral_coeff	 1    0.00000    0.00000    0.05140    0.00000   -0.14300    0.00000  # c,c,c1,c
dihedral_coeff	 2    0.00000    0.00000    0.00000    0.00000    0.15000    0.00000  # c,c,c1,cl
dihedral_coeff	 3    0.00000    0.00000    0.03160    0.00000   -0.16810    0.00000  # c,c,c1,hc
dihedral_coeff	 4    0.00000    0.00000    0.05140    0.00000   -0.14300    0.00000  # c,c1,c,c1
dihedral_coeff	 5    0.00000    0.00000    0.03160    0.00000   -0.16810    0.00000  # c,c1,c,hc
dihedral_coeff	 6    0.00000    0.00000    0.00000    0.00000    0.15000    0.00000  # c1,c,c,cl
dihedral_coeff	 7    0.00000    0.00000    0.03160    0.00000   -0.16810    0.00000  # c1,c,c,hc
dihedral_coeff	 8    0.00000    0.00000    0.00000    0.00000    0.15000    0.00000  # c1,c,c1,cl
dihedral_coeff	 9    0.00000    0.00000    0.03160    0.00000   -0.16810    0.00000  # c1,c,c1,hc
dihedral_coeff	10    0.00000    0.00000    0.00000    0.00000   -0.10000    0.00000  # cl,c,c,hc
dihedral_coeff	11    0.00000    0.00000    0.00000    0.00000   -0.10000    0.00000  # cl,c1,c,hc
dihedral_coeff	12   -0.14320    0.00000    0.06170    0.00000   -0.10830    0.00000  # hc,c,c,hc
dihedral_coeff	13   -0.14320    0.00000    0.06170    0.00000   -0.10830    0.00000  # hc,c,c1,hc

# MiddleBondTorsion Coeffs

dihedral_coeff	 1 mbt  -17.78700   -7.18770    0.00000    1.53000  # c,c,c1,c
dihedral_coeff	 2 mbt    0.00000    0.00000    0.00000    1.53000  # c,c,c1,cl
dihedral_coeff	 3 mbt  -14.87900   -3.65810   -0.31380    1.53000  # c,c,c1,hc
dihedral_coeff	 4 mbt  -17.78700   -7.18770    0.00000    1.53000  # c,c1,c,c1
dihedral_coeff	 5 mbt  -14.87900   -3.65810   -0.31380    1.53000  # c,c1,c,hc
dihedral_coeff	 6 mbt    0.00000    0.00000    0.00000    1.53000  # c1,c,c,cl
dihedral_coeff	 7 mbt  -14.87900   -3.65810   -0.31380    1.53000  # c1,c,c,hc
dihedral_coeff	 8 mbt    0.00000    0.00000    0.00000    1.53000  # c1,c,c1,cl
dihedral_coeff	 9 mbt  -14.87900   -3.65810   -0.31380    1.53000  # c1,c,c1,hc
dihedral_coeff	10 mbt    0.00000    0.00000    0.00000    1.53000  # cl,c,c,hc
dihedral_coeff	11 mbt    0.00000    0.00000    0.00000    1.53000  # cl,c1,c,hc
dihedral_coeff	12 mbt  -14.26100   -0.53220   -0.48640    1.53000  # hc,c,c,hc
dihedral_coeff	13 mbt  -14.26100   -0.53220   -0.48640    1.53000  # hc,c,c1,hc

# EndBondTorsion Coeffs

dihedral_coeff	 1 ebt   -0.07320    0.00000    0.00000   -0.07320    0.00000    0.00000    1.53000    1.53000  # c,c,c1,c
dihedral_coeff	 2 ebt    0.00000    0.00000    0.00000    0.00000    0.00000    0.00000    1.53000    1.79000  # c,c,c1,cl
dihedral_coeff	 3 ebt    0.24860    0.24220   -0.09250    0.08140    0.05910    0.22190    1.53000    1.10100  # c,c,c1,hc
dihedral_coeff	 4 ebt   -0.07320    0.00000    0.00000   -0.07320    0.00000    0.00000    1.53000    1.53000  # c,c1,c,c1
dihedral_coeff	 5 ebt    0.24860    0.24220   -0.09250    0.08140    0.05910    0.22190    1.53000    1.10100  # c,c1,c,hc
dihedral_coeff	 6 ebt    0.00000    0.00000    0.00000    0.00000    0.00000    0.00000    1.53000    1.79000  # c1,c,c,cl
dihedral_coeff	 7 ebt    0.24860    0.24220   -0.09250    0.08140    0.05910    0.22190    1.53000    1.10100  # c1,c,c,hc
dihedral_coeff	 8 ebt    0.00000    0.00000    0.00000    0.00000    0.00000    0.00000    1.53000    1.79000  # c1,c,c1,cl
dihedral_coeff	 9 ebt    0.24860    0.24220   -0.09250    0.08140    0.05910    0.22190    1.53000    1.10100  # c1,c,c1,hc
dihedral_coeff	10 ebt    0.00000    0.00000    0.00000    0.00000    0.00000    0.00000    1.79000    1.10100  # cl,c,c,hc
dihedral_coeff	11 ebt    0.00000    0.00000    0.00000    0.00000    0.00000    0.00000    1.79000    1.10100  # cl,c1,c,hc
dihedral_coeff	12 ebt    0.21300    0.31200    0.07770    0.21300    0.31200    0.07770    1.10100    1.10100  # hc,c,c,hc
dihedral_coeff	13 ebt    0.21300    0.31200    0.07770    0.21300    0.31200    0.07770    1.10100    1.10100  # hc,c,c1,hc

# AngleTorsion Coeffs

dihedral_coeff	 1 at    0.38860   -0.31390    0.13890    0.38860   -0.31390    0.13890  112.67000  112.67000  # c,c,c1,c
dihedral_coeff	 2 at    0.00000    0.00000    0.00000    0.00000    0.00000    0.00000  112.67000  107.00000  # c,c,c1,cl
dihedral_coeff	 3 at   -0.24540    0.00000   -0.11360    0.31130    0.45160   -0.19880  112.67000  110.77000  # c,c,c1,hc
dihedral_coeff	 4 at    0.38860   -0.31390    0.13890    0.38860   -0.31390    0.13890  112.67000  112.67000  # c,c1,c,c1
dihedral_coeff	 5 at   -0.24540    0.00000   -0.11360    0.31130    0.45160   -0.19880  112.67000  110.77000  # c,c1,c,hc
dihedral_coeff	 6 at    0.00000    0.00000    0.00000    0.00000    0.00000    0.00000  112.67000  107.00000  # c1,c,c,cl
dihedral_coeff	 7 at   -0.24540    0.00000   -0.11360    0.31130    0.45160   -0.19880  112.67000  110.77000  # c1,c,c,hc
dihedral_coeff	 8 at    0.00000    0.00000    0.00000    0.00000    0.00000    0.00000  112.67000  107.00000  # c1,c,c1,cl
dihedral_coeff	 9 at   -0.24540    0.00000   -0.11360    0.31130    0.45160   -0.19880  112.67000  110.77000  # c1,c,c1,hc
dihedral_coeff	10 at    0.00000    0.00000    0.00000    0.00000    0.00000    0.00000  107.00000  110.77000  # cl,c,c,hc
dihedral_coeff	11 at    0.00000    0.00000    0.00000    0.00000    0.00000    0.00000  107.00000  110.77000  # cl,c1,c,hc
dihedral_coeff	12 at   -0.80850    0.55690   -0.24660   -0.80850    0.55690   -0.24660  110.77000  110.77000  # hc,c,c,hc
dihedral_coeff	13 at   -0.80850    0.55690   -0.24660   -0.80850    0.55690   -0.24660  110.77000  110.77000  # hc,c,c1,hc

# AngleAngleTorsion Coeffs

dihedral_coeff	 1 aat  -22.04500  112.67000  112.67000  # c,c,c1,c
dihedral_coeff	 2 aat    0.00000  112.67000  107.00000  # c,c,c1,cl
dihedral_coeff	 3 aat  -16.16400  112.67000  110.77000  # c,c,c1,hc
dihedral_coeff	 4 aat  -22.04500  112.67000  112.67000  # c,c1,c,c1
dihedral_coeff	 5 aat  -16.16400  112.67000  110.77000  # c,c1,c,hc
dihedral_coeff	 6 aat    0.00000  112.67000  107.00000  # c1,c,c,cl
dihedral_coeff	 7 aat  -16.16400  112.67000  110.77000  # c1,c,c,hc
dihedral_coeff	 8 aat    0.00000  112.67000  107.00000  # c1,c,c1,cl
dihedral_coeff	 9 aat  -16.16400  112.67000  110.77000  # c1,c,c1,hc
dihedral_coeff	10 aat    0.00000  107.00000  110.77000  # cl,c,c,hc
dihedral_coeff	11 aat    0.00000  107.00000  110.77000  # cl,c1,c,hc
dihedral_coeff	12 aat  -12.56400  110.77000  110.77000  # hc,c,c,hc
dihedral_coeff	13 aat  -12.56400  110.77000  110.77000  # hc,c,c1,hc

# BondBond13 Coeffs

dihedral_coeff	 1 bb13    0.00000    1.53000    1.53000  # c,c,c1,c
dihedral_coeff	 2 bb13    0.00000    1.53000    1.79000  # c,c,c1,cl
dihedral_coeff	 3 bb13    0.00000    1.53000    1.10100  # c,c,c1,hc
dihedral_coeff	 4 bb13    0.00000    1.53000    1.53000  # c,c1,c,c1
dihedral_coeff	 5 bb13    0.00000    1.53000    1.10100  # c,c1,c,hc
dihedral_coeff	 6 bb13    0.00000    1.53000    1.79000  # c1,c,c,cl
dihedral_coeff	 7 bb13    0.00000    1.53000    1.10100  # c1,c,c,hc
dihedral_coeff	 8 bb13    0.00000    1.53000    1.79000  # c1,c,c1,cl
dihedral_coeff	 9 bb13    0.00000    1.53000    1.10100  # c1,c,c1,hc
dihedral_coeff	10 bb13    0.00000    1.79000    1.10100  # cl,c,c,hc
dihedral_coeff	11 bb13    0.00000    1.79000    1.10100  # cl,c1,c,hc
dihedral_coeff	12 bb13    0.00000    1.10100    1.10100  # hc,c,c,hc
dihedral_coeff	13 bb13    0.00000    1.10100    1.10100  # hc,c,c1,hc

# Improper Coeffs

improper_coeff	 1    0.00000    0.00000  # c,c,cl,hc
improper_coeff	 2    0.00000    0.00000  # c,c,hc,c1
improper_coeff	 3    0.00000    0.00000  # c,c,hc,cl
improper_coeff	 4    0.00000    0.00000  # c,c,hc,hc
improper_coeff	 5    0.00000    0.00000  # c,c1,c1,hc
improper_coeff	 6    0.00000    0.00000  # c,c1,hc,hc
improper_coeff	 7    0.00000    0.00000  # c,cl,hc,hc
improper_coeff	 8    0.00000    0.00000  # c,hc,hc,hc
improper_coeff	 9    0.00000    0.00000  # c1,c,c,cl
improper_coeff	10    0.00000    0.00000  # c1,c,c,hc
improper_coeff	11    0.00000    0.00000  # c1,c,cl,hc

# AngleAngle Coeffs

improper_coeff	 1 aa    0.00000    0.00000    0.00000  107.00000  110.77000  107.99680  # c,c,cl,hc
improper_coeff	 2 aa    0.11840   -1.31990   -1.31990  110.77000  112.67000  110.77000  # c,c,hc,c1
improper_coeff	 3 aa    0.00000    0.00000    0.00000  110.77000  107.00000  107.99680  # c,c,hc,cl
improper_coeff	 4 aa    0.27380   -0.48250    0.27380  110.77000  110.77000  107.66000  # c,c,hc,hc
improper_coeff	 5 aa   -1.31990   -1.31990    0.11840  112.67000  110.77000  110.77000  # c,c1,c1,hc
improper_coeff	 6 aa    0.27380   -0.48250    0.27380  110.77000  110.77000  107.66000  # c,c1,hc,hc
improper_coeff	 7 aa    0.00000    0.00000    0.00000  107.99680  107.99680  107.66000  # c,cl,hc,hc
improper_coeff	 8 aa   -0.31570   -0.31570   -0.31570  107.66000  107.66000  107.66000  # c,hc,hc,hc
improper_coeff	 9 aa    0.00000    0.00000    0.00000  112.67000  107.00000  107.00000  # c1,c,c,cl
improper_coeff	10 aa   -1.31990   -1.31990    0.11840  112.67000  110.77000  110.77000  # c1,c,c,hc
improper_coeff	11 aa    0.00000    0.00000    0.00000  107.00000  110.77000  107.99680  # c1,c,cl,hc


# --- Thermo Output ---
thermo_style custom step time temp press enthalpy etotal ke pe ebond eangle edihed eimp evdwl ecoul elong etail vol lx ly lz density pxx pyy pzz
thermo_modify flush yes
thermo 1000

# --- Trajectory ---
dump dump_npt all custom 1000 npt_pppm.dump id type mol x y z ix iy iz vx vy vz

# --- Restart Checkpointing ---
restart 10000 npt_1.rst npt_2.rst

# --- Initial Velocities (optional) ---
# Velocities read from data file

# --- SHAKE Constraints ---
# SHAKE disabled

# --- NPT Thermostat + Barostat (Nose-Hoover) ---
# T_damp = 100.0 fs  (heat bath coupling)
# P_damp = 1000.0 fs  (pressure bath coupling, ~10x T_damp typical)
# Ramp: T=610.0->610.0K  P=50000.0->1.0atm
timestep 1.0
fix npt_fix all npt temp 610.0 610.0 100.0 iso 50000.0 1.0 1000.0

run 300000
PPPM Kokkos initialization ...
  using 12-bit tables for long-range coulomb
  G vector (1/distance) = 0.30442587
  grid = 24 24 24
  stencil order = 5
  estimated absolute RMS force accuracy = 0.00027310713
  estimated relative force accuracy = 8.2245402e-07
  using double precision cuFFT
  3d grid and FFT values/proc = 29791 13824
Generated 6 of 6 mixed pair_coeff terms from sixthpower/sixthpower mixing rule
Neighbor list info ...
  update: every = 1 steps, delay = 0 steps, check = yes
  max neighbors/atom: 4000, page size: 100000
  master list distance cutoff = 11.5
  ghost atom cutoff = 11.5
  binsize = 11.5, bins = 3 3 3
  1 neighbor lists, perpetual/occasional/extra = 1 0 0
  (1) pair lj/class2/coul/long/kk, perpetual
      attributes: full, newton off, kokkos_device
      pair build: full/bin/kk/device
      stencil: full/bin/3d
      bin: kk/device
Per MPI rank memory allocation (min/avg/max) = 26.59 | 26.59 | 26.59 Mbytes
   Step          Time           Temp          Press         Enthalpy        TotEng         KinEng         PotEng         E_bond        E_angle        E_dihed        E_impro         E_vdwl         E_coul         E_long         E_tail         Volume           Lx             Ly             Lz          Density          Pxx            Pyy            Pzz      
         0   0              604.70037      50077.299      32423.414      7852.0829      6523.2364      1328.8465      2205.5443      3582.9972     -1816.4549      21.185948      1160.5364     -1536.1517     -2288.8107     -376.13931      33644.332      32.282758      32.282758      32.282758      1.8518097      49120.836      50503.571      50607.49     
      1000   1000           622.64237      50749.851      33080.254      8164.549       6716.7867      1447.7623      2258.5459      3668.7019     -1825.6748      20.219245      1174.6013     -1552.9727     -2295.6586     -375.92231      33663.753      32.288969      32.288969      32.288969      1.8507413      49687.572      50607.254      51954.726    
      2000   2000           611.00777      50615.359      32951.251      8064.1091      6591.2778      1472.8313      2344.7649      3622.726      -1804.518       19.547213      1115.3629     -1533.2589     -2291.7929     -375.35639      33714.507      32.305188      32.305188      32.305188      1.8479552      52964.984      49018.565      49862.529    
      3000   3000           603.49268      48044.826      31692.16       8049.0296      6510.2084      1538.8211      2353.8819      3718.2127     -1783.2937      19.490307      1059.0831     -1540.5671     -2287.9862     -375.04049      33742.905      32.314256      32.314256      32.314256      1.8463999      46853.094      49176.641      48104.742    
      4000   4000           606.81122      47770.055      31464.443      8012.9522      6546.0074      1466.9449      2312.1916      3569.522      -1799.9383      19.430086      1190.404      -1538.0689     -2286.5956     -375.94283      33661.915      32.288381      32.288381      32.288381      1.8508423      48242.284      48189.096      46878.786    
      5000   5000           605.35093      45843.701      30774.226      8155.8209      6530.2544      1625.5665      2402.4036      3719.565      -1805.6059      20.724857      1125.905      -1546.0996     -2291.3265     -374.07116      33830.344      32.342144      32.342144      32.342144      1.8416277      45437.232      48270.603      43823.268    
      6000   6000           624.21161      46589.425      30954.514      8080.3172      6733.715       1346.6023      2258.9211      3631.9602     -1793.886       20.059461      1052.2824     -1532.5794     -2290.1555     -375.90494      33665.309      32.289466      32.289466      32.289466      1.8506558      48023.051      46425.794      45319.431    
      7000   7000           623.3494       49584.645      32643.17       8280.8188      6724.4138      1556.405       2382.1059      3691.7304     -1802.0344      20.480431      1101.833      -1544.367      -2293.3432     -375.63369      33689.618      32.297237      32.297237      32.297237      1.8493204      49163.896      47851.244      51738.795    
      8000   8000           598.77177      49198.965      32137.265      7924.3699      6459.2814      1465.0885      2290.5343      3637.0759     -1805.6356      20.581583      1154.9161     -1541.8701     -2290.5137     -375.01252      33745.422      32.315059      32.315059      32.315059      1.8462622      47051.013      48771.426      51774.455    
      9000   9000           614.77493      46514.574      31027.272      7983.7236      6631.9163      1351.8073      2264.5785      3673.0316     -1804.2952      20.664275      1028.9272     -1541.3434     -2289.7556     -372.54283      33969.13       32.38631       32.38631       32.38631       1.8341034      48151.039      47705.667      43687.015    
     10000   10000          598.78389      47292.665      31141.366      7803.9709      6459.412       1344.5588      2260.1103      3739.643      -1829.1452      22.953357      979.37619     -1539.5645     -2288.8144     -374.00545      33836.287      32.344038      32.344038      32.344038      1.8413042      47294.37       49328.093      45255.531    
     11000   11000          602.72447      49861.003      32493.487      7929.1904      6501.9213      1427.2691      2310.2266      3654.6133     -1804.2209      20.611268      1070.0473     -1534.5985     -2289.41       -374.62194      33780.605      32.326286      32.326286      32.326286      1.8443393      51325.65       46730.182      51527.178    
     12000   12000          603.20103      47109.404      31091.276      7874.7563      6507.0622      1367.6941      2330.3015      3602.0807     -1830.9386      18.979514      1088.6984     -1550.0144     -2291.413      -374.49585      33791.978      32.329913      32.329913      32.329913      1.8437186      46939.083      46299.046      48090.084    
     13000   13000          608.43406      50161.951      32836.021      8133.071       6563.5138      1569.5572      2469.351       3638.7159     -1785.477       19.87246       1066.7455     -1552.4508     -2287.1999     -374.76767      33767.469      32.322095      32.322095      32.322095      1.8450568      49643.387      46915.913      53926.552    
     14000   14000          606.05746      49364.717      32368.368      8032.9641      6537.8761      1495.088       2319.8172      3745.0445     -1814.9534      22.025318      1057.9211     -1544.2639     -2290.5029     -374.38171      33802.281      32.333199      32.333199      32.333199      1.8431566      48675.42       51832.249      47586.482    
     15000   15000          593.90088      49180.325      32140.23       7960.5065      6406.7364      1553.7701      2449.9577      3685.1446     -1824.8354      20.562846      1059.8604     -1546.2469     -2290.6731     -375.38472      33711.963      32.304375      32.304375      32.304375      1.8480947      48374.16       47788.374      51378.442    
     16000   16000          624.03961      48013.326      31846.478      8080.2447      6731.8595      1348.3853      2284.3407      3719.5352     -1821.8703      19.095071      965.72499     -1535.8369     -2282.6035     -372.85326      33940.848      32.37732       32.37732       32.37732       1.8356318      49657.164      47503.257      46879.556    
     17000   17000          606.64497      48596.432      31894.212      7948.5274      6544.2139      1404.3135      2323.5806      3627.4949     -1817.7839      19.186637      1078.7895     -1536.7534     -2290.2009     -374.55331      33786.795      32.32826       32.32826       32.32826       1.8440014      51719.855      47768.434      46301.008    
     18000   18000          630.98227      48003.792      31967.856      8296.9401      6806.7538      1490.1863      2400.258       3739.7942     -1849.7853      20.913417      1020.3171     -1553.7277     -2287.5836     -374.28033      33811.437      32.336118      32.336118      32.336118      1.8426575      47055.093      46497.897      50458.387    
     19000   19000          615.11163      47723.746      31544.52       7984.8599      6635.5484      1349.3114      2292.7549      3616.0435     -1831.5451      21.191282      1094.5137     -1551.9516     -2291.6952     -373.85399      33849.996      32.348405      32.348405      32.348405      1.8405585      49274.7        45676.848      48219.69     
     20000   20000          623.44313      47844.76       31890.564      8228.1948      6725.4249      1502.7699      2399.4043      3711.6039     -1799.7422      21.919145      1010.7149     -1551.262      -2289.8682     -373.17511      33911.575      32.368009      32.368009      32.368009      1.8372163      49111.335      45139.593      49283.353    
     21000   21000          608.45366      43789.244      29533.285      7886.597       6563.7253      1322.8717      2285.7768      3631.2007     -1779.0183      19.264903      1002.867      -1546.8683     -2290.3511     -373.34686      33895.974      32.363045      32.363045      32.363045      1.8380619      44900.019      40055.588      46412.126    
     22000   22000          599.05726      46926.595      31056.549      7659.3768      6462.3611      1197.0158      2289.8014      3647.9639     -1805.4743      20.112493      885.1552      -1551.6811     -2288.8618     -370.16231      34187.585      32.455588      32.455588      32.455588      1.8223837      45234.766      45230.399      50314.62     
     23000   23000          604.46948      42369.487      28843.483      7782.6825      6520.7457      1261.9367      2309.882       3690.843      -1821.5096      21.692521      895.65317     -1545.7015     -2288.9228     -371.29136      34083.626      32.422657      32.422657      32.422657      1.8279422      40822.447      42196.495      44089.519    
     24000   24000          605.08113      47027.625      31170.236      7859.648       6527.3439      1332.3041      2264.3907      3703.6523     -1802.8154      20.647284      980.02935     -1542.8156     -2290.7844     -372.33712      33987.897      32.392273      32.392273      32.392273      1.8330907      47806.28       47388.327      45888.268    
     25000   25000          604.58899      45280.892      30257.54       7795.3845      6522.0349      1273.3496      2359.3247      3573.7875     -1759.6367      19.056958      917.0212      -1544.6421     -2291.5619     -372.04893      34014.224      32.400635      32.400635      32.400635      1.8316719      47543.643      44922.38       43376.654    
     26000   26000          612.83076      47537.245      31539.349      8010.5085      6610.9434      1399.565       2367.3219      3704.7159     -1835.2819      21.358571      976.57439     -1548.1449     -2286.9788     -372.88078      33938.343      32.376523      32.376523      32.376523      1.8357672      46402.206      49335.041      46874.487    
     27000   27000          589.02652      48709.824      31848.913      7740.5554      6354.154       1386.4014      2428.6181      3612.1245     -1847.987       21.0585        1021.9689     -1555.5167     -2293.865      -372.89405      33937.135      32.376139      32.376139      32.376139      1.8358326      49089.851      51534.098      45505.524    
     28000   28000          615.01397      43573.841      29629.004      7906.0901      6634.495       1271.5951      2259.6329      3706.9608     -1796.0459      20.303935      897.44585     -1532.6881     -2284.0143     -370.20671      34183.486      32.45429       32.45429       32.45429       1.8226023      44147.849      39922.026      46651.647    
     29000   29000          603.6429       41826.192      28333.233      7527.4379      6511.8289      1015.609       2259.3233      3591.8926     -1801.8612      20.986352      753.49572     -1521.9842     -2286.2435     -371.02274      34108.302      32.430479      32.430479      32.430479      1.8266197      43727.179      42742.707      39008.691    
     30000   30000          607.78533      43062.562      29301.083      7782.8076      6556.5156      1226.2921      2375.0083      3641.1938     -1824.0853      22.306891      866.36419     -1560.4058     -2294.09       -369.34219      34263.499      32.479592      32.479592      32.479592      1.8183461      41102.752      44611.093      43473.841    
     31000   31000          604.34547      43019.182      29104.247      7664.6534      6519.4079      1145.2455      2271.2953      3663.6572     -1822.5722      21.489645      847.75395     -1544.6816     -2291.6968     -370.32423      34172.638      32.450857      32.450857      32.450857      1.8231808      43747.172      42577.995      42732.381    
     32000   32000          621.40836      45631.278      30566.638      7837.2843      6703.4747      1133.8097      2332.6865      3559.1369     -1783.8016      20.034332      828.33129     -1537.3322     -2285.2455     -370.52034      34154.551      32.44513       32.44513       32.44513       1.8241463      45643.097      44233.364      47017.373    
     33000   33000          602.10014      42847.486      28976.642      7665.7448      6495.1863      1170.5585      2327.7295      3585.3877     -1809.9249      21.526174      869.11283     -1535.9889     -2287.284      -371.07367      34103.621      32.428995      32.428995      32.428995      1.8268705      44047.604      43137.739      41357.116    
     34000   34000          611.76853      43159.968      29532.142      7958.3468      6599.4846      1358.8622      2495.737       3678.4565     -1809.4194      19.948631      807.22773     -1544.4425     -2288.6459     -369.22499      34274.375      32.483029      32.483029      32.483029      1.817769       43489.679      40994.365      44995.86     
     35000   35000          606.24116      39470.022      27440.997      7701.0487      6539.8578      1161.1909      2358.4081      3684.3943     -1816.7782      21.960351      734.83876     -1533.124      -2288.5084     -369.02678      34292.784      32.488843      32.488843      32.488843      1.8167932      42402.46       35395.995      40611.611    
     36000   36000          612.26769      41868.518      28708.406      7767.134       6604.8693      1162.2647      2344.7926      3701.7894     -1830.9811      20.953542      753.29032     -1536.4878     -2291.0922     -368.99549      34295.693      32.489762      32.489762      32.489762      1.8166391      38463.656      43676.526      43465.37     
     37000   37000          593.70373      42671.843      29106.975      7861.8148      6404.6096      1457.2052      2399.5885      3700.779      -1810.242       20.549311      976.10817     -1543.2407     -2286.3372     -370.69601      34138.365      32.440004      32.440004      32.440004      1.8250112      40955.252      43659.774      43400.503    
     38000   38000          618.31848      45816.458      30638.686      7847.1628      6670.1425      1177.0203      2319.8462      3598.4726     -1796.0472      21.058031      856.53554     -1536.5215     -2286.3234     -371.0092       34109.547      32.430874      32.430874      32.430874      1.8265531      47589.932      47333.476      42525.965    
     39000   39000          630.15024      42806.174      29491.133      8093.3393      6797.7782      1295.5611      2356.2247      3768.1247     -1845.241       22.431682      818.48419     -1539.2818     -2285.1813     -369.21041      34275.728      32.483456      32.483456      32.483456      1.8176973      41793.134      43874.208      42751.181    
     40000   40000          600.48723      45099.356      30230.122      7705.0173      6477.7869      1227.2303      2300.0936      3638.0643     -1797.7661      21.418979      894.36481     -1540.7846     -2288.1607     -369.52177      34246.847      32.47433       32.47433       32.47433       1.8192302      44715.095      46525.335      44057.638    
     41000   41000          611.72114      39926.375      27685.399      7638.7979      6598.9733      1039.8246      2318.6442      3599.3573     -1782.3372      20.009552      712.15613     -1542.972      -2285.0335     -367.58321      34427.459      32.531318      32.531318      32.531318      1.8096862      41436.397      40241.251      38101.479    
     42000   42000          600.85066      43906.149      29617.199      7665.1819      6481.7075      1183.4744      2276.5208      3593.6219     -1809.3611      19.58565       922.39097     -1536.6263     -2282.6576     -369.13688      34282.556      32.485613      32.485613      32.485613      1.8173353      42717.636      42441.461      46559.351    
     43000   43000          621.9993       40179.56       28128.971      7934.0012      6709.8495      1224.1518      2410.0385      3735.817      -1854.2981      21.424599      753.38624     -1551.263      -2290.9535     -367.19646      34463.72       32.542735      32.542735      32.542735      1.8077822      38097.432      40884.006      41557.243    
     44000   44000          611.16108      43791.029      29619.355      7749.1676      6592.9317      1156.236       2269.6649      3696.9058     -1829.7143      21.300208      832.58334     -1546.5596     -2287.9444     -369.54656      34244.55       32.473604      32.473604      32.473604      1.8193522      44168.326      42114.456      45090.305    
     45000   45000          611.71581      43263.399      29579.322      7924.3173      6598.9159      1325.4014      2428.3268      3735.1386     -1827.434       21.89965       804.20712     -1547.727      -2289.0099     -368.72185      34321.144      32.497797      32.497797      32.497797      1.815292       47020.453      42700.873      40068.87     
     46000   46000          604.39695      41079.166      28245.716      7698.4837      6519.9633      1178.5204      2293.8066      3664.7568     -1835.0478      20.872762      877.15112     -1552.1413     -2290.8778     -368.98169      34296.975      32.490167      32.490167      32.490167      1.8165712      42330.917      38622.968      42283.613    
     47000   47000          621.37666      41499.205      28636.038      7896.7552      6703.1327      1193.6225      2356.8914      3618.3247     -1813.4067      21.91082       824.15675     -1529.6068     -2284.6478     -369.30278      34267.156      32.480748      32.480748      32.480748      1.818152       43047.905      42233.157      39216.553    
     48000   48000          608.15305      41185.563      28406.432      7709.9852      6560.4824      1149.5028      2422.98        3616.3569     -1795.3687      21.668962      718.59653     -1543.9466     -2290.7844     -367.27024      34456.796      32.540556      32.540556      32.540556      1.8081454      40227.715      42920.569      40408.405    
     49000   49000          610.49409      38332.306      27019.129      7644.1319      6585.7365      1058.3955      2310.6169      3793.9495     -1834.3935      22.696366      593.24072     -1540.6141     -2287.1005     -365.14033      34657.786      32.603704      32.603704      32.603704      1.7976595      40890.614      37244.581      36861.722    
     50000   50000          605.71393      42123.054      28662.309      7626.3691      6534.1703      1092.1988      2332.2758      3563.9539     -1824.1051      20.168953      837.21816     -1545.1176     -2292.1953     -369.56807      34242.557      32.472974      32.472974      32.472974      1.8194581      42448.201      41801.006      42119.955    
     51000   51000          617.60655      40498.446      28164.396      7827.9293      6662.4626      1165.4667      2269.7683      3848.1615     -1842.4585      21.471555      691.59137     -1536.43       -2286.6375     -367.53557      34431.921      32.532723      32.532723      32.532723      1.8094517      41043.758      40476.457      39975.124    
     52000   52000          586.18432      38441.228      26682.659      7332.0875      6323.4936      1008.5938      2341.4126      3593.2598     -1831.4112      20.817001      715.84366     -1540.0091     -2291.3189     -366.64011      34516.015      32.559187      32.559187      32.559187      1.8050432      39919.761      38096.748      37307.175    
     53000   53000          604.58763      40324.2        27917.999      7611.229       6522.0203      1089.2087      2293.235       3663.3587     -1809.9339      19.34995       763.39814     -1550.0661     -2290.133      -366.4894       34530.209      32.563649      32.563649      32.563649      1.8043012      39300.687      39394.583      42277.329    
     54000   54000          609.15646      41540.986      28527.799      7690.9617      6571.3067      1119.655       2325.4506      3604.0211     -1755.5037      20.059088      767.98941     -1548.9546     -2293.4069     -367.94383      34393.717      32.520686      32.520686      32.520686      1.8114616      41049.399      40613.853      42959.707    
     55000   55000          598.60744      43533.85       29487.941      7655.0195      6457.5086      1197.5108      2381.5748      3679.5842     -1820.6166      21.492704      774.69448     -1547.9237     -2291.295      -368.00333      34388.156      32.518934      32.518934      32.518934      1.8117545      44085.021      43814.498      42702.032    
     56000   56000          623.41938      40576.398      28157.272      7692.3635      6725.1687      967.19476      2290.7531      3689.462      -1803.8189      20.990486      596.78019     -1533.1373     -2293.8347     -365.93185      34582.821      32.58018       32.58018       32.58018       1.8015563      39741.563      41278.292      40709.339    
     57000   57000          604.02231      39830.126      27545.941      7450.0175      6515.9218      934.09574      2203.9783      3725.0938     -1808.2352      20.97722       618.13412     -1535.8286     -2290.0239     -365.79707      34595.563      32.58418       32.58418       32.58418       1.8008927      41086.318      38205.445      40198.614    
     58000   58000          604.29214      37144.554      26459.19       7676.5922      6518.8327      1157.7595      2484.9189      3711.2525     -1831.5242      21.48333       590.10724     -1533.7502     -2284.728      -364.98584      34672.456      32.608303      32.608303      32.608303      1.7968989      36157.921      38591.297      36684.444    
     59000   59000          598.91866      40683.208      27891.748      7424.305       6460.866       963.43902      2344.7639      3547.7848     -1813.7079      20.125255      691.76881     -1540.9544     -2286.3413     -366.84966      34496.299      32.552986      32.552986      32.552986      1.8060748      38614.1        40986.869      42448.656    
     60000   60000          606.9166       42413.432      28987.821      7575.8922      6547.1442      1028.748       2289.3909      3595.1729     -1836.6223      20.211518      791.53855     -1542.1437     -2288.7998     -365.58145      34615.968      32.590585      32.590585      32.590585      1.7998311      43490.94       42395.636      41353.721    
     61000   61000          605.37683      38611.603      27071.428      7473.0323      6530.5338      942.49853      2310.4935      3599.4501     -1808.4908      20.446412      654.14656     -1538.6966     -2294.8507     -363.60833      34803.811      32.64943       32.64943       32.64943       1.7901171      39388.503      37997.491      38448.815    
     62000   62000          621.19892      41500.463      28780.123      7750.574       6701.2154      1049.3586      2307.8712      3698.7383     -1808.0505      19.325224      668.3982      -1548.4309     -2288.4928     -364.2164       34745.706      32.63125       32.63125       32.63125       1.7931107      44907.511      38520.404      41073.472    
     63000   63000          609.15389      39069.762      27314.127      7540.8997      6571.279       969.62071      2220.9381      3672.0452     -1841.5043      20.756841      723.13013     -1538.4768     -2287.2684     -364.66975      34702.511      32.617722      32.617722      32.617722      1.7953427      39196.143      38484.087      39529.056    
     64000   64000          620.47951      38792.905      27527.525      7880.9638      6693.4547      1187.5091      2377.5574      3780.3167     -1845.489       21.280226      679.60772     -1539.1276     -2286.6362     -364.42005      34726.288      32.62517       32.62517       32.62517       1.7941134      38572.152      37935.632      39870.929    
     65000   65000          615.50404      40064.206      27825.914      7588.5531      6639.7816      948.7715       2292.0336      3614.0407     -1844.6346      22.839465      698.60437     -1545.1377     -2288.9744     -365.3753       34635.499      32.596714      32.596714      32.596714      1.7988162      39995.276      41131.972      39065.37     
     66000   66000          614.25414      36002.945      25981.12       7697.6497      6626.2982      1071.3515      2381.579       3732.5075     -1811.5395      20.25869       566.53595     -1530.8151     -2287.175      -363.42593      34821.279      32.654891      32.654891      32.654891      1.7892191      34027.436      38501.799      35479.599    
     67000   67000          618.74104      37887.695      26773.496      7572.7425      6674.7009      898.04166      2264.5332      3635.2627     -1809.3682      20.751776      621.59192     -1543.6534     -2291.0764     -364.18029      34749.15       32.632328      32.632328      32.632328      1.792933       37416.828      38369.923      37876.336    
     68000   68000          617.12462      38233.375      27195.851      7768.9719      6657.2637      1111.7083      2362.8923      3702.8036     -1796.2422      19.582091      661.08516     -1546.2316     -2292.1812     -363.22532      34840.511      32.660902      32.660902      32.660902      1.7882315      37568.367      38034.745      39097.013    
     69000   69000          609.62019      40431.179      28066.463      7630.5784      6576.3092      1054.2692      2317.5204      3737.7084     -1846.8597      20.264815      647.95598     -1537.7461     -2284.5746     -365.14005      34657.813      32.603712      32.603712      32.603712      1.7976581      40381.194      39409.749      41502.593    
     70000   70000          610.53858      40223.245      28164.978      7684.1917      6586.2164      1097.9753      2396.8402      3767.303      -1830.893       21.273544      569.87579     -1539.0829     -2287.3414     -362.46576      34913.52       32.6837        32.6837        32.6837        1.784492       38613.177      40650.969      41405.591    
     71000   71000          606.35813      40550.616      28081.622      7590.4763      6541.1196      1049.3567      2325.2333      3759.717      -1869.3974      23.173198      628.70749     -1531.904      -2286.173      -365.23108      34649.176      32.601003      32.601003      32.601003      1.7981062      40010.239      41176.023      40465.585    
     72000   72000          610.15609      39324.147      27608.11       7637.5219      6582.0903      1055.4316      2469.8563      3663.4594     -1823.8497      21.579381      551.62815     -1540.9562     -2286.2858     -363.41679      34822.155      32.655165      32.655165      32.655165      1.7891741      39452.217      40269.748      38250.477    
     73000   73000          607.86598      37601.971      26801.473      7631.5528      6557.3856      1074.1672      2426.6807      3651.5082     -1825.9213      20.063591      627.15262     -1538.4395     -2286.8771     -362.01522      34956.972      32.697253      32.697253      32.697253      1.7822739      38223.808      37413.908      37168.198    
     74000   74000          601.35172      39038.566      27288.218      7418.2346      6487.1127      931.12188      2370.8858      3643.1011     -1828.5185      21.193402      549.16574     -1538.4226     -2286.2831     -362.60423      34900.187      32.679539      32.679539      32.679539      1.7851737      39694.741      39438.853      37982.102    
     75000   75000          628.77825      35856.499      25967.198      7614.3658      6782.9778      831.388        2305.185       3666.3792     -1834.3944      19.925758      489.07444     -1530.2544     -2284.5276     -360.57973      35096.138      32.740586      32.740586      32.740586      1.7752067      37778.305      34225.105      35566.087    
     76000   76000          602.22561      37257.768      26388.855      7444.7612      6496.5398      948.22139      2347.2496      3649.3851     -1818.2281      20.83038       560.28358     -1530.9679     -2280.3313     -362.97735      34864.312      32.668338      32.668338      32.668338      1.7870107      36791.211      36732.836      38249.257    
     77000   77000          605.23033      36528.512      26148.028      7450.4111      6528.9534      921.45764      2299.3761      3750.0393     -1836.6492      21.66191       495.4334      -1526.9921     -2281.4119     -360.5639       35097.678      32.741065      32.741065      32.741065      1.7751288      36370.085      38675.276      34540.176    
     78000   78000          607.36077      36636.076      26008.086      7284.5958      6551.9356      732.66014      2324.1028      3546.5095     -1839.5176      22.351714      490.21665     -1528.6017     -2282.4012     -361.12593      35043.055      32.724071      32.724071      32.724071      1.7778957      37458.317      39107.622      33342.289    
     79000   79000          601.64472      36324.291      25989.116      7423.2781      6490.2735      933.00461      2354.2355      3647.241      -1821.121       20.195084      542.00689     -1529.5915     -2279.9613     -361.09305      35046.246      32.725064      32.725064      32.725064      1.7777339      35046.723      37766.597      36159.554    
     80000   80000          612.42608      38552.551      27264.917      7606.4578      6606.5779      999.87988      2356.3488      3751.6799     -1831.0067      24.154592      529.1088      -1537.8583     -2292.5472     -361.94298      34963.949      32.699428      32.699428      32.699428      1.7819182      39156.449      40234.734      36266.47     
     81000   81000          617.49263      36384.972      26234.002      7692.7743      6661.2336      1031.5406      2341.1153      3707.0826     -1853.1052      23.081839      625.06127     -1529.1746     -2282.5205     -362.17634      34941.42       32.692404      32.692404      32.692404      1.7830671      35733.537      37310.084      36111.297    
     82000   82000          615.0667       36733.648      26412.936      7595.9485      6635.0638      960.88472      2379.9134      3643.6293     -1852.0518      21.632622      588.81638     -1535.0605     -2285.9947     -360.28856      35124.5        32.749403      32.749403      32.749403      1.7737732      37169.24       36009.715      37021.988    
     83000   83000          617.70467      36207.438      26080.117      7546.2257      6663.521       882.70478      2324.5704      3721.4019     -1839.0894      20.837417      482.75441     -1536.1961     -2291.5739     -360.55182      35098.854      32.74143       32.74143       32.74143       1.7750693      34702.407      39680.407      34239.5      
     84000   84000          611.14946      36363.136      25998.381      7455.623       6592.8063      862.81672      2359.5462      3653.0159     -1808.7705      20.508612      445.05207     -1522.7802     -2283.7553     -361.92911      34965.289      32.699846      32.699846      32.699846      1.7818499      38233.615      36802.217      34053.575    
     85000   85000          608.40343      32246.59       24010.21       7333.1905      6563.1834      770.0071       2350.3186      3699.6727     -1830.7214      20.437493      348.4423      -1532.0636     -2286.079      -356.86329      35461.635      32.853849      32.853849      32.853849      1.7569099      33354.896      30322.668      33062.206    
     86000   86000          626.98192      35596.052      25854.447      7681.244       6763.5998      917.64422      2343.821       3660.5419     -1836.8891      21.708792      555.91753     -1538.0349     -2289.421      -361.49881      35006.909      32.712815      32.712815      32.712815      1.7797315      33628.935      38252.965      34906.257    
     87000   87000          617.73083      34905.015      25310.946      7448.917       6663.8032      785.11382      2357.0247      3609.1924     -1834.3772      22.243979      468.4116      -1543.5177     -2293.8639     -360.65633      35088.683      32.738267      32.738267      32.738267      1.7755838      34278.048      31285.741      39151.256    
     88000   88000          594.28825      32860.549      24140.003      7240.4824      6410.9152      829.56728      2315.2407      3708.5143     -1827.9938      23.513912      429.4047      -1529.1883     -2289.9243     -358.86983      35263.359      32.792502      32.792502      32.792502      1.7667885      32710.385      32222.022      33649.239    
     89000   89000          605.90384      35417.031      25531.179      7344.5106      6536.219       808.29166      2347.5519      3645.6024     -1829.4638      22.196521      438.72072     -1532.5159     -2283.8002     -359.41444      35209.926      32.775931      32.775931      32.775931      1.7694697      37036.282      33987.611      35227.201    
     90000   90000          597.4128       39323.889      27507.727      7445.9293      6444.6214      1001.3079      2298.2684      3735.757      -1827.3572      21.119222      588.61238     -1530.8241     -2284.2678     -361.76216      34981.425      32.704875      32.704875      32.704875      1.781028       41438.936      39784.633      36748.1      
     91000   91000          612.86386      35577.546      25845.761      7545.455       6611.3005      934.15451      2326.9461      3743.8978     -1843.7206      21.086621      506.07445     -1534.1054     -2286.0244     -358.80142      35270.082      32.794586      32.794586      32.794586      1.7664517      31579.152      36385.615      38767.872    
     92000   92000          609.71252      32304.644      24141.273      7463.1508      6577.3053      885.84556      2379.0263      3670.3136     -1782.8517      20.868292      395.16065     -1521.6212     -2275.0503     -357.48212      35400.249      32.83488       32.83488       32.83488       1.7599565      31900.42       36036.855      28976.658    
     93000   93000          615.79808      37424.21       26810.34       7570.7164      6642.9536      927.76287      2373.4001      3642.154      -1825.6584      22.357116      517.69212     -1518.5449     -2283.6371     -358.99847      35250.724      32.788585      32.788585      32.788585      1.7674218      41619.18       35792.585      34860.865    
     94000   94000          618.49908      34039.393      24959.104      7391.2586      6672.0908      719.16784      2348.533       3589.4623     -1815.1127      21.785002      365.47225     -1510.7475     -2280.2245     -357.60192      35388.389      32.831213      32.831213      32.831213      1.7605463      34852.871      34814.062      32451.247    
     95000   95000          603.51658      35070.138      25333.129      7231.6578      6510.4662      721.19156      2291.9454      3633.3869     -1804.8759      20.315801      399.79702     -1531.9884     -2287.3893     -357.56921      35391.626      32.832214      32.832214      32.832214      1.7603853      34956.897      33057.721      37195.797    
     96000   96000          606.86025      34511.541      25218.806      7398.9903      6546.5362      852.45411      2318.1096      3690.4367     -1833.1622      21.313961      464.43172     -1528.1344     -2280.5413     -357.43548      35404.867      32.836308      32.836308      32.836308      1.7597269      33981.999      34331.052      35221.571    
     97000   97000          618.18307      34028.369      25229.232      7640.8225      6668.6818      972.14068      2448.1834      3725.7725     -1812.6867      23.076861      397.67187     -1521.6168     -2288.2605     -357.06812      35441.293      32.847565      32.847565      32.847565      1.7579183      32565.202      35174.487      34345.417    
     98000   98000          599.51202      32263.837      23984.673      7274.3316      6467.2668      807.06473      2362.3521      3672.3701     -1813.6865      21.404244      352.97004     -1513.2441     -2275.1011     -356.34216      35513.496      32.869857      32.869857      32.869857      1.7543443      33635.338      34647.257      28508.917    
     99000   99000          604.32342      33734.917      24610.257      7142.8193      6519.17        623.64927      2297.5846      3625.5606     -1830.5754      22.723851      313.8647      -1520.3072     -2285.2019     -356.44043      35503.705      32.866836      32.866836      32.866836      1.7548281      35341.32       31735.869      34127.563    
    100000   100000         601.49667      31906.146      23799.033      7281.3942      6488.6763      792.71784      2376.2237      3703.6875     -1847.8142      23.018629      327.61224     -1511.7473     -2278.2628     -356.50276      35497.497      32.86492       32.86492       32.86492       1.7551349      33609.867      29104.532      33004.038    
    101000   101000         619.74771      30796.872      23502.389      7519.5418      6685.5604      833.98143      2382.8877      3684.8414     -1813.2759      21.752918      349.97146     -1514.8688     -2277.3274     -355.6223       35585.383      32.89202       32.89202       32.89202       1.7508002      32890.251      30579.8        28920.565    
    102000   102000         605.54333      36454.85       26284.032      7535.8869      6532.3299      1003.5571      2364.3809      3715.8955     -1865.2528      23.112846      556.83844     -1513.8664     -2277.5514     -358.86701      35263.636      32.792588      32.792588      32.792588      1.7667746      34424.53       36973.674      37966.345    
    103000   103000         611.52082      33691.104      24827.437      7342.5562      6596.8124      745.74378      2338.3231      3707.8313     -1863.7426      21.485666      348.00754     -1524.8481     -2281.3131     -355.62238      35585.375      32.892018      32.892018      32.892018      1.7508007      33110.971      33876.031      34086.311    
    104000   104000         603.66066      32750.765      24276.16       7287.0615      6512.0205      775.04097      2352.987       3693.0953     -1827.253       23.711939      334.53571     -1521.273      -2280.7631     -355.78501      35569.109      32.887005      32.887005      32.887005      1.7516013      33573.077      33392.836      31286.383    
    105000   105000         611.24009      31871.863      23966.086      7393.9232      6593.784       800.13912      2356.2796      3677.329      -1843.4311      22.917738      394.08242     -1524.6837     -2282.3549     -354.94803      35652.982      32.912834      32.912834      32.912834      1.7474807      33205.157      30147.518      32262.915    
    106000   106000         618.94627      34841.018      25365.845      7236.4692      6676.9148      559.55435      2288.6751      3543.2588     -1816.474       21.086639      335.59979     -1529.6839     -2282.9081     -354.68637      35679.284      32.920926      32.920926      32.920926      1.7461925      37135.297      33554.256      33833.502    
    107000   107000         616.99493      31332.911      23581.758      7276.4642      6655.8646      620.59962      2396.6506      3628.704      -1852.8878      22.848528      242.30983     -1529.2478     -2287.7778     -354.65709      35682.23       32.921832      32.921832      32.921832      1.7460483      29163.045      32618.918      32216.77     
    108000   108000         596.83692      33016.121      24254.129      7111.4578      6438.409       673.04874      2305.2851      3654.0418     -1860.6177      20.882856      356.48736     -1524.1476     -2278.8831     -355.45455      35602.177      32.897194      32.897194      32.897194      1.7499744      32909.456      32102.496      34036.411    
    109000   109000         611.37535      31516.804      23602.212      7188.6291      6595.2431      593.38591      2344.3376      3552.3846     -1849.7356      20.21288       326.5276      -1518.7618     -2281.5793     -354.38497      35709.629      32.930256      32.930256      32.930256      1.7447086      32602.055      31563.763      30384.594    
    110000   110000         617.25975      28922.32       22517.399      7403.8219      6658.7213      745.10053      2411.8647      3737.255      -1832.3356      23.50711       220.68649     -1529.1687     -2286.7085     -353.18511      35830.943      32.967505      32.967505      32.967505      1.7388015      28770.245      26981.6        31015.117    
    111000   111000         617.57835      32727.855      24211.266      7246.7004      6662.1583      584.54216      2265.9015      3634.6349     -1861.7656      22.761418      330.48828     -1524.3061     -2283.1722     -356.05028      35542.608      32.878836      32.878836      32.878836      1.7529073      32863.025      31992.595      33327.945    
    112000   112000         619.44438      29280.788      22571.092      7268.8214      6682.2882      586.53325      2380.1883      3659.8476     -1847.1558      23.167902      175.15789     -1519.5723     -2285.1003     -353.15342      35834.159      32.968491      32.968491      32.968491      1.7386455      28671.16       30150.392      29020.813    
    113000   113000         598.02811      33638.931      24489.202      7024.5936      6451.2591      573.33453      2265.1275      3673.228      -1872.6553      22.703247      296.73721     -1529.4772     -2282.329      -355.48384      35599.244      32.89629       32.89629       32.89629       1.7501186      33614.735      35032.009      32270.049    
    114000   114000         601.392        29994.788      22899.074      7217.4948      6487.5473      729.94755      2513.0108      3609.4248     -1842.9098      22.191928      230.02955     -1513.9044     -2287.8953     -353.01448      35848.262      32.972816      32.972816      32.972816      1.7379615      27737.113      28133.788      34113.464    
    115000   115000         627.97783      30006.779      23076.227      7370.1256      6774.3432      595.78238      2281.6102      3777.2202     -1866.9094      22.619311      171.56372     -1510.1508     -2280.1709     -352.60422      35889.973      32.985599      32.985599      32.985599      1.7359416      29947.789      28864.664      31207.883    
    116000   116000         618.14923      31306.333      23486.227      7202.1385      6668.3167      533.8218       2244.5866      3617.7719     -1816.7186      20.925833      276.68522     -1522.9567     -2286.4726     -354.81769      35666.079      32.916864      32.916864      32.916864      1.746839       31747.116      32007.455      30164.429    
    117000   117000         594.42971      30501.317      23086.571      7178.718       6412.4411      766.27683      2349.0091      3828.4417     -1833.6448      22.130434      221.48798     -1533.1373     -2288.0103     -353.86984      35761.612      32.946228      32.946228      32.946228      1.7421725      29096.772      31797.109      30610.069    
    118000   118000         612.3931       29196.146      22511.68       7189.8788      6606.2221      583.65664      2301.4482      3782.6018     -1835.9907      21.293106      130.90667     -1531.1155     -2285.4869     -351.68368      35983.915      33.014354      33.014354      33.014354      1.7314097      29086.941      30449.877      28051.618    
    119000   119000         609.33723      32576.459      24216.615      7210.5325      6573.2568      637.27575      2322.8124      3703.1716     -1839.2917      22.461665      258.76907     -1539.3        -2291.3474     -353.53802      35795.176      32.956532      32.956532      32.956532      1.7405389      32728.356      31638.819      33362.201    
    120000   120000         612.258        30618.702      23207.551      7228.4492      6604.7647      623.68445      2327.003       3699.9893     -1851.9633      21.425552      240.37546     -1527.7424     -2285.4031     -353.64778      35784.066      32.953122      32.953122      32.953122      1.7410793      31107.421      28582.256      32166.43     
    121000   121000         603.42856      26708.341      21059.457      6970.4883      6509.5167      460.97161      2325.2655      3633.8756     -1824.6435      20.21013       123.60954     -1526.0542     -2291.2914     -349.86799      36170.659      33.071366      33.071366      33.071366      1.7224706      23501.692      30722.033      25901.298    
    122000   122000         603.97627      29891.561      22616.983      6947.6936      6515.4251      432.26847      2306.6874      3627.9457     -1820.5805      21.342983      113.20779     -1531.7017     -2284.6334     -352.07551      35943.868      33.002102      33.002102      33.002102      1.7333387      31247.246      29418.757      29008.682    
    123000   123000         597.9534       30358.77       22970.816      6982.4648      6450.4532      532.01167      2286.6255      3731.6769     -1836.878       21.784173      143.90727     -1527.7202     -2287.384      -350.44268      36111.343      33.053279      33.053279      33.053279      1.7253         31879.047      28720.216      30477.046    
    124000   124000         590.05389      29263.607      22454.721      7111.4458      6365.2368      746.20902      2451.3277      3696.389      -1812.0684      22.121957      212.22675     -1532.9954     -2290.7927     -352.00296      35951.277      33.004369      33.004369      33.004369      1.7329815      27258.495      32957.7        27574.626    
    125000   125000         598.01331      29589.061      22471.442      6878.377       6451.0995      427.27755      2291.9232      3600.8559     -1843.7232      21.566821      167.90374     -1525.7457     -2285.5031     -350.21619      36134.696      33.060402      33.060402      33.060402      1.7241849      28393.866      29739.764      30633.554    
    126000   126000         604.35317      26319.505      21030.363      7128.3311      6519.491       608.84009      2437.8558      3662.9985     -1843.608       21.363065      130.25534     -1522.2525     -2277.7721     -349.41051      36218.017      33.085794      33.085794      33.085794      1.7202184      25324.475      26535.882      27098.158    
    127000   127000         618.71342      30885.023      23554.972      7389.8631      6674.4029      715.46015      2434.8973      3673.8193     -1826.0982      21.90195       208.3974      -1515.2371     -2282.2205     -352.61909      35888.459      32.985135      32.985135      32.985135      1.7360149      31241.303      29395.781      32017.985    
    128000   128000         611.23534      28333.812      22117.097      7199.5156      6593.7327      605.78281      2447.0592      3623.0828     -1826.4045      21.262682      145.39089     -1520.9462     -2283.6621     -350.54446      36100.858      33.050079      33.050079      33.050079      1.725801       27861.116      30403.582      26736.739    
    129000   129000         616.73087      27678.434      21987.745      7375.4726      6653.016       722.45661      2414.8088      3700.03       -1822.792       20.525356      228.82793     -1532.3832     -2286.5603     -349.59103      36199.315      33.080098      33.080098      33.080098      1.7211071      30661.429      26995.483      25378.389    
    130000   130000         608.1774       29535.724      22861.751      7246.1372      6560.745       685.39216      2403.2307      3742.9938     -1835.747       21.932166      158.37204     -1522.9726     -2282.4169     -349.08008      36252.3        33.09623       33.09623       33.09623       1.7185916      29496.833      28952.538      30157.801    
    131000   131000         602.64149      28511.542      22080.823      7061.354       6501.0262      560.32779      2353.2125      3603.6364     -1833.7537      20.868915      240.1444      -1539.0346     -2284.7461     -350.35042      36120.852      33.05618       33.05618       33.05618       1.7248458      28786.997      30811.847      25935.781    
    132000   132000         609.23947      31518.426      23887.033      7217.0852      6572.2022      644.883        2298.3275      3696.1685     -1811.719       21.639863      252.6509      -1529.5564     -2282.6284     -348.9529       36265.512      33.10025       33.10025       33.10025       1.7179655      27845.4        35364.661      31345.217    
    133000   133000         604.6224       28885.1        22279.082      7032.5771      6522.3953      510.18181      2399.7721      3515.7305     -1822.8247      20.92704       207.38848     -1525.557      -2285.2546     -349.65528      36192.664      33.078072      33.078072      33.078072      1.7214234      27320.568      32208.378      27126.353    
    134000   134000         612.63418      27156.278      21468.404      7096.663       6608.8228      487.84015      2343.6421      3647.9118     -1854.5561      22.76938       152.92865     -1535.1953     -2289.6604     -348.73649      36288.017      33.107095      33.107095      33.107095      1.7169         28203.853      27222.206      26042.776    
    135000   135000         602.12889      25969.222      20919.437      7181.815       6495.4965      686.31855      2469.5494      3810.2662     -1865.4193      22.506249      66.14693      -1528.1878     -2288.5432     -348.88629      36272.436      33.102356      33.102356      33.102356      1.7176375      23411.585      27995.865      26500.217    
    136000   136000         631.12151      27728.187      21907.442      7228.5118      6808.2558      420.25599      2294.0467      3625.0152     -1854.4144      20.921741      150.06659     -1529.0039     -2286.376      -348.62905      36299.201      33.110496      33.110496      33.110496      1.7163711      28763.782      28658.943      25761.835    
    137000   137000         614.94586      27010.394      21447.811      7133.9616      6633.7602      500.2014       2425.9264      3621.4462     -1836.4996      21.576219      82.821632     -1528.2286     -2286.8409     -348.26594      36337.046      33.121999      33.121999      33.121999      1.7145834      25396.43       28189.217      27445.537    
    138000   138000         601.8498       27482.888      21615.501      6984.9356      6492.4857      492.44986      2335.7686      3738.5554     -1848.3562      22.794171      36.733357     -1512.7057     -2280.3398     -346.68718      36502.52       33.172201      33.172201      33.172201      1.7068109      28202.995      25063.416      29182.254    
    139000   139000         621.28212      27799.592      22097.909      7338.1499      6702.1129      636.03697      2422.8636      3764.9938     -1830.9904      22.301884      61.684409     -1522.1366     -2282.6798     -347.61272      36405.33       33.142733      33.142733      33.142733      1.7113675      27486.862      27823.993      28087.92     
    140000   140000         612.96768      28072.354      22001.958      7122.017       6612.4205      509.59647      2364.711       3793.6388     -1851.3999      23.345589     -8.217799      -1528.055      -2284.4261     -348.18827      36345.152      33.124462      33.124462      33.124462      1.714201       26909.936      27953.154      29353.971    
    141000   141000         603.28697      28380.638      22226.588      7059.5689      6507.9893      551.57958      2405.5175      3732.1369     -1860.691       21.095916      67.710522     -1529.3094     -2284.8808     -345.3492       36643.941      33.214985      33.214985      33.214985      1.7002237      29509.915      26435.177      29196.822    
    142000   142000         598.55626      27184.009      21364.052      6958.7639      6456.9565      501.80741      2361.7327      3690.2278     -1846.2127      21.81658       87.871818     -1524.9328     -2288.696      -348.27962      36335.619      33.121566      33.121566      33.121566      1.7146508      25058.286      29379.376      27114.365    
    143000   143000         600.50721      24933.237      20283.192      6980.555       6478.0025      502.55249      2394.2268      3767.57       -1886.9044      22.299028      19.642156     -1524.2018     -2290.0793     -345.92142      36583.325      33.19666       33.19666       33.19666       1.7030409      25991.612      24328.175      24479.923    
    144000   144000         613.46264      25058.36       20324.769      7004.9426      6617.7599      387.18265      2405.4917      3515.6723     -1845.5505      20.040012      91.908705     -1517.5003     -2282.8793     -347.2087       36447.692      33.155584      33.155584      33.155584      1.7093784      24506.684      28360.873      22307.523    
    145000   145000         605.12789      25370.796      20399.457      6826.6761      6527.8483      298.82781      2378.5798      3545.8954     -1863.8063      22.512576      19.546429     -1518.0053     -2285.8949     -344.98624      36682.494      33.226629      33.226629      33.226629      1.6984368      23375.224      25940.744      26796.422    
    146000   146000         606.19889      28008.897      21959.338      7022.6578      6539.4018      483.25603      2367.2142      3702.6014     -1857.9132      22.570799      67.361369     -1530.9078     -2287.6707     -346.08155      36566.399      33.191539      33.191539      33.191539      1.7038292      28044.916      30053.646      25928.128    
    147000   147000         613.2233       25741.379      20881.553      7112.2956      6615.178       497.11757      2407.3077      3656.1005     -1812.1138      21.32704       17.537762     -1512.8516     -2280.1901     -345.03077      36677.76       33.2252        33.2252        33.2252        1.698656       26065.665      23997.595      27160.878    
    148000   148000         621.22806      24826.04       20234.831      6961.602       6701.5298      260.07221      2328.2532      3561.8837     -1862.4807      22.581846      0.31936053    -1511.4816     -2279.0037     -345.19729      36660.067      33.219857      33.219857      33.219857      1.6994758      24415.826      26717.489      23344.805    
    149000   149000         610.3876       23104.666      19396.374      6977.4425      6584.5877      392.85482      2305.6023      3736.0976     -1844.7228      23.160627     -24.693031     -1517.9136     -2284.6763     -343.36181      36856.038      33.278945      33.278945      33.278945      1.6904394      23417.263      23562.091      22334.645    
    150000   150000         619.73573      25128.332      20321.963      6907.9473      6685.4312      222.51619      2314.5874      3510.9188     -1889.3709      21.813571      61.714357     -1510.8647     -2286.2824     -345.73342      36603.218      33.202676      33.202676      33.202676      1.7021153      25417.552      24406.171      25561.272    
    151000   151000         619.20416      26019.798      21040.524      7013.1457      6679.6968      333.4489       2356.5663      3654.692      -1831.5398      23.2051       -67.217558     -1512.9523     -2289.3049     -342.34495      36965.51       33.311861      33.311861      33.311861      1.6854332      25675.467      28729.727      23654.2      
    152000   152000         601.96511      21650.422      18516.453      6839.6616      6493.7296      345.93198      2424.2566      3676.4778     -1882.4063      23.526456     -99.900198     -1510.2791     -2285.7433     -342.19948      36981.224      33.316581      33.316581      33.316581      1.684717       19933.645      21092.062      23925.558    
    153000   153000         609.4294       25414.25       20574.474      6895.0587      6574.2511      320.80764      2276.2223      3693.3869     -1851.3458      22.654015     -30.029966     -1510.9853     -2279.0945     -342.88326      36907.476      33.29442       33.29442       33.29442       1.6880834      25517.236      24504.153      26221.361    
    154000   154000         614.24496      25570.154      20765.212      7029.9428      6626.1992      403.74358      2390.5535      3621.9359     -1859.266       21.014633      30.434453     -1516.528      -2284.4009     -343.5838       36832.225      33.271776      33.271776      33.271776      1.6915323      25809.431      24666.277      26234.753    
    155000   155000         604.42683      22579.55       18951.285      6787.7209      6520.2856      267.43531      2393.3263      3520.7314     -1801.32        21.937221     -69.141959     -1508.774      -2289.3237     -342.60285      36937.684      33.303501      33.303501      33.303501      1.6867029      24338.856      21534.467      21865.328    
    156000   156000         595.00635      25721.733      20636.244      6912.045       6418.6617      493.38325      2422.1067      3633.432      -1851.0273      22.212072      64.618704     -1512.7819     -2285.177      -345.89934      36585.66       33.197366      33.197366      33.197366      1.7029322      26648.083      24591.565      25925.55     
    157000   157000         612.28786      25036.402      20514.694      6954.856       6605.0869      349.7691       2347.3615      3671.9818     -1876.735       23.689148     -35.967984     -1498.0673     -2282.4931     -340.76418      37136.989      33.363292      33.363292      33.363292      1.6776507      25901.165      25142.152      24065.89     
    158000   158000         607.87033      21060.872      18235.684      6891.1914      6557.4325      333.75884      2375.9741      3624.7144     -1844.5848      22.945126     -36.552474     -1519.6057     -2289.1319     -342.6319       36934.552      33.30256       33.30256       33.30256       1.6868459      21945.459      20674.652      20562.505    
    159000   159000         606.94739      23955.237      19931.575      7038.7722      6547.4762      491.29601      2427.1481      3687.6438     -1826.9003      21.03097       2.3439609     -1529.3919     -2290.5787     -342.91751      36903.79       33.293311      33.293311      33.293311      1.688252       25335.459      22015.927      24514.326    
    160000   160000         595.74472      26001.64       20741.843      6692.0933      6426.6269      265.46634      2230.6983      3755.7884     -1853.4453      23.001174     -73.014536     -1527.3371     -2290.2246     -341.56131      37050.32       33.337318      33.337318      33.337318      1.6815752      27493.44       26024.412      24487.069    
    161000   161000         603.72864      23115.412      19339.42       6834.9822      6512.7538      322.22835      2371.8187      3629.7838     -1838.2241      20.176417     -52.994434     -1520.5009     -2287.8312     -341.17246      37092.547      33.349978      33.349978      33.349978      1.6796608      23092.908      21877.583      24375.744    
    162000   162000         591.66431      24092.992      19839.078      6850.331       6382.6092      467.72177      2367.6665      3736.2624     -1843.3398      23.414617     -8.0859535     -1517.1642     -2291.0318     -342.34184      36965.846      33.311962      33.311962      33.311962      1.6854179      23592.556      24764.89       23921.53     
    163000   163000         612.05039      23485.428      19738.624      6983.0758      6602.5252      380.55061      2412.2998      3645.2717     -1820.6834      20.899285     -80.018333     -1511.7985     -2285.4199     -339.80977      37241.294      33.394498      33.394498      33.394498      1.672952       24376.595      23193.87       22885.819    
    164000   164000         613.25863      22263.81       18876.738      6805.4545      6615.5591      189.89536      2172.6343      3689.212      -1854.4952      21.577889     -18.299079     -1531.6116     -2289.1229     -340.39452      37177.319      33.375365      33.375365      33.375365      1.6758308      24487.061      22023.303      20281.067    
    165000   165000         604.15871      20957.502      18368.021      6970.9411      6517.3932      453.5479       2459.5219      3701.8576     -1855.0787      22.167409     -76.277092     -1513.5269     -2285.1162     -339.37702      37288.782      33.408686      33.408686      33.408686      1.6708215      22298.631      20664.377      19909.498    
    166000   166000         604.86746      22108.429      18754.359      6779.7705      6525.039       254.73153      2384.4753      3600.4893     -1840.0032      21.646544     -110.08513     -1514.461      -2287.3303     -340.74839      37138.71       33.363807      33.363807      33.363807      1.677573       22473.466      22275.854      21575.966    
    167000   167000         616.02021      21631.524      18848.35       7080.3836      6645.3498      435.03382      2564.5927      3620.9269     -1820.9008      21.478668     -141.10833     -1520.3082     -2289.6472     -339.25183      37302.542      33.412795      33.412795      33.412795      1.6702051      19929.85       23485.857      21478.865    
    168000   168000         607.76224      20213.319      17835.208      6825.5069      6556.2665      269.24039      2430.0103      3522.5515     -1800.3728      19.680175     -106.91435     -1511.3733     -2284.3411     -338.84308      37347.541      33.426225      33.426225      33.426225      1.6681928      20278.071      22591.105      17770.781    
    169000   169000         615.49739      24221.655      20153.302      7016.5286      6639.7098      376.81878      2307.9406      3756.303      -1839.6176      23.363114     -69.507609     -1516.4668     -2285.196      -340.29192      37188.529      33.378719      33.378719      33.378719      1.6753257      26807.275      19137.214      26720.477    
    170000   170000         618.5046       22760.268      19472.818      6938.0464      6672.1502      265.89623      2437.4389      3640.1017     -1839.4567      21.802202     -178.17636     -1527.2579     -2288.5556     -335.11779      37762.71       33.549629      33.549629      33.549629      1.6498524      22670.327      22789.542      22820.936    
    171000   171000         601.73062      20850.057      18284.296      6867.1903      6491.2001      375.99022      2446.8756      3685.2414     -1809.6633      21.470174     -167.71009     -1513.886      -2286.3375     -337.04488      37546.797      33.485565      33.485565      33.485565      1.6593399      20970.619      18622.682      22956.871    
[...]
    255000   255000         614.60109      7526.972       11405.628      6731.5112      6630.041       101.47021      2510.3508      3662.5774     -1854.2556      23.036793     -446.18845     -1506.7922     -2287.2585     -297.2058       42579.774      34.919481      34.919481      34.919481      1.4632041      7438.7483      8030.264       7111.9037    
    256000   256000         598.33565      6427.8995      10411.783      6441.9434      6454.5766     -12.633243      2493.8492      3609.8383     -1864.0724      23.152283     -498.74025     -1494.8836     -2281.7768     -298.83578      42347.525      34.855877      34.855877      34.855877      1.4712288      7889.3539      5188.0974      6206.2473    
    257000   257000         611.93453      6222.6557      10588.801      6732.2116      6601.2753      130.93627      2524.1091      3706.3771     -1850.3019      23.925738     -486.07805     -1502.2617     -2284.834      -297.78915      42496.362      34.896665      34.896665      34.896665      1.466076       6908.5392      6018.3765      5741.0515    
    258000   258000         608.36274      6026.2122      10123.278      6373.5371      6562.7444     -189.20731      2462.3676      3600.1968     -1896.9878      23.675815     -596.75179     -1496.2308     -2285.4772     -296.60584      42665.903      34.94301       34.94301       34.94301       1.4602503      6996.3394      6349.3883      4732.9088    
    259000   259000         607.87423      9865.3768      12736.47       6597.8314      6557.4746      40.356786      2472.6328      3643.4215     -1859.7261      23.638164     -441.6773      -1512.4755     -2285.4567     -296.60479      42666.053      34.943051      34.943051      34.943051      1.4602452      9721.6457      10489.617      9384.8679    
    260000   260000         605.53887      7148.8207      10851.036      6388.4973      6532.2818     -143.78446      2479.5344      3533.4057     -1873.7622      23.42279      -508.9339      -1510.0297     -2287.4216     -295.65752      42802.752      34.98033       34.98033       34.98033       1.4555816      5776.8574      8520.599       7149.0058    
    261000   261000         623.6786       4010.3178      9438.9912      6928.9366      6727.9651      200.97154      2548.7677      3811.6604     -1870.7867      24.448694     -535.42364     -1494.0911     -2283.6039     -294.87106      42916.914      35.011401      35.011401      35.011401      1.4517096      3690.2234      3846.396       4494.334     
    262000   262000         607.41916      8080.7439      11603.305      6578.2506      6552.5656      25.685015      2468.7671      3663.0811     -1875.6849      24.52472      -477.18565     -1495.1839     -2282.6335     -296.78853      42639.64       34.935839      34.935839      34.935839      1.4611497      7064.9976      8921.3124      8255.9217    
    263000   263000         612.44768      5322.0296      9886.122       6562.7421      6606.8109     -44.068793      2413.7922      3617.8831     -1853.2315      23.124494     -455.87418     -1499.2512     -2290.5117     -295.55194      42818.043      34.984495      34.984495      34.984495      1.4550618      4723.8409      3354.3258      7887.9222    
    264000   264000         623.41327      7548.8405      11584.089      6815.5092      6725.1028      90.406449      2524.7231      3726.5398     -1875.4078      25.234081     -531.75853     -1490.5277     -2288.3965     -292.16466      43314.464      35.119176      35.119176      35.119176      1.4383855      6362.0578      7525.3243      8759.1393    
    265000   265000         603.56566      4964.3477      9765.1745      6626.7335      6510.9957      115.73779      2497.393       3776.6827     -1855.5075      24.852475     -540.13301     -1502.7538     -2284.796      -291.93404      43348.682      35.128421      35.128421      35.128421      1.4372501      5174.4722      6483.3568      3235.2141    
    266000   266000         596.34994      5975.3159      10326.394      6528.7646      6433.1557      95.608924      2484.0259      3701.7185     -1886.4805      25.058508     -435.94962     -1506.4462     -2286.3175     -290.39212      43578.854      35.190486      35.190486      35.190486      1.4296589      8921.3698      5501.9251      3502.6526    
    267000   267000         606.11619      6436.9159      10813.331      6727.9495      6538.5097      189.43977      2560.264       3702.1606     -1881.4331      23.486619     -417.90858     -1504.4887     -2292.6411     -290.79151      43519          35.174368      35.174368      35.174368      1.4316252      5699.0676      5429.0544      8182.6255    
    268000   268000         608.66024      4878.7731      9736.0837      6617.6705      6565.9537      51.716797      2539.1273      3688.7798     -1908.4132      22.859225     -498.86097     -1505.3429     -2286.4324     -288.74434      43827.546      35.2573        35.2573        35.2573        1.4215466      7195.035       744.72972      6696.5547    
    269000   269000         604.18342      5456.3218      10159.716      6657.1678      6517.6598      139.508        2526.5003      3683.6165     -1842.8064      23.783547     -463.03165     -1504.6588     -2283.8955     -287.50965      44015.76       35.307698      35.307698      35.307698      1.415468       6839.5375      5804.1891      3725.2388    
    270000   270000         615.1439       5175.7411      9933.9677      6559.4346      6635.8965     -76.461913      2526.1619      3598.7517     -1894.4581      22.337903     -547.33751     -1497.4647     -2284.4531     -283.071        44705.943      35.491287      35.491287      35.491287      1.3936156      2816.2083      6110.5006      6600.5145    
    271000   271000         612.64286      5774.1666      10469.541      6735.7218      6608.9164      126.80542      2531.2493      3709.9169     -1855.9404      23.843814     -491.92292     -1502.0707     -2288.2705     -285.41222      44339.222      35.393976      35.393976      35.393976      1.4051419      5496.177       6894.4804      4931.8423    
    272000   272000         616.94133      5170.2054      10143.507      6801.3075      6655.2864      146.02114      2495.41        3799.6626     -1897.8424      26.116429     -489.81045     -1502.5748     -2284.9402     -285.5038       44324.999      35.390191      35.390191      35.390191      1.4055928      4071.7769      4944.5441      6494.2951    
    273000   273000         599.27956      3857.7156      9046.1275      6543.1273      6464.7592      78.368142      2552.7833      3706.6155     -1850.282       23.832881     -576.97989     -1493.1167     -2284.485      -284.44994      44489.219      35.433843      35.433843      35.433843      1.4004044      3876.1699      2672.7698      5024.2073    
    274000   274000         613.50645      3515.927       9019.9697      6724.5207      6618.2325      106.28819      2558.9341      3676.3103     -1873.7067      23.177479     -509.31072     -1489.3764     -2279.7399     -282.68888      44766.372      35.507272      35.507272      35.507272      1.3917343      2241.8355      2592.1519      5713.7938    
    275000   275000         605.45704      4543.5822      9677.9814      6689.0523      6531.399       157.65327      2569.809       3721.807      -1883.8702      24.253974     -476.67114     -1510.1514     -2287.524      -280.55583      45106.729      35.597031      35.597031      35.597031      1.3812329      5535.2169      4614.0358      3481.4939    
    276000   276000         607.8107       3333.8831      8839.8625      6658.5323      6556.7893      101.74301      2572.9752      3656.9548     -1876.8591      24.806806     -481.43825     -1505.681      -2289.0155     -282.07557      44863.707      35.532987      35.532987      35.532987      1.3887149      1462.2644      3726.4673      4812.9177    
    277000   277000         615.47886      4046.232       9224.426       6556.7549      6639.51       -82.755087      2475.0925      3566.0503     -1865.5264      24.464698     -509.12162     -1496.3422     -2277.3723     -279.93359      45206.993      35.623387      35.623387      35.623387      1.3781695      2241.3601      4578.0782      5319.2577    
    278000   278000         621.89592      3609.3494      9106.8465      6707.1828      6708.7343     -1.5514334      2462.6297      3679.5539     -1867.007       24.069968     -529.18247     -1495.7132     -2275.9024     -277.59719      45587.478      35.723049      35.723049      35.723049      1.3666669      5223.6013      2635.8682      2968.5787    
    279000   279000         611.59369      3044.0545      8768.9365      6737.8784      6597.5984      140.27993      2595.3741      3616.8112     -1836.2646      22.453661     -506.52641     -1482.7779     -2268.7902     -276.60918      45750.31       35.765531      35.765531      35.765531      1.3618027      2387.3232      4284.6145      2460.2257    
    280000   280000         600.97615      4003.4241      9289.1518      6632.2567      6483.0612      149.19552      2545.1552      3638.5        -1867.0677      23.466279     -414.02748     -1504.438      -2272.3928     -278.09534      45505.817      35.701706      35.701706      35.701706      1.3691194      4138.1911      1446.403       6425.6781    
    281000   281000         601.88125      2669.0749      8396.7942      6596.33        6492.825       103.50501      2578.1828      3648.1094     -1889.4053      24.128635     -488.18898     -1494.3681     -2274.9535     -273.59793      46253.844      35.896266      35.896266      35.896266      1.3469777      1043.2115      2227.5614      4736.4519    
    282000   282000         618.01615      1574.7044      7848.2566      6792.8369      6666.8811      125.95579      2601.2663      3680.6995     -1903.0212      24.500473     -496.87379     -1496.8438     -2283.7717     -275.36603      45956.852      35.819272      35.819272      35.819272      1.3556825      903.90611      1769.3273      2050.8798    
    283000   283000         591.82585      1545.93        7501.5792      6449.5501      6384.3519      65.198181      2525.4106      3709.9899     -1894.1808      24.312639     -507.77954     -1504.6651     -2287.8896     -271.20557      46661.858      36.001507      36.001507      36.001507      1.3351997      1345.1568      3287.7272      4.9060506    
    284000   284000         610.84626      2061.3283      8134.5326      6726.2899      6589.5356      136.75428      2658           3629.9746     -1867.5978      25.120042     -539.17953     -1491.4857     -2278.0774     -270.15073      46844.055      36.048303      36.048303      36.048303      1.3300065      1908.2575      653.83199      3621.8953    
    285000   285000         608.80385      1103.6325      7446.567       6695.9218      6567.5029      128.41897      2593.1853      3610.1331     -1904.0343      24.337648     -445.28109     -1481.1423     -2268.7794     -271.34781      46637.397      35.995215      35.995215      35.995215      1.3359         288.46119     -170.80824      3193.2447    
    286000   286000         631.6785       1291.9195      7889.7713      7002.4208      6814.2644      188.15641      2600.5983      3693.8515     -1880.9229      23.777686     -491.84585     -1482.2017     -2275.1007     -268.70564      47095.981      36.11281       36.11281       36.11281       1.322892       907.25552      1945.3043      1023.1986    
    287000   287000         616.29831      3026.6489      8816.3155      6738.517       6648.3498      90.167237      2619.9409      3557.1268     -1883.1965      22.062242     -462.76828     -1489.7633     -2273.2347     -268.84078      47072.307      36.106758      36.106758      36.106758      1.3235573      873.80177      2852.1832      5353.9619    
    288000   288000         606.12935      1648.476       7862.2341      6711.2758      6538.6516      172.6242       2543.6678      3706.7665     -1882.3447      24.157158     -480.4795      -1472.1046     -2267.0385     -264.33798      47874.148      36.310622      36.310622      36.310622      1.3013892      2319.6155      1974.2163      651.59632    
    289000   289000         599.89832      715.76303      7104.9286      6607.8539      6471.4341      136.41979      2612.6607      3604.6626     -1909.5581      21.994416     -438.97234     -1482.0007     -2272.3668     -265.75662      47618.591      36.245897      36.245897      36.245897      1.3083734      260.52811     -452.45851      2339.2195    
    290000   290000         608.83639      2893.6216      8700.4429      6676.5836      6567.854       108.72957      2549.935       3628.3425     -1877.9943      24.165078     -441.40062     -1498.9873     -2275.3308     -263.8748       47958.181      36.331855      36.331855      36.331855      1.2991089      1322.867       1523.2882      5834.7095    
    291000   291000         615.70443      2467.2528      8318.6416      6583.9946      6641.9433     -57.948733      2557.1014      3491.3712     -1916.0664      23.773962     -435.30595     -1494.8135     -2284.0095     -262.50589      48208.273      36.3949        36.3949        36.3949        1.2923694      2850.0372      1797.8483      2753.873     
    292000   292000         613.20003      1652.0561      8001.7448      6835.301       6614.927       220.37405      2645.5104      3614.5454     -1884.3476      24.062047     -411.481       -1487.583      -2280.3322     -261.39512      48413.129      36.446379      36.446379      36.446379      1.2869009      1011.1031      1342.9359      2602.1293    
    293000   293000         622.6639       2004.7686      8352.9566      6938.6797      6717.0189      221.6608       2630.8612      3606.2994     -1856.2042      21.843292     -412.01585     -1490.4366     -2278.6864     -261.61723      48372.028      36.436062      36.436062      36.436062      1.2879943      1678.7088      1001.5627      3334.0344    
    294000   294000         619.36369      1482.1977      8019.9904      6963.0548      6681.4177      281.63712      2655.3919      3656.018      -1889.8835      24.911114     -410.6643      -1481.1143     -2273.0218     -258.8178       48895.23       36.566958      36.566958      36.566958      1.2742122      892.60867      1131.2338      2422.7507    
    295000   295000         606.36755      1337.2872      7766.7454      6788.2068      6541.2212      246.98553      2564.67        3700.2688     -1912.8787      23.808169     -382.6331      -1477.4421     -2268.8075     -252.22216      50173.845      36.882962      36.882962      36.882962      1.2417405      3038.1908      1739.9304     -766.25967    
    296000   296000         598.45265      12.092961      6700.2251      6691.4331      6455.8388      235.59426      2526.7454      3681.4892     -1883.4852      24.835814     -374.67371     -1470.2229     -2269.0943     -253.85155      49851.797      36.80388       36.80388       36.80388       1.2497623      7.9862248      253.20526     -224.9126     
    297000   297000         608.85784     -1182.3254      6209.8981      7076.5569      6568.0853      508.47152      2677.1669      3734.6717     -1859.8614      23.996963     -333.41151     -1468.53       -2265.5611     -251.78243      50261.474      36.904422      36.904422      36.904422      1.2395756      821.8645      -1478.1986     -2890.6422    
    298000   298000         596.36475      1048.7383      7732.6705      6940.4875      6433.3155      507.17192      2519.6083      3745.7281     -1847.913       25.818323     -221.89311     -1455.9304     -2258.2463     -244.33073      51794.368      37.275846      37.275846      37.275846      1.2028894      2208.0046      1218.8919     -280.6816     
    299000   299000         605.85373     -338.0186       6686.6301      6944.7724      6535.6784      409.09407      2516.0307      3669.3411     -1869.7746      24.389975     -220.32945     -1457.4839     -2253.0797     -241.66732      52365.192      37.412285      37.412285      37.412285      1.1897769     -2509.7387      221.10434      1274.5786    
    300000   300000         617.57644     -97.760842      7113.9249      7189.743       6662.1377      527.60536      2678.9703      3604.2728     -1843.6198      23.735562     -206.42877     -1469.6045     -2259.7202     -237.97335      53178.038      37.604871      37.604871      37.604871      1.1715908     -818.83161      339.7062       185.84288    
Loop time of 554.048 on 1 procs for 300000 steps with 3620 atoms

Performance: 46.783 ns/day, 0.513 hours/ns, 541.469 timesteps/s, 1.960 Matom-step/s
100.0% CPU use with 1 MPI tasks x 1 OpenMP threads

MPI task timing breakdown:
Section |  min time  |  avg time  |  max time  |%varavg| %total
---------------------------------------------------------------
Pair    | 42.833     | 42.833     | 42.833     |   0.0 |  7.73
Bond    | 62.728     | 62.728     | 62.728     |   0.0 | 11.32
Kspace  | 263.05     | 263.05     | 263.05     |   0.0 | 47.48
Neigh   | 73.539     | 73.539     | 73.539     |   0.0 | 13.27
Comm    | 9.5278     | 9.5278     | 9.5278     |   0.0 |  1.72
Output  | 1.5663     | 1.5663     | 1.5663     |   0.0 |  0.28
Modify  | 89.495     | 89.495     | 89.495     |   0.0 | 16.15
Other   |            | 11.31      |            |       |  2.04

Nlocal:           3620 ave        3620 max        3620 min
Histogram: 1 0 0 0 0 0 0 0 0 0
Nghost:          11552 ave       11552 max       11552 min
Histogram: 1 0 0 0 0 0 0 0 0 0
Neighs:              0 ave           0 max           0 min
Histogram: 1 0 0 0 0 0 0 0 0 0
FullNghs:  1.56269e+06 ave 1.56269e+06 max 1.56269e+06 min
Histogram: 1 0 0 0 0 0 0 0 0 0

Total # of neighbors = 1562688
Ave neighs/atom = 431.68177
Ave special neighs/atom = 5.9723757
Neighbor list builds = 12946
Dangerous builds = 0

# --- Cleanup ---
unfix npt_fix

undump dump_npt

# --- Write Output ---
write_dump all custom npt_pppm_last.dump id type mol x y z xu yu zu vx vy vz modify sort id
write_data /home/alexzhao/PolyJarvis/data/PVC3/lammps/equil/npt_pppm/npt_pppm_out.data
System init for write_data ...
PPPM Kokkos initialization ...
  using 12-bit tables for long-range coulomb
  G vector (1/distance) = 0.29476535
  grid = 25 25 25
  stencil order = 5
  estimated absolute RMS force accuracy = 0.00036168639
  estimated relative force accuracy = 1.0892078e-06
  using double precision cuFFT
  3d grid and FFT values/proc = 32768 15625
Generated 6 of 6 mixed pair_coeff terms from sixthpower/sixthpower mixing rule

print "STAGE COMPLETE: NPT T=610.0->610.0K P=50000.0->1.0atm steps=300000"
STAGE COMPLETE: NPT T=610.0->610.0K P=50000.0->1.0atm steps=300000
quit
|       |  2.04

Nlocal:           3620 ave        3620 max        3620 min
Histogram: 1 0 0 0 0 0 0 0 0 0
Nghost:          11552 ave       11552 max       11552 min
Histogram: 1 0 0 0 0 0 0 0 0 0
Neighs:              0 ave           0 max           0 min
Histogram: 1 0 0 0 0 0 0 0 0 0
FullNghs:  1.56269e+06 ave 1.56269e+06 max 1.56269e+06 min
Histogram: 1 0 0 0 0 0 0 0 0 0

Total # of neighbors = 1562688
Ave neighs/atom = 431.68177
Ave special neighs/atom = 5.9723757
Neighbor list builds = 12946
Dangerous builds = 0
System init for write_data ...
PPPM Kokkos initialization ...
  using 12-bit tables for long-range coulomb
  G vector (1/distance) = 0.29476535
  grid = 25 25 25
  stencil order = 5
  estimated absolute RMS force accuracy = 0.00036168639
  estimated relative force accuracy = 1.0892078e-06
  using double precision cuFFT
  3d grid and FFT values/proc = 32768 15625
Generated 6 of 6 mixed pair_coeff terms from sixthpower/sixthpower mixing rule
STAGE COMPLETE: NPT T=610.0->610.0K P=50000.0->1.0atm steps=300000
