units real
atom_style full
boundary p p p

# --- Force Field (injected via PAIR_STYLE_BLOCK) ---
pair_style lj/cut 14.0
dielectric 1.000000
bond_style harmonic
angle_style harmonic
dihedral_style multi/harmonic
improper_style none
special_bonds lj 0 0 0
pair_modify mix arithmetic tail yes
neighbor 2.0 bin
neigh_modify delay 0 every 1 check yes
neigh_modify one 4000
# GPU disabled (CPU run)

read_data /home/arz2/PolyJarvis/data/cis-PBD4/lammps/equil/nvt_softheat/nvt_softheat_out.data
Reading data file ...
  orthogonal box = (0 0 0) to (68.178378 68.178378 68.178378)
  2 by 2 by 2 MPI processor grid
  reading atoms ...
  8040 atoms
  reading velocities ...
  8040 velocities
  scanning bonds ...
  2 = max bonds/atom
  scanning angles ...
  1 = max angles/atom
  scanning dihedrals ...
  2 = max dihedrals/atom
  orthogonal box = (0 0 0) to (68.178378 68.178378 68.178378)
  2 by 2 by 2 MPI processor grid
  reading bonds ...
  8020 bonds
  reading angles ...
  8000 angles
  reading dihedrals ...
  7980 dihedrals
Finding 1-2 1-3 1-4 neighbors ...
  special bond factors lj:    0        0        0       
  special bond factors coul:  0        0        0       
     2 = max # of 1-2 neighbors
     2 = max # of 1-3 neighbors
     4 = max # of 1-4 neighbors
     6 = max # of special neighbors
  special bonds CPU = 0.001 seconds
  read_data CPU = 0.121 seconds
include /home/arz2/PolyJarvis/data/cis-PBD4/lammps/equil/emc_build.params
# LAMMPS parameters created by EMC v9.4.4, build Jul 31 2025 20:33:44

# Variables

variable	seed		index	482913
variable	ntotal		index	8040
variable	fshape		index	1
variable	output		index	emc_build
variable	field		index	trappe/2014/trappe-ua
variable	location1	index	/home/arz2/emc/field/
variable	nav		index	0.6022141179
variable	temperature	index	300
variable	radius		index	5
variable	nrelax		index	100
variable	weight_nonbond	index	0.0001
variable	weight_bond	index	0.0001
variable	weight_focus	index	1
variable	cutoff		index	14
variable	charge_cutoff	index	14
variable	kappa		index	4
variable	density1	index	0.57
variable	lprevious	index	0
variable	lphase		index	68.1783775471
variable	f_poly		index	20
variable	chem_repeat	index	*C/C=C\C*
variable	chem_cap	index	*C
variable	lg_repeat	index	4
variable	lg_cap		index	1
variable	norm_poly	index	100
variable	l_poly		index	402
variable	mg_repeat	index	54.0914
variable	mg_cap		index	15.0347
variable	m_poly		index	5439.2094
variable	n_poly		index	20
variable	mtotal		index	108784.188
variable	nphase1		index	8040
variable	mphase1		index	108784.188
variable	vphase1		index	316912.949994
variable	lbox		index	68.1783775471
variable	lphase1		index	68.1783775471
variable	lxx		index	68.1783775471
variable	lyy		index	68.1783775471
variable	lzz		index	68.1783775471
variable	lzy		index	0
variable	lzx		index	0
variable	lyx		index	0
variable	vtotal		index	316912.949994
variable	nl_poly		index	20

# Types

variable	type_c3h	index	1
variable	type_c4h2	index	2
variable	type_c4h3	index	3

variable	type_bond_c3h_c3h index	1
variable	type_bond_c3h_c4h2 index	2
variable	type_bond_c4h2_c4h2 index	3
variable	type_bond_c4h2_c4h3 index	4

variable	type_angle_c3h_c3h_c4h2 index	1
variable	type_angle_c3h_c4h2_c4h2 index	2
variable	type_angle_c3h_c4h2_c4h3 index	3

# Clusters

variable	n0_poly		index	1
variable	n1_poly		index	20
variable	nl_poly		index	20

# Flags

variable	flag_charged	index	0

# Masses

mass		1    13.01890  # c3h
mass		2    14.02680  # c4h2
mass		3    15.03470  # c4h3

# Potentials

pair_modify	mix arithmetic tail yes
special_bonds	lj 0 0 0 coul 0 0 0.5
Finding 1-2 1-3 1-4 neighbors ...
  special bond factors lj:    0        0        0       
  special bond factors coul:  0        0        0.5     
     2 = max # of 1-2 neighbors
     2 = max # of 1-3 neighbors
     4 = max # of 1-4 neighbors
     6 = max # of special neighbors
  special bonds CPU = 0.001 seconds

# Pair Coeffs

pair_coeff	1 1    0.09340    3.71000  # c3h,c3h
pair_coeff	2 2    0.09141    3.95000  # c4h2,c4h2
pair_coeff	3 3    0.19475    3.75000  # c4h3,c4h3

# Bond Coeffs

bond_coeff	1  529.99987    1.33000  # c3h,c3h
bond_coeff	2  260.00013    1.54000  # c3h,c4h2
bond_coeff	3  260.00013    1.54000  # c4h2,c4h2
bond_coeff	4  260.00013    1.54000  # c4h2,c4h3

# Angle Coeffs

angle_coeff	1   69.96954  119.70000  # c3h,c3h,c4h2
angle_coeff	2   62.10020  114.00000  # c3h,c4h2,c4h2
angle_coeff	3   62.10020  114.00000  # c3h,c4h2,c4h3

# Dihedral Coeffs

dihedral_coeff	1    1.91086    1.85422    0.43627   -2.24348    0.00000  # c3h,c3h,c4h2,c4h2
dihedral_coeff	2    1.91086    1.85422    0.43627   -2.24348    0.00000  # c3h,c3h,c4h2,c4h3
dihedral_coeff	3    2.00702   -4.01203    0.27102    6.29006    0.00000  # c3h,c4h2,c4h2,c3h
dihedral_coeff	4   25.63496    0.99360  -25.63496   -0.99360    0.00000  # c4h2,c3h,c3h,c4h2


# --- Thermo Output ---
thermo_style custom step time temp press enthalpy etotal ke pe ebond eangle edihed eimp evdwl ecoul vol lx ly lz density pxx pyy pzz
thermo_modify flush yes
thermo 1000

# --- Trajectory ---
dump dump_comp all custom 2000 npt_compress.dump id type mol x y z ix iy iz vx vy vz

restart 10000 compress_1.rst compress_2.rst
velocity all create 600.0 614287 mom yes rot yes dist gaussian
# SHAKE disabled (TraPPE-UA united-atom)

# --- NPT Compression ---
# High pressure compresses the cell from low to target density
# P ramp: 1.0 -> 50000.0 atm
timestep 0.5
fix npt_comp all npt temp 480.0 480.0 100.0 iso 1.0 50000.0 1000.0

run 500000
Generated 3 of 3 mixed pair_coeff terms from arithmetic mixing rule
Neighbor list info ...
  update: every = 1 steps, delay = 0 steps, check = yes
  max neighbors/atom: 4000, page size: 100000
  master list distance cutoff = 16
  ghost atom cutoff = 16
  binsize = 8, bins = 9 9 9
  1 neighbor lists, perpetual/occasional/extra = 1 0 0
  (1) pair lj/cut, perpetual
      attributes: half, newton on
      pair build: half/bin/newton
      stencil: half/bin/3d
      bin: standard
Per MPI rank memory allocation (min/avg/max) = 7.946 | 8.77 | 9.115 Mbytes
   Step          Time           Temp          Press         Enthalpy        TotEng         KinEng         PotEng         E_bond        E_angle        E_dihed        E_impro         E_vdwl         E_coul         Volume           Lx             Ly             Lz          Density          Pxx            Pyy            Pzz      
         0   0              600            259.5349       26699.891      25500.36       14377.639      11122.72       3795.0319      3770.7316      10013.457      0             -6456.5001      0              316912.95      68.178378      68.178378      68.178378      0.56999999     420.4027       56.135186      302.06682    
      1000   500            479.15544     -111.79967      21973.201      22477.467      11481.873      10995.594      3718.1128      3749.9658      10089.397      0             -6561.8823      0              309274.02      67.626121      67.626121      67.626121      0.58407874     85.519752     -499.97377      79.055001    
      2000   1000           479.66149      307.02879      24019.848      22666.725      11494          11172.725      3910.1211      3840.9092      10137.667      0             -6715.972       0              302191.71      67.105922      67.105922      67.105922      0.59776749     367.15224     -15.583584      569.5177     
      3000   1500           480.95633      158.3735       23058.305      22380.889      11525.028      10855.861      3823.1737      3765.5237      10114.348      0             -6847.1846      0              293289.82      66.440414      66.440414      66.440414      0.61591083     619.08055     -457.14455      313.18452    
      4000   2000           478.47996      35.679764      22251.588      22103.54       11465.687      10637.853      3761.3453      3679.4589      10154.932      0             -6957.883       0              284514.48      65.771053      65.771053      65.771053      0.6349075     -7.5573554      139.76734     -25.170687    
      5000   2500           475.74025      355.62537      23496.098      22056.969      11400.036      10656.933      3723.5413      3899.1333      10105.792      0             -7071.5333      0              277479.67      65.224444      65.224444      65.224444      0.65100402     451.91152      736.20422     -121.23963    
      6000   3000           487.92082      54.509815      22473.439      22259.124      11691.916      10567.208      3759.7207      3761.7848      10144.768      0             -7099.0651      0              269589.28      64.600251      64.600251      64.600251      0.67005772     207.41796      125.16495     -169.05346    
      7000   3500           476.3873      -13.91901       21749.69       21802.701      11415.541      10387.16       3799.8142      3696.3399      10119.506      0             -7228.5004      0              261146.41      63.918712      63.918712      63.918712      0.69172071     298.39444     -140.62019     -199.53128    
      8000   4000           480.94495      417.88488      23177.541      21643.301      11524.755      10118.546      3699.5566      3617.7399      10093.351      0             -7292.1012      0              251744.85      63.142271      63.142271      63.142271      0.71755341     317.98649      519.89953      415.76863    
      9000   4500           486.31254      721.37291      24039.112      21472.547      11653.377      9819.1703      3574.0029      3655.5146      10001.401      0             -7411.7484      0              243958.83      62.484483      62.484483      62.484483      0.74045434     867.39138      712.68205      584.04531    
     10000   5000           476.92615      71.809503      21787.819      21540.695      11428.453      10112.241      3723.9116      3779.8897      10108.27       0             -7499.8295      0              235970.32      61.794876      61.794876      61.794876      0.76552159     267.8661      -18.877168     -33.560421    
     11000   5500           478.31437      1423.1407      26077.3        21330.009      11461.719      9868.2896      3654.1838      3667.2071      10174.395      0             -7627.4968      0              228729.52      61.156235      61.156235      61.156235      0.78975542     1397.9415      1486.6332      1384.8472    
     12000   6000           477.30136      1191.266       24964.332      21098.129      11437.445      9660.6847      3580.345       3673.198       10156.43       0             -7749.2885      0              222535.88      60.599171      60.599171      60.599171      0.81173598     1151.5312      1801.4429      620.82379    
     13000   6500           489.06874      2184.6342      28193.798      21290.091      11719.423      9570.6682      3639.3658      3578.4204      10175.062      0             -7822.1804      0              216684.42      60.063306      60.063306      60.063306      0.8336565      2115.0921      2220.1621      2218.6486    
     14000   7000           487.20056      1632.5221      26564.447      21489.157      11674.656      9814.5009      3633.4809      3793.8683      10258.183      0             -7871.0312      0              213169.92      59.736802      59.736802      59.736802      0.84740089     2300.4141      879.71049      1717.4417    
     15000   7500           479.37917      692.94128      23218.125      21093.892      11487.235      9606.6576      3688.3972      3708.6434      10244.681      0             -8035.0643      0              210198.55      59.457946      59.457946      59.457946      0.85937975     853.71498      1210.0441      15.064768    
     16000   8000           476.73829      1938.8399      26683.579      20843.736      11423.952      9419.7836      3591.9822      3763.7244      10195.966      0             -8131.8886      0              206530.1       59.110021      59.110021      59.110021      0.87464433     1674.8035      2351.8129      1789.9033    
     17000   8500           481.71565      1555.2937      25618.291      20936.424      11543.223      9393.2008      3587.334       3752.9689      10189.572      0             -8136.6742      0              206410.05      59.098566      59.098566      59.098566      0.87515302     1483.3399      1609.798       1572.7432    
     18000   9000           476.33654      1495.8796      25441.5        20954.332      11414.325      9540.0074      3676.7933      3784.4779      10328.957      0             -8250.2205      0              205683.65      59.029158      59.029158      59.029158      0.87824375     2006.0776      1191.2779      1290.2832    
     19000   9500           483.20805      1980.1265      26966.583      21119.044      11578.985      9540.059       3748.9518      3774.5542      10285.148      0             -8268.5946      0              202490.32      58.722079      58.722079      58.722079      0.89209387     2168.6148      1835.8557      1935.9091    
     20000   10000          482.19513      1685.6476      25931.271      20976.824      11554.713      9422.1111      3646.9562      3753.5423      10343.784      0             -8322.1713      0              201535.96      58.629679      58.629679      58.629679      0.89631833     1974.3533      1051.8307      2030.759     
     21000   10500          482.86116      2177.5533      27048.84       20681.059      11570.672      9110.3861      3555.0111      3716.2419      10234.301      0             -8395.1674      0              200513.42      58.530354      58.530354      58.530354      0.90088921     2050.2753      2063.4684      2418.9162    
     22000   11000          481.5883       3320.6851      30460.327      20731.961      11540.171      9191.7896      3606.5095      3800.1559      10200.359      0             -8415.2352      0              200879.82      58.565983      58.565983      58.565983      0.89924602     3532.8136      3020.6837      3408.5581    
     23000   11500          478.69804      1858.0494      26119.504      20724.703      11470.913      9253.7902      3587.3566      3778.8024      10313.187      0             -8425.5555      0              199086.73      58.391205      58.391205      58.391205      0.90734517     1788.2056      2284.6465      1501.2962    
     24000   12000          486.50264      2633.6634      28370.584      20763.056      11657.932      9105.1234      3606.9932      3724.5492      10299.26       0             -8525.6794      0              198064.86      58.29113       58.29113       58.29113       0.91202639     2743.7753      2385.2437      2771.9712    
     25000   12500          475.83867      3077.2649      29431.368      20576.617      11402.394      9174.2231      3669.9922      3820.7685      10223.826      0             -8540.364       0              197303.86      58.21638       58.21638       58.21638       0.91554407     3110.5752      2793.0198      3328.1997    
     26000   13000          474.96721      2399.6184      27349.087      20477.788      11381.512      9096.2762      3638.6992      3796.1984      10265.079      0             -8603.7007      0              196345.41      58.12196       58.12196       58.12196       0.92001324     2509.0738      1816.8328      2872.9485    
     27000   13500          481.45147      1800.0229      25713.941      20569.146      11536.893      9032.2532      3663.2554      3809.7007      10117.745      0             -8558.4482      0              195981.1       58.08599       58.08599       58.08599       0.92172346     1723.4625      2348.9548      1327.6514    
     28000   14000          474.75138      2866.5289      28637.098      20541.85       11376.34       9165.5101      3697.2493      3873.0401      10250.618      0             -8655.3971      0              193641.27      57.8539        57.8539        57.8539        0.93286096     2305.117       3099.7438      3194.7258    
     29000   14500          477.44629      3047.1548      29130.04       20488.825      11440.917      9047.9074      3646.1463      3852.6441      10225.204      0             -8676.0871      0              194448.42      57.934172      57.934172      57.934172      0.92898866     2032.6935      4264.5687      2844.2022    
     30000   15000          481.44941      2999.1294      29105.447      20642.391      11536.843      9105.548       3793.8325      3760.6722      10245.379      0             -8694.3361      0              193488.93      57.838724      57.838724      57.838724      0.93359543     2872.3565      3318.9626      2806.0691    
     31000   15500          478.55681      3067.1799      29272.225      20645.693      11467.529      9178.1648      3743.7835      3842.8555      10201.459      0             -8609.9335      0              192850.63      57.775054      57.775054      57.775054      0.93668542     3150.0548      2699.7382      3351.7468    
     32000   16000          481.39589      2980.0095      29030.104      20651.74       11535.561      9116.179       3706.9211      3782.7052      10298.868      0             -8672.3157      0              192781.65      57.768163      57.768163      57.768163      0.93702063     3213.0962      3364.1262      2362.8062    
     33000   16500          488.04015      3306.6794      29849.369      20627.619      11694.775      8932.844       3612.3147      3764.7228      10241.53       0             -8685.7236      0              191225.3       57.612287      57.612287      57.612287      0.94464685     3331.2681      4008.2197      2580.5504    
     34000   17000          482.80233      3172.1989      29421.093      20499.591      11569.263      8930.3282      3641.2417      3811.9201      10194.076      0             -8716.91        0              192842.03      57.774194      57.774194      57.774194      0.93672723     3336.2175      3157.2493      3023.1301    
     35000   17500          477.72565      3489.6581      30088.152      20376.31       11447.612      8928.6984      3701.6589      3787.1774      10189.475      0             -8749.6128      0              190828.32      57.572392      57.572392      57.572392      0.94661201     3566.6802      3125.2785      3777.0155    
     36000   18000          473.21137      3373.6946      29553.14       20214.959      11339.437      8875.5219      3670.1272      3819.1031      10122.217      0             -8735.9257      0              189793.19      57.468105      57.468105      57.468105      0.95177479     3113.5169      3304.5722      3702.9946    
     37000   18500          476.14695      3795.4093      30842.561      20407.13       11409.782      8997.3483      3711.7039      3851.8757      10265.189      0             -8831.4202      0              188528         57.340123      57.340123      57.340123      0.95816206     3654.9138      4081.2391      3650.075     
     38000   19000          483.29666      4248.5874      32208.838      20516.578      11581.108      8935.4695      3742.8849      3793.9801      10183.169      0             -8784.5646      0              188702.67      57.357826      57.357826      57.357826      0.95727516     4137.6283      4409.36        4198.7738    
     39000   19500          484.68086      3960.8131      31510.492      20602.503      11614.278      8988.2255      3743.7527      3776.8266      10244.945      0             -8777.2992      0              188835.86      57.371317      57.371317      57.371317      0.95659999     4129.1313      3665.015       4088.2931    
     40000   20000          483.94789      3926.0834      31424.947      20652.394      11596.713      9055.6804      3803.3063      3884.3176      10233.232      0             -8865.1755      0              188140.91      57.300852      57.300852      57.300852      0.96013343     3330.6442      4051.9126      4395.6936    
     41000   20500          479.32857      3587.7815      30098.681      20322.706      11486.022      8836.6835      3670.1141      3798.0898      10213.444      0             -8844.9643      0              186835         57.167966      57.167966      57.167966      0.96684444     4326.2984      3078.5293      3358.5168    
     42000   21000          481.30602      3810.002       30630.856      20256.984      11533.407      8723.5767      3661.2171      3796.9162      10178.819      0             -8913.3758      0              186698.07      57.153997      57.153997      57.153997      0.96755356     3655.3611      3463.6547      4310.9903    
     43000   21500          484.99074      4352.8307      32437.047      20599.987      11621.703      8978.2841      3733.1523      3916.991       10204.045      0             -8875.9044      0              186464.5       57.130153      57.130153      57.130153      0.96876551     5171.7675      4685.7953      3200.9294    
     44000   22000          482.42037      4144.6345      31740.517      20528.236      11560.11       8968.1262      3769.1221      3858.1649      10239.629      0             -8898.7895      0              185494.85      57.030952      57.030952      57.030952      0.97382962     4257.4392      3710.2266      4466.2377    
     45000   22500          485.64353      4465.8873      32546.128      20445.068      11637.346      8807.7221      3722.0026      3763.6485      10158.96       0             -8836.8887      0              185797.46      57.061948      57.061948      57.061948      0.97224353     4684.8169      4046.8927      4665.9522    
     46000   23000          484.38099      5753.1783      35877.754      20401.27       11607.092      8794.1782      3768.4673      3729.6366      10192.311      0             -8896.2366      0              184454.21      56.924102      56.924102      56.924102      0.97932369     6253.4643      5585.038       5421.0325    
     47000   23500          476.7974       4632.2938      32764.088      20249.985      11425.368      8824.6165      3708.6299      3896.5052      10139.776      0             -8920.2946      0              185237         57.004514      57.004514      57.004514      0.97518517     5194.0482      4917.6848      3785.1485    
     48000   24000          482.36925      4298.0514      32034.144      20486.063      11558.885      8927.1776      3822.6807      3803.6243      10209.256      0             -8908.3829      0              184230.84      56.901115      56.901115      56.901115      0.98051108     4939.9033      3624.248       4330.0028    
     49000   24500          482.11297      4997.4802      33913.87       20491.915      11552.744      8939.1715      3790.3458      3887.5854      10202.992      0             -8941.7519      0              184157.25      56.893537      56.893537      56.893537      0.98090291     4866.6231      4735.2478      5390.5697    
     50000   25000          480.6496       4281.5224      31738.114      20310.547      11517.678      8792.8691      3839.0803      3740.4175      10214.49       0             -9001.1191      0              183012.04      56.775359      56.775359      56.775359      0.98704096     4398.6552      4299.8846      4146.0274    
     51000   25500          482.49609      5817.1881      35912.481      20432.646      11561.925      8870.721       3828.8517      3835.1615      10186.552      0             -8979.8439      0              182464.07      56.718637      56.718637      56.718637      0.99000522     6350.7525      5015.4798      6085.332     
     52000   26000          482.72577      5529.6488      35202.082      20464.811      11567.428      8897.3823      3858.0538      3825.3605      10144.097      0             -8930.1289      0              182744.21      56.747649      56.747649      56.747649      0.98848755     5394.9283      6224.4442      4969.5737    
     53000   26500          480.46019      5499.6531      34787.878      20239.978      11513.139      8726.8394      3888.1693      3703.4052      10132.962      0             -8997.6974      0              181379.88      56.606075      56.606075      56.606075      0.99592289     4929.2827      5960.5665      5609.11      
     54000   27000          484.45182      5419.846       34912.356      20521.741      11608.789      8912.952       3769.4857      3834.5986      10323.732      0             -9014.864       0              182060.83      56.676824      56.676824      56.676824      0.99219794     5490.9295      5371.1049      5397.5036    
     55000   27500          485.52284      6552.174       37716.227      20444.898      11634.454      8810.4443      3747.1672      3758.5646      10245.468      0             -8940.7552      0              180744.23      56.539871      56.539871      56.539871      0.99942544     6379.9001      7202.7328      6073.8892    
     56000   28000          485.15009      5052.9898      33685.532      20333.71       11625.522      8708.1886      3695.2915      3875.6589      10139.478      0             -9002.2394      0              181182.49      56.585532      56.585532      56.585532      0.99700795     5644.8397      5292.8134      4221.3164    
     57000   28500          484.85873      5926.8548      36089.136      20519.155      11618.54       8900.615       3771.0437      3839.1068      10244.577      0             -8954.1126      0              180130.78      56.475832      56.475832      56.475832      1.0028291      6432.9929      5692.8449      5654.7267    
     58000   29000          475.83388      5642.2925      34911.998      20088.316      11402.28       8686.0364      3868.8495      3737.1287      10104.446      0             -9024.3874      0              180145.99      56.477423      56.477423      56.477423      1.0027444      5578.2029      6412.4021      4936.2724    
     59000   29500          482.44106      5750.669       35498.082      20417.014      11560.606      8856.4084      3898.1289      3748.8723      10252.081      0             -9042.6736      0              179819.93      56.443327      56.443327      56.443327      1.0045626      6201.2247      6245.135       4805.6472    
     60000   30000          477.69954      6075.2863      36229.112      20347.568      11446.986      8900.5816      3858.9473      3876.8244      10162.765      0             -8997.955       0              179246.25      56.38324       56.38324       56.38324       1.0077777      5935.9589      6124.7752      6165.1248    
     61000   30500          480.9129       6450.9642      37059.194      20222.686      11523.987      8698.6988      3816.6572      3810.8606      10164.082      0             -9092.9014      0              178958.16      56.353016      56.353016      56.353016      1.0094001      6478.1868      6726.3436      6148.3623    
     62000   31000          477.66043      6274.8285      36661.667      20267.72       11446.049      8821.6714      3865.1619      3808.1992      10104.865      0             -8956.5549      0              179145.45      56.372668      56.372668      56.372668      1.0083448      6579.2531      6648.5552      5596.6772    
     63000   31500          479.59471      6140.266       36345.298      20334.968      11492.4        8842.5689      3840.8679      3793.6825      10288.625      0             -9080.6069      0              178787.51      56.335099      56.335099      56.335099      1.0103635      5363.2302      6662.2846      6395.2832    
     64000   32000          481.76735      7066.0511      38611.984      20259.166      11544.462      8714.7043      3752.5552      3787.51        10237.012      0             -9062.3728      0              178094.33      56.262198      56.262198      56.262198      1.0142961      6209.7377      7284.3866      7704.029     
     65000   32500          476.7885       6921.2106      38093.352      20156.097      11425.155      8730.9421      3760.8964      3835.7187      10141.423      0             -9007.0959      0              177704.34      56.2211        56.2211        56.2211        1.0165221      5981.7112      7283.8217      7498.099     
     66000   33000          479.24199      6814.0507      37871.264      20213.324      11483.947      8729.3767      3800.365       3765.3355      10199.712      0             -9036.0362      0              177688.27      56.219407      56.219407      56.219407      1.0166139      6095.2558      7006.9015      7339.9949    
     67000   33500          474.62517      6639.052       37390.081      20217.902      11373.316      8844.5867      3798.6387      3818.3561      10305.69       0             -9078.0983      0              177355         56.184236      56.184236      56.184236      1.0185243      6910.3596      6119.1075      6887.6889    
     68000   34000          477.74799      7347.061       39175.801      20158.744      11448.147      8710.597       3717.2029      3857.1488      10239.421      0             -9103.1757      0              177481.78      56.19762       56.19762       56.19762       1.0177968      7210.8467      7054.0463      7776.2899    
     69000   34500          474.79381      6951.466       38089.837      20123.363      11377.357      8746.0059      3873.2271      3651.2297      10252.36       0             -9030.811       0              177219.11      56.169883      56.169883      56.169883      1.0193053      6548.2246      7677.4827      6628.6907    
     70000   35000          473.06227      7172.6983      38774.833      20295.259      11335.864      8959.3946      3809.5004      4007.464       10244.836      0             -9102.4055      0              176658.08      56.110547      56.110547      56.110547      1.0225424      7060.0059      7160.716       7297.3729    
     71000   35500          486.95183      7486.5757      39758.689      20509.234      11668.696      8840.5377      3786.661       3844.9436      10253.505      0             -9044.5714      0              176302.85      56.072912      56.072912      56.072912      1.0246027      7778.8439      6762.925       7917.9583    
     72000   36000          483.43641      7462.9251      39453.825      20296.545      11584.457      8712.0883      3725.2265      3892.7053      10157.618      0             -9063.462       0              176014.67      56.042343      56.042343      56.042343      1.0262803      7811.8688      8096.8831      6480.0234    
     73000   36500          476.48185      7107.6129      38476.155      20287.945      11417.807      8870.138       3770.5567      3840.8759      10252.769      0             -8994.0633      0              175464.92      55.983937      55.983937      55.983937      1.0294957      6974.7946      7550.3962      6797.648     
     74000   37000          481.54057      7265.9423      38886.247      20257.792      11539.028      8718.7647      3800.6612      3770.973       10242.786      0             -9095.6553      0              175796         56.019126      56.019126      56.019126      1.0275568      7261.8448      7748.4286      6787.5536    
     75000   37500          477.46815      7799.572       40293.573      20252.401      11441.441      8810.9594      3779.4711      3857.6694      10249.197      0             -9075.3781      0              176188.06      56.06074       56.06074       56.06074       1.0252703      8444.525       7535.0354      7419.1558    
     76000   38000          477.11377      6505.8945      36762.058      20115.386      11432.949      8682.4365      3718.6797      3835.7252      10175.799      0             -9047.7677      0              175446.42      55.981969      55.981969      55.981969      1.0296043      5773.0175      7345.4558      6399.2102    
     77000   38500          480.5679       7363.1525      39056.839      20247.623      11515.72       8731.9036      3887.0257      3798.6035      10146.481      0             -9100.2064      0              175158.42      55.95132       55.95132       55.95132       1.0312972      7650.7718      6965.075       7473.6107    
     78000   39000          486.00622      7501.1808      39488.112      20440.522      11646.037      8794.4858      3853.6481      3868.5263      10146.522      0             -9074.211       0              174114.33      55.839926      55.839926      55.839926      1.0374814      7344.4936      7761.7495      7397.2993    
     79000   39500          486.42199      7977.2001      40759.908      20534.767      11656          8878.7675      3819.4707      3839.0636      10245.905      0             -9025.6719      0              173846.19      55.811247      55.811247      55.811247      1.0390816      8383.5724      8671.9255      6876.1025    
     80000   40000          482.62556      7772.5326      40139.555      20455.081      11565.027      8890.054       3871.8223      3826.2416      10244.676      0             -9052.6864      0              173654.23      55.790697      55.790697      55.790697      1.0402302      7209.495       7919.7539      8188.349     
     81000   40500          481.96886      7602.2999      39725.934      20474.021      11549.291      8924.7305      3852.9565      3827.4738      10301.319      0             -9057.0187      0              173641.29      55.789312      55.789312      55.789312      1.0403077      6952.7311      8077.3786      7776.7901    
     82000   41000          485.58197      8063.0631      40923.678      20521.341      11635.871      8885.4709      3881.6329      3857.5436      10237.421      0             -9091.1264      0              173501.79      55.774368      55.774368      55.774368      1.0411442      8096.4035      7661.1501      8431.6356    
     83000   41500          485.103        7816.4618      40150.176      20391.585      11624.393      8767.1923      3751.7727      3802.6469      10261.328      0             -9048.555       0              173328.45      55.755787      55.755787      55.755787      1.0421854      7200.9682      7984.0174      8264.3998    
     84000   42000          479.88808      8638.0078      42050.757      20290.576      11499.43       8791.1464      3868.2348      3798.358       10229.275      0             -9104.7209      0              172732.09      55.691769      55.691769      55.691769      1.0457835      8367.8759      8096.2315      9449.9159    
     85000   42500          479.21203      7316.9049      38607.376      20198.448      11483.23       8715.2187      3834.1394      3773.3934      10172.321      0             -9064.6352      0              172514.34      55.668356      55.668356      55.668356      1.0471036      7483.0588      6833.4858      7634.1701    
     86000   43000          474.49021      7988.5313      40292.156      20194.169      11370.082      8824.0876      3901.9902      3882.7228      10153.034      0             -9113.6592      0              172508.19      55.667695      55.667695      55.667695      1.0471409      8576.9105      8026.1855      7362.4979    
     87000   43500          476.26796      8426.8373      41465.873      20339.407      11412.682      8926.7253      3926.554       3838.328       10230.526      0             -9068.6824      0              171904.15      55.602645      55.602645      55.602645      1.0508204      8648.8311      8539.4939      8092.1869    
     88000   44000          481.71987      8760.2517      42407.628      20389.197      11543.324      8845.8725      3833.7134      3782.7594      10262.774      0             -9033.374       0              172343.1       55.649931      55.649931      55.649931      1.048144       8576.6214      8801.0628      8903.0709    
     89000   44500          480.01551      8951.6578      42751.937      20348.822      11502.483      8846.3386      3856.8409      3765.1448      10260.65       0             -9036.2971      0              171604.65      55.570336      55.570336      55.570336      1.0526543      9628.5718      9139.2733      8087.1281    
     90000   45000          478.15522      8974.6057      42845.52       20468.67       11457.905      9010.7643      3891.9677      3850.8772      10244.638      0             -8976.719       0              170965.19      55.501224      55.501224      55.501224      1.0565916      8994.6323      9759.7132      8169.4716    
     91000   45500          481.28883      8976.8033      42916.204      20502.85       11532.995      8969.8553      3890.1701      3874.7193      10227.509      0             -9022.5429      0              171202.16      55.526856      55.526856      55.526856      1.0551291      8535.1922      10090.599      8304.6192    
     92000   46000          480.51415      9265.8088      43476.427      20394.27       11514.432      8879.8385      3821.4006      3826.0031      10307.007      0             -9074.5722      0              170811.52      55.484591      55.484591      55.484591      1.0575421      9637.9239      9278.6845      8880.818     
     93000   46500          482.84303      8437.3525      41578.439      20472.237      11570.238      8901.9993      3828.7416      3870.8997      10273.417      0             -9071.0592      0              171525.22      55.561761      55.561761      55.561761      1.0531418      8239.967       9279.2726      7792.8177    
     94000   47000          483.73814      8702.642       42293.552      20552.144      11591.687      8960.4567      3926.1794      3835.0226      10234.929      0             -9035.6743      0              171301.3       55.537571      55.537571      55.537571      1.0545185      9149.0206      8543.0654      8415.8399    
     95000   47500          487.81791      9945.4031      45477.315      20742.942      11689.45       9053.4922      3900.7687      3869.5125      10317.308      0             -9034.0971      0              170530.72      55.45417       55.45417       55.45417       1.0592835      10679.696      9850.5463      9305.9667    
     96000   48000          479.52519      10376.6        46039.304      20362.686      11490.734      8871.9521      3835.8036      3799.4373      10296.26       0             -9059.5489      0              169670.71      55.360791      55.360791      55.360791      1.0646527      10594.816      11385.398      9149.5864    
     97000   48500          481.87562      9773.5818      44761.222      20505.681      11547.056      8958.6248      3917.8482      3832.8003      10244.121      0             -9036.1442      0              170169.34      55.414971      55.414971      55.414971      1.061533       9873.8492      10698.76       8748.1363    
     98000   49000          476.17035      9090.4025      42815.652      20380.031      11410.342      8969.6883      3850.6781      3894.2452      10289.608      0             -9064.8427      0              169230.68      55.312892      55.312892      55.312892      1.067421       9253.8218      9179.3334      8838.0523    
     99000   49500          477.7357       9543.9946      43844.464      20266.901      11447.853      8819.0487      3784.6444      3772.0052      10232.963      0             -8970.5644      0              169391.98      55.33046       55.33046       55.33046       1.0664046      9895.5949      10158.169      8578.22      
    100000   50000          483.29007      10370.602      46140.169      20525.76       11580.951      8944.8097      3837.6689      3849.1716      10238.352      0             -8980.3829      0              169357.53      55.326708      55.326708      55.326708      1.0666215      10302.565      10708.178      10101.062    
    101000   50500          485.4234       10486.221      46508.354      20566.474      11632.071      8934.4036      3770.6284      3829.503       10232.598      0             -8898.3261      0              169631.52      55.356529      55.356529      55.356529      1.0648987      11009.58       10319.933      10129.15     
    102000   51000          476.9162       10042.953      44906.079      20155.553      11428.215      8727.3382      3719.3039      3810.7687      10202.014      0             -9004.7489      0              168984.59      55.286068      55.286068      55.286068      1.0689755      10570.595      9612.6717      9945.5926    
    103000   51500          489.16617      9752.0334      44481.599      20380.063      11721.758      8658.3048      3740.3246      3793.254       10118.243      0             -8993.5167      0              169462.52      55.338139      55.338139      55.338139      1.0659607      10519.075      9253.7482      9483.2769    
    104000   52000          479.33119      10533.533      46262.53       20330.431      11486.085      8844.3464      3844.4851      3817.1409      10207.426      0             -9024.706       0              168805.94      55.266578      55.266578      55.266578      1.0701067      11940.031      9979.6011      9680.9663    
    105000   52500          479.85013      10315.792      45804.093      20466.706      11498.52       8968.1858      3805.7829      3829.7944      10288.068      0             -8955.4594      0              168416.01      55.223992      55.223992      55.223992      1.0725843      10996.492      10817.927      9132.9555    
    106000   53000          485.37214      10864.873      47171.807      20548.68       11630.843      8917.8374      3843.0834      3836.2476      10259.478      0             -9020.9713      0              168019.05      55.180569      55.180569      55.180569      1.0751185      11488.034      11030.991      10075.594    
    107000   53500          480.22917      10757.021      47022.261      20556.324      11507.603      9048.7216      3953.9439      3839.0334      10283.131      0             -9027.3866      0              168701.67      55.255196      55.255196      55.255196      1.0707682      10582.653      10797.102      10891.307    
    108000   54000          475.24656      10330.4        45728.008      20377.842      11388.206      8989.636       3897.2754      3816.1851      10300.343      0             -9024.1678      0              168262.67      55.207226      55.207226      55.207226      1.0735618      10791.856      10442.256      9757.0895    
    109000   54500          482.76727      11125.18       47647.706      20477.31       11568.423      8908.8874      3773.2731      3819.6582      10220.35       0             -8904.3942      0              167460.74      55.119382      55.119382      55.119382      1.0787028      11455.527      10359.264      11560.75     
    110000   55000          484.12229      10571.084      46466.572      20621.054      11600.893      9020.1614      3837.5426      3916.1446      10298.076      0             -9031.6021      0              167644.71      55.139558      55.139558      55.139558      1.0775191      10855.501      10861.799      9995.9511    
    111000   55500          476.57886      11169.473      47721.224      20469.476      11420.131      9049.3444      3879.8604      3895.4127      10185.181      0             -8911.1101      0              167296.09      55.101311      55.101311      55.101311      1.0797645      11507.104      11660.169      10341.145    
    112000   56000          476.40195      11089.492      47520.112      20407.31       11415.892      8991.4177      3784.291       3908.2815      10231.484      0             -8932.6389      0              167643.55      55.139431      55.139431      55.139431      1.0775266      10370.333      11747.007      11151.136    
    113000   56500          481.99337      10985.657      47304.436      20487.512      11549.878      8937.634       3747.9385      3854.8944      10249.191      0             -8914.3902      0              167381.33      55.110668      55.110668      55.110668      1.0792146      11218.777      10939.227      10798.967    
    114000   57000          487.57766      11637.702      49033.981      20765.904      11683.693      9082.211       3802.0438      3860.4138      10281.968      0             -8862.2143      0              166553.26      55.019636      55.019636      55.019636      1.0845803      11823.196      11702.335      11387.575    
    115000   57500          481.17846      11298.697      47961.52       20554.753      11530.351      9024.4029      3821.3684      3883.9629      10200.689      0             -8881.6174      0              166323.47      54.994322      54.994322      54.994322      1.0860787      11139.623      11257.34       11499.128    
    116000   58000          481.03729      11871.022      49500.079      20638.508      11526.968      9111.5406      3904.2215      3844.5485      10313.805      0             -8951.0344      0              166707.82      55.036649      55.036649      55.036649      1.0835747      11652.69       12573.76       11386.616    
    117000   58500          481.13785      11679.01       49024.64       20632.45       11529.377      9103.0731      3910.4797      3893.2964      10267.414      0             -8968.1175      0              166692.85      55.035003      55.035003      55.035003      1.083672       11826.956      11392.818      11817.256    
    118000   59000          477.88007      11651.879      48626.662      20399.42       11451.312      8948.1082      3830.6445      3718.7652      10300.982      0             -8902.2838      0              166110.31      54.970818      54.970818      54.970818      1.0874724      11203.05       11661.429      12091.157    
    119000   59500          476.77449      11387.662      48134.995      20581.065      11424.819      9156.2458      3845.2016      3927.5425      10302.574      0             -8919.0726      0              165910.2       54.948734      54.948734      54.948734      1.0887841      11535.622      11493.707      11133.659    
    120000   60000          484.37187      11953.762      49583.535      20725.367      11606.873      9118.4938      3866.6161      3831.2623      10249.637      0             -8829.0215      0              165534.41      54.907216      54.907216      54.907216      1.0912558      13584.022      11976.814      10300.448    
    121000   60500          478.1582       12143.139      50007.812      20655.717      11457.977      9197.7406      3944.9027      3923.2683      10309.401      0             -8979.8314      0              165741.87      54.930144      54.930144      54.930144      1.0898899      12028.04       12530.967      11870.411    
    122000   61000          479.88539      11693.546      48822.857      20617.13       11499.365      9117.7649      3842.8282      3901.1471      10315.748      0             -8941.9587      0              165392.27      54.891496      54.891496      54.891496      1.0921936      12602.68       11470.616      11007.342    
    123000   61500          477.92822      12531.382      50531.836      20376.593      11452.466      8924.1268      3806.1587      3771.0618      10206.366      0             -8859.4601      0              165001.54      54.848236      54.848236      54.848236      1.09478        12167.772      12299.025      13127.348    
    124000   62000          481.17422      13449.992      52706.198      20510.632      11530.249      8980.3834      3721.6488      3887.5091      10221.372      0             -8850.1465      0              164133.84      54.751923      54.751923      54.751923      1.1005675      13539.111      13716.273      13094.594    
    125000   62500          486.42183      12712.134      51305.124      20837.777      11655.996      9181.7809      3841.8015      3934.8056      10259.077      0             -8853.9028      0              164338.87      54.774712      54.774712      54.774712      1.0991945      12119.398      12918.559      13098.444    
    126000   63000          479.84695      13352.662      52682.395      20766.67       11498.444      9268.2264      3911.1639      3858.7233      10246.682      0             -8748.3428      0              163893.21      54.725153      54.725153      54.725153      1.1021834      12756.715      13523.531      13777.74     
    127000   63500          482.57503      12668.189      51259.698      20862.793      11563.816      9298.9769      3951.7273      3914.7178      10293.988      0             -8861.4563      0              164527.67      54.79568       54.79568       54.79568       1.0979331      12843.698      12434.773      12726.095    
    128000   64000          483.92023      13113.963      52310.914      20905.787      11596.051      9309.7364      3853.9441      3877.1449      10348.764      0             -8770.1167      0              164206.63      54.760016      54.760016      54.760016      1.1000797      12959.634      12281.084      14101.171    
    129000   64500          476.75017      13304.102      52557.411      20755.084      11424.236      9330.8476      3907.2289      3958.3519      10286.581      0             -8821.3138      0              163906.98      54.726685      54.726685      54.726685      1.1020909      14098.539      12556.546      13257.222    
    130000   65000          476.73053      13167.568      52274.215      20775.301      11423.766      9351.5351      3939.5921      3929.9203      10297.357      0             -8815.3347      0              164026.54      54.739989      54.739989      54.739989      1.1012875      13912.451      13428.931      12161.321    
    131000   65500          479.06295      12651.715      50937.151      20683.212      11479.657      9203.5547      3898.3882      3816.433       10308.757      0             -8820.0233      0              163967.07      54.733373      54.733373      54.733373      1.1016869      12080.767      13910.267      11964.111    
    132000   66000          483.94444      13428.047      52995.169      20873.444      11596.631      9276.8128      3854.247       3875.9761      10381.986      0             -8835.3966      0              164025.03      54.739821      54.739821      54.739821      1.1012976      14453.888      13125.641      12704.612    
    133000   66500          475.89736      13091.559      51856.86       20659.693      11403.801      9255.8924      3948.3026      3815.056       10219.01       0             -8726.4758      0              163398.43      54.670028      54.670028      54.670028      1.1055209      13426.993      13492.126      12355.558    
    134000   67000          479.37841      14028.473      54290.838      20873.363      11487.216      9386.1463      4059.5987      3933.1934      10176.794      0             -8783.4395      0              163338.04      54.663292      54.663292      54.663292      1.1059296      14112.947      14111.646      13860.827    
    135000   67500          483.80991      13277.482      52584.975      20971.371      11593.407      9377.964       3820.4253      3952.527       10282.078      0             -8677.0667      0              163260.98      54.654693      54.654693      54.654693      1.1064517      13479.532      13684.647      12668.267    
    136000   68000          487.23796      14403.465      55107.995      20883.442      11675.553      9207.8891      3810.9785      3970.6489      10313.927      0             -8887.6649      0              162927.7       54.617478      54.617478      54.617478      1.108715       15118.789      14119.995      13971.61     
    137000   68500          483.95919      13115.904      52016.023      20858.01       11596.984      9261.0254      3841.6576      3852.5901      10268.412      0             -8701.6338      0              162890.46      54.613317      54.613317      54.613317      1.1089684      13477.977      13743.614      12126.12     
    138000   69000          485.11901      13842.473      53814.046      20905.446      11624.777      9280.669       3799.6263      3976.739       10280.14       0             -8775.8361      0              163012.1       54.626907      54.626907      54.626907      1.1081409      13487.948      14480.171      13559.301    
    139000   69500          488.05169      13369.379      52550.293      20870.309      11695.052      9175.2577      3900.8184      3849.1155      10256.395      0             -8831.0713      0              162479.21      54.567317      54.567317      54.567317      1.1117753      13373.204      13964.327      12770.607    
    140000   70000          479.74569      13368.293      52480.539      20861.92       11496.017      9365.9026      3879.2343      3914.2095      10229.041      0             -8656.5824      0              162177.67      54.533539      54.533539      54.533539      1.1138425      13135.171      14222.041      12747.667    
    141000   70500          481.25225      13875.864      53680.236      20856.139      11532.119      9324.0203      3893.4162      3896.2195      10246.445      0             -8712.0601      0              162202.24      54.536294      54.536294      54.536294      1.1136737      14554.071      14644.16       12429.362    
    142000   71000          488.10685      14634.005      55626.129      21074.224      11696.374      9377.85        3930.7882      3856.3847      10330.191      0             -8739.5137      0              161894.81      54.501816      54.501816      54.501816      1.1157886      14283.935      15299.956      14318.124    
    143000   71500          482.45264      13848.593      53688.39       20983.06       11560.883      9422.1771      3965.7685      3850.5071      10270.304      0             -8664.4023      0              161933.61      54.50617       54.50617       54.50617       1.1155212      14384.953      13556.907      13603.918    
    144000   72000          480.52447      14267.092      54517.824      20848.877      11514.679      9334.1974      3952.413       3835.6485      10279.124      0             -8732.9881      0              161814.78      54.492834      54.492834      54.492834      1.1163404      13947.602      14273.471      14580.204    
    145000   72500          479.52114      14640.787      55416.737      20833.992      11490.637      9343.3554      3953.7912      3727.4374      10283.926      0             -8621.799       0              161964.24      54.509607      54.509607      54.509607      1.1153102      16034.593      13843.658      14044.11     
    146000   73000          478.87848      14640.533      55280.033      20845.425      11475.237      9370.1888      3903.8085      3846.1803      10246.372      0             -8626.1717      0              161273.26      54.431979      54.431979      54.431979      1.1200888      14595.827      14743.322      14582.45     
    147000   73500          481.24336      15255.415      56886.15       20966.373      11531.906      9434.4675      3921.3573      3822.42        10264.21       0             -8573.5196      0              161448.39      54.451675      54.451675      54.451675      1.1188738      14557.103      15606.553      15602.588    
    148000   74000          478.50924      14979.803      56055.548      20877.344      11466.389      9410.9555      3770.2029      3881.7276      10261.138      0             -8502.1126      0              161024.39      54.403966      54.403966      54.403966      1.12182        15119.54       14493.572      15326.297    
    149000   74500          475.30021      15066.894      55931.556      20589.48       11389.492      9199.9889      3827.9358      3768.0875      10224.064      0             -8620.0982      0              160839.4       54.383123      54.383123      54.383123      1.1231103      15572.273      14629.953      14998.455    
    150000   75000          479.33263      15069.818      56352.044      20904.507      11486.119      9418.3877      4036.0993      3830.2601      10255.5        0             -8703.4715      0              161288.04      54.433642      54.433642      54.433642      1.1199862      15223.294      14778.544      15207.616    
    151000   75500          478.06463      14741.452      55405.901      20807.144      11455.735      9351.4095      3931.874       3848.2563      10281.689      0             -8710.4098      0              160932.72      54.393639      54.393639      54.393639      1.122459       14691.666      15431.594      14101.095    
    152000   76000          478.50552      15597.895      57417.609      20934.014      11466.3        9467.7148      3921.9931      3962.2373      10230.605      0             -8647.1206      0              160382.04      54.331527      54.331527      54.331527      1.126313       15362.213      16509.252      14922.22     
    153000   76500          485.74421      15976.004      58587.059      21163.27       11639.758      9523.5116      4041.9397      3867.7331      10316.081      0             -8702.2419      0              160621.51      54.358554      54.358554      54.358554      1.1246338      16275.667      16008.523      15643.823    
    154000   77000          483.44609      14932.257      56040.186      21063.005      11584.689      9478.3155      3944.4468      3888.9424      10225.112      0             -8580.1858      0              160614.03      54.357711      54.357711      54.357711      1.1246862      15150.398      15458.279      14188.093    
    155000   77500          477.9169       15031.441      56048.296      20876.368      11452.195      9424.1731      3927.9176      3822.9147      10284.781      0             -8611.4406      0              160442.6       54.338364      54.338364      54.338364      1.1258879      15409.231      14788.821      14896.27     
    156000   78000          475.51418      15974.61       58200.709      20941.077      11394.619      9546.4579      3976.8062      3852.8831      10310.797      0             -8594.0284      0              159930.91      54.280537      54.280537      54.280537      1.1294901      15732.864      16587.915      15603.052    
    157000   78500          478.69468      16288.582      58951.894      20963.278      11470.832      9492.4454      3910.8167      3872.8182      10292.149      0             -8583.3383      0              159916.87      54.278949      54.278949      54.278949      1.1295892      16729.616      16549.909      15586.222    
    158000   79000          483.60204      16153.018      58775.651      21199.484      11588.426      9611.0575      3957.1007      3928.2846      10254.396      0             -8528.7238      0              159508.17      54.232669      54.232669      54.232669      1.1324836      16626.383      16020.522      15812.148    
    159000   79500          478.93013      16452.991      59423.749      21117.832      11476.474      9641.3579      3948.5609      3837.0832      10450.075      0             -8594.3617      0              159641.25      54.247747      54.247747      54.247747      1.1315395      17127.536      16683.012      15548.424    
    160000   80000          476.8931       15688.638      57356.576      20763.623      11427.662      9335.9616      3864.1723      3788.8887      10269.932      0             -8587.0315      0              159932.35      54.2807        54.2807        54.2807        1.1294799      16182.218      15941.75       14941.948    
    161000   80500          475.55262      15952.075      58227.487      21048.341      11395.54       9652.8009      3975.0194      3891.66        10274.334      0             -8488.2124      0              159810.88      54.266954      54.266954      54.266954      1.1303385      16159.935      15920.255      15776.036    
    162000   81000          476.79989      15979.346      58174.577      20972.713      11425.428      9547.2852      3919.3885      3924.8241      10260.971      0             -8557.8983      0              159635.62      54.247109      54.247109      54.247109      1.1315794      15886.379      15975.508      16076.152    
    163000   81500          478.88389      15499.275      56925.697      20965.155      11475.366      9489.7884      3791.6381      3870.6714      10324.979      0             -8497.5001      0              159088.56      54.185071      54.185071      54.185071      1.1354706      16100.952      15947.94       14448.934    
    164000   82000          478.22243      17173.027      61051.59       21229.443      11459.516      9769.9274      3930.1789      4067.0146      10317.19       0             -8544.4562      0              159001.76      54.175215      54.175215      54.175215      1.1360904      17920.868      17337.208      16261.004    
    165000   82500          482.5652       16925.86       60445.086      21260.518      11563.581      9696.9377      3958.5263      3953.1561      10275.125      0             -8489.8703      0              158740.75      54.145555      54.145555      54.145555      1.1379585      16709.615      17422.114      16645.853    
    166000   83000          485.32528      16564.303      59663.682      21336.596      11629.719      9706.8765      3967.1825      3885.5869      10346.445      0             -8492.3377      0              158656.09      54.135928      54.135928      54.135928      1.1385657      16052.855      17127.64       16512.414    
    167000   83500          486.52552      16634.71       59855.387      21419.63       11658.481      9761.1496      3874.7853      4032.0934      10332.735      0             -8478.4641      0              158432.51      54.110486      54.110486      54.110486      1.1401724      17116.185      16199.783      16588.162    
    168000   84000          480.82217      17085.801      60763.304      21286.955      11521.813      9765.1421      3950.4452      3872.4791      10358.339      0             -8416.1211      0              158425.74      54.109715      54.109715      54.109715      1.1402211      17258.763      16618.316      17380.325    
    169000   84500          481.15287      17476.26       61516.097      21140.784      11529.737      9611.0472      3919.2696      3856.9162      10303.739      0             -8468.8776      0              158413.25      54.108293      54.108293      54.108293      1.140311       18264.396      17231.829      16932.556    
    170000   85000          479.79065      17556.646      61832.125      21303.435      11497.095      9806.3402      3936.0443      3932.9937      10335.916      0             -8398.6139      0              158286.95      54.09391       54.09391       54.09391       1.1412209      17286.237      17912.573      17471.129    
    171000   85500          473.01171      18076.757      62691.616      21044.843      11334.653      9710.1902      3893.2209      3972.8091      10285.853      0             -8441.6926      0              157973.76      54.058209      54.058209      54.058209      1.1434835      18212.998      18389.545      17627.728    
    172000   86000          471.19138      16919.927      59989.243      20964.166      11291.033      9673.1333      3970.4254      3854.2469      10269.855      0             -8421.3936      0              158150.07      54.078312      54.078312      54.078312      1.1422087      17069.832      16627.469      17062.481    
    173000   86500          481.09303      17836.469      62408.971      21332.778      11528.303      9804.4748      3979.5625      3974.8751      10297.971      0             -8447.9334      0              157908.47      54.05076       54.05076       54.05076       1.1439563      18291.721      17865.897      17351.789    
    174000   87000          484.97507      16909.606      60299.31       21354.455      11621.328      9733.1275      3887.3661      3903.8835      10356.088      0             -8414.2098      0              157921.3       54.052224      54.052224      54.052224      1.1438633      16754.534      16905.658      17068.626    
    175000   87500          477.26221      17354.454      61508.04       21523.713      11436.507      10087.207      3978.6286      4051.7392      10432.066      0             -8375.2273      0              157980.3       54.058955      54.058955      54.058955      1.1434361      17531.516      17378.055      17153.792    
    176000   88000          480.12766      17155.053      60876.889      21325.456      11505.17       9820.2851      3921.897       3914.5444      10370.846      0             -8387.0024      0              158086.32      54.071045      54.071045      54.071045      1.1426693      16298.922      17492.681      17673.555    
    177000   88500          479.11094      17064.936      60530.241      21177.707      11480.807      9696.8999      3877.3852      3965.1805      10322.825      0             -8468.491       0              158121.94      54.075106      54.075106      54.075106      1.1424118      17222.673      17543.153      16428.983    
    178000   89000          474.68784      17654.826      61762.352      21136.543      11374.817      9761.725       3914.9767      3913.6239      10356.584      0             -8423.4592      0              157783.9       54.036544      54.036544      54.036544      1.1448594      17285.543      17522.187      18156.749    
    179000   89500          481.2758       18088.479      62862.02       21351.954      11532.683      9819.2711      3929.4298      3971.875       10249.675      0             -8331.7084      0              157353.16      53.987327      53.987327      53.987327      1.1479933      18529.183      17775.64       17960.615    
    180000   90000          475.00457      18731.253      64333.522      21367.968      11382.407      9985.5603      3934.1518      3970.18        10403.751      0             -8322.5223      0              157281.52      53.979132      53.979132      53.979132      1.1485162      18064.287      18117.388      20012.084    
    181000   90500          488.77259      18580.542      64132.506      21547.33       11712.327      9835.0032      3907.4745      3909.7194      10366.84       0             -8349.0308      0              157153.55      53.964488      53.964488      53.964488      1.1494515      18875.809      18064.987      18800.829    
    182000   91000          483.68989      18665.17       64201.171      21386.433      11590.531      9795.9023      3852.9642      4031.1917      10250.216      0             -8338.4695      0              157284.33      53.979453      53.979453      53.979453      1.1484957      18556.385      18236.482      19202.642    
    183000   91500          483.90974      18427.976      63609.255      21419.497      11595.799      9823.6973      3914.7871      3990.3748      10300.454      0             -8381.918       0              156983.32      53.944997      53.944997      53.944997      1.1506979      17720.587      19104.966      18458.375    
    184000   92000          484.0325       17982.135      62545.154      21351.45       11598.741      9752.7086      3953.3271      3967.8193      10205.634      0             -8374.0717      0              157077.4       53.95577       53.95577       53.95577       1.1500087      16827.875      18718.786      18399.744    
    185000   92500          475.81649      18493.243      63845.648      21508.854      11401.863      10106.991      4050.6458      3987.6669      10251.536      0             -8182.8573      0              156974.46      53.943981      53.943981      53.943981      1.1507629      19068.229      17968.686      18442.815    
    186000   93000          482.28239      17626.926      61813.786      21455.777      11556.804      9898.9733      4022.1895      3946.277       10211.934      0             -8281.4274      0              156991.91      53.945981      53.945981      53.945981      1.1506349      17815.531      17174.966      17890.28     
    187000   93500          474.47289      17387.786      61041.223      21207.699      11369.667      9838.0323      3953.3132      3999.529       10298.297      0             -8413.1071      0              157082.77      53.956386      53.956386      53.956386      1.1499694      17685.346      17378.943      17099.07     
    188000   94000          477.0587       18208.864      62851.912      21292.155      11431.63       9860.5252      3917.3344      3884.3436      10367.824      0             -8308.977       0              156499.97      53.889574      53.889574      53.889574      1.1542518      18804.768      17737.522      18084.301    
    189000   94500          474.4964       18495.585      63556.534      21277.857      11370.23       9907.6268      3900.6203      3896.2056      10380.338      0             -8269.5367      0              156739.13      53.917011      53.917011      53.917011      1.1524906      18690.486      18549.365      18246.903    
    190000   95000          476.21155      18488.348      63403.389      21267.7        11411.33       9856.3706      3931.0259      3904.2994      10303.089      0             -8282.0433      0              156270.18      53.863186      53.863186      53.863186      1.1559491      18586.371      18925.798      17952.874    
    191000   95500          475.78694      19321.066      65465.102      21403.212      11401.155      10002.057      3978.1773      3982.2684      10310.535      0             -8268.9244      0              156370.98      53.874764      53.874764      53.874764      1.155204       19169.772      19338.578      19454.848    
    192000   96000          474.48733      18994.728      64868.157      21571.342      11370.013      10201.33       4060.85        4075.2613      10320.693      0             -8255.4745      0              156295.68      53.866115      53.866115      53.866115      1.1557605      19238.063      18377.189      19368.931    
    193000   96500          480.24879      19609.993      66194.416      21525.549      11508.073      10017.476      4017.3368      3965.4585      10299.113      0             -8264.4323      0              156189.42      53.853906      53.853906      53.853906      1.1565468      20077.649      19430.272      19322.056    
    194000   97000          473.02574      19796.86       66317.766      21337.633      11334.989      10002.644      3966.2309      3997.5171      10239.831      0             -8200.9347      0              155793.21      53.80833       53.80833       53.80833       1.1594881      20052.365      20137.645      19200.569    
    195000   97500          476.32021      18949.611      64397.325      21311.912      11413.934      9897.9782      3883.4001      3952.414       10303.603      0             -8241.4385      0              155902.85      53.82095       53.82095       53.82095       1.1586727      18848.612      18614.24       19385.982    
    196000   98000          481.4044       19372.458      65331.379      21257.217      11535.765      9721.4521      3889.6675      3818.0168      10238.817      0             -8225.049       0              155999.59      53.832078      53.832078      53.832078      1.1579542      18790.041      18961.862      20365.472    
    197000   98500          478.51505      20178.33       67239.244      21419.755      11466.528      9953.2272      3889.5406      4064.9783      10272.73       0             -8274.0216      0              155700.19      53.797618      53.797618      53.797618      1.1601809      20419.815      20141.401      19973.774    
    198000   99000          472.6623       20123.191      67133.707      21506.808      11326.28       10180.528      4049.136       3901.5521      10414.588      0             -8184.7474      0              155470.58      53.77116       53.77116       53.77116       1.1618943      19711.468      19405.139      21252.966    
    199000   99500          483.62481      20676.1        68366.281      21518.539      11588.972      9929.5675      3946.4264      3860.0583      10391.201      0             -8268.1178      0              155361.77      53.758612      53.758612      53.758612      1.1627081      20624.888      20260.874      21142.537    
    200000   100000         481.69678      19785.878      66474.774      21604.47       11542.771      10061.699      3954.0907      3969.7436      10363.812      0             -8225.9478      0              155499.07      53.774445      53.774445      53.774445      1.1616814      19955.098      19201.44       20201.096    
    201000   100500         480.01178      20357.514      67629.7        21514.026      11502.394      10011.632      3940.1369      3907.9052      10415.161      0             -8251.571       0              155327.35      53.754642      53.754642      53.754642      1.1629657      20342.354      20196.231      20533.957    
    202000   101000         475.0992       20704.738      68347.293      21496.897      11384.675      10112.222      4002.31        3893.1591      10359.715      0             -8142.9623      0              155155.66      53.73483       53.73483       53.73483       1.1642526      20732.108      19935.782      21446.324    
    203000   101500         475.92725      20265.97       67305.483      21516.236      11404.517      10111.719      3928.9926      3936.0208      10420.456      0             -8173.7505      0              154924.54      53.708135      53.708135      53.708135      1.1659895      20299.177      20202.213      20296.521    
    204000   102000         470.76302      20295.991      67246.639      21377.462      11280.768      10096.694      3912.4852      3901.4938      10368.15       0             -8085.4351      0              154965.42      53.712858      53.712858      53.712858      1.1656819      19488.519      20504.076      20895.379    
    205000   102500         480.63076      21386.98       69816.481      21587.377      11517.226      10070.15       4001.5576      3832.2918      10340.233      0             -8103.9324      0              154626.47      53.673669      53.673669      53.673669      1.1682371      21011.716      21969.837      21179.387    
    206000   103000         482.23764      20282.418      67569.791      21741.964      11555.731      10186.232      4002.2098      3885.846       10418.443      0             -8120.267       0              154929.33      53.708689      53.708689      53.708689      1.1659534      20170.676      20652.493      20024.085    
    207000   103500         472.03588      20309.105      67385.935      21563.542      11311.269      10252.273      4057.693       3943.0411      10426.309      0             -8174.7707      0              154707.4       53.683031      53.683031      53.683031      1.167626       20809.324      20265.89       19852.103    
    208000   104000         479.21774      20857.831      68745.772      21752.264      11483.366      10268.898      4003.437       3963.9902      10410.172      0             -8108.7013      0              154487.31      53.657563      53.657563      53.657563      1.1692894      20116.317      21124.296      21332.882    
    209000   104500         481.99856      20920.528      68717.51       21642.136      11550.002      10092.134      3958.9906      3868.7453      10326.129      0             -8061.7308      0              154292.65      53.635016      53.635016      53.635016      1.1707646      21025.3        20264.551      21471.732    
    210000   105000         472.76639      21304.955      69494.938      21611.301      11328.774      10282.527      4009.9797      3846.1038      10425.273      0             -7998.8303      0              154109.93      53.613835      53.613835      53.613835      1.1721527      21910.476      21023.251      20981.136    
    211000   105500         479.64819      21632.246      70148.291      21507.504      11493.681      10013.823      4015.2068      3848.7332      10357.355      0             -8207.4714      0              154178.24      53.621756      53.621756      53.621756      1.1716334      22060.487      21180.505      21655.746    
    212000   106000         482.16977      21442.738      70152.249      21949.476      11554.105      10395.371      4000.517       3991.0234      10378.89       0             -7975.0591      0              154140.19      53.617344      53.617344      53.617344      1.1719227      21225.947      21977.015      21125.253    
    213000   106500         480.83315      21467.475      70142.58       21904.627      11522.076      10382.552      4010.9342      3969.1762      10409.464      0             -8007.0226      0              154074.94      53.609777      53.609777      53.609777      1.1724189      20211.129      22012.47       22178.827    
    214000   107000         482.53913      20868.75       68777.931      21826.745      11562.956      10263.789      3986.772       3930.4627      10424.178      0             -8077.6234      0              154267.43      53.632093      53.632093      53.632093      1.170956       20883.914      21515.347      20206.987    
    215000   107500         477.94691      21280.927      69759.418      21974.113      11452.914      10521.199      4054.681       4011.2493      10396.883      0             -7941.6143      0              153967.1       53.597267      53.597267      53.597267      1.1732401      20899.845      21493.72       21449.215    
    216000   108000         489.57386      21199.258      69685.606      22112.56       11731.527      10381.033      4002.8207      3925.6923      10429.638      0             -7977.1179      0              153873.7       53.586427      53.586427      53.586427      1.1739522      21056.443      21350.946      21190.386    
    217000   108500         486.46995      21521.357      70410.547      22151.072      11657.149      10493.923      3956.763       4029.1066      10409.782      0             -7901.7282      0              153757.77      53.572965      53.572965      53.572965      1.1748374      21880.268      21618.802      21065.001    
    218000   109000         480.86063      22256.851      71738.191      21916.769      11522.734      10394.035      3945.6678      4030.4375      10343.658      0             -7925.729       0              153488.73      53.541701      53.541701      53.541701      1.1768967      22098.637      22794.235      21877.682    
    219000   109500         479.16018      22292.522      71648.122      21772.413      11481.987      10290.426      3894.8025      3966.7791      10416.989      0             -7988.1454      0              153410.11      53.532558      53.532558      53.532558      1.1774998      22646.851      21927.448      22303.268    
    220000   110000         486.23541      22739.079      72696.862      21893.633      11651.529      10242.105      3874.7261      3962.5821      10356.891      0             -7952.0943      0              153194.28      53.507442      53.507442      53.507442      1.1791587      23011.212      22225.648      22980.376    
    221000   110500         486.39764      21953.028      71304.556      22086.562      11655.416      10431.145      4047.1717      3989.653       10441.292      0             -8046.9718      0              153728.22      53.569534      53.569534      53.569534      1.1750632      21543.048      21851.995      22464.04     
    222000   111000         480.72796      22882.874      73076.014      21883.607      11519.555      10364.052      3988.1315      3880.1625      10361.125      0             -7865.3677      0              153397.79      53.531125      53.531125      53.531125      1.1775944      22061.17       22967.547      23619.904    
    223000   111500         476.38051      22259.481      71388.41       21614.493      11415.378      10199.115      3880.05        3874.8011      10354.462      0             -7910.198       0              153324.27      53.522571      53.522571      53.522571      1.1781591      21379.624      23276.996      22121.823    
    224000   112000         481.30728      22841.615      73028.915      22015.354      11533.437      10481.916      3913.8358      4035.0147      10401.185      0             -7868.1194      0              153137.99      53.500887      53.500887      53.500887      1.1795922      22806.134      23987.843      21730.868    
[...]
    447000   223500         481.40691      43365.659      114176.2       25827.406      11535.825      14291.582      4186.2437      4252.1432      10514.423      0             -4661.2279      0              139694.34      51.887124      51.887124      51.887124      1.2931117      42845.532      43726.389      43525.055    
    448000   224000         473.17576      44470.401      116304.82      25881.14       11338.584      14542.556      4259.7321      4326.2679      10568.473      0             -4611.9174      0              139423.26      51.853541      51.853541      51.853541      1.2956258      43482.339      44765.046      45163.817    
    449000   224500         477.43297      45926.169      119590.81      26276.464      11440.598      14835.865      4428.627       4388.0927      10647.551      0             -4628.4053      0              139319.64      51.840691      51.840691      51.840691      1.2965895      46102.074      44953.377      46723.055    
    450000   225000         472.13177      44960.893      117527.27      26089.591      11313.567      14776.024      4428.5568      4363.6687      10542.856      0             -4559.0579      0              139448.67      51.85669       51.85669       51.85669       1.2953898      45317.957      44394.879      45169.843    
    451000   225500         476.27785      46014.647      119514.76      26183.586      11412.918      14770.668      4472.8447      4294.2578      10566.577      0             -4563.0116      0              139076.82      51.810556      51.810556      51.810556      1.2988532      47315.87       44490.255      46237.817    
    452000   226000         476.748        45013.807      117509.31      26111.929      11424.184      14687.745      4311.6245      4359.1336      10527.925      0             -4510.9382      0              139223.36      51.828747      51.828747      51.828747      1.2974861      45559.502      44803.59       44678.328    
    453000   226500         479.92352      45658.976      118983.09      26349.474      11500.279      14849.196      4464.1661      4407.9951      10530.931      0             -4553.8962      0              139112.63      51.815002      51.815002      51.815002      1.2985189      45429.78       45827.453      45719.695    
    454000   227000         480.67383      45284.797      118454.74      26513.277      11518.258      14995.019      4521.7608      4425.9299      10523.374      0             -4476.0456      0              139214.05      51.827591      51.827591      51.827591      1.2975729      44726.317      46306.694      44821.38     
    455000   227500         477.30406      45505.471      118513.88      26108.933      11437.509      14671.424      4496.8737      4263.1974      10418.816      0             -4507.4627      0              139237.34      51.830481      51.830481      51.830481      1.2973558      45384.282      46327.535      44804.595    
    456000   228000         485.2565       46060.079      119741.85      26472.554      11628.071      14844.482      4363.9395      4445.8137      10439.482      0             -4404.7528      0              138847.52      51.782067      51.782067      51.782067      1.3009982      45081.402      46568.233      46530.602    
    457000   228500         481.69808      46304.943      120157.04      26275.521      11542.802      14732.719      4383.1565      4273.7069      10499.062      0             -4423.2062      0              139019.87      51.803482      51.803482      51.803482      1.2993854      47198.726      45203.202      46512.901    
    458000   229000         481.29456      46276.466      119903.16      26162.021      11533.133      14628.889      4340.4337      4388.9244      10414.084      0             -4514.5539      0              138897.41      51.788268      51.788268      51.788268      1.3005309      46432.549      45753.607      46643.242    
    459000   229500         479.5691       45659.79       118683.98      26041.227      11491.786      14549.442      4370.6029      4301.177       10485.266      0             -4607.6044      0              139123.88      51.816398      51.816398      51.816398      1.2984139      44769.219      46356.636      45853.515    
    460000   230000         484.38996      47072.336      121706.92      26561.825      11607.307      14954.518      4466.5105      4324.5443      10510.774      0             -4347.3103      0              138594.11      51.750544      51.750544      51.750544      1.303377       47617.117      46355.267      47244.622    
    461000   230500         476.99041      45560.89       118668.1       26323.067      11429.993      14893.074      4358.549       4410.416       10513.316      0             -4389.2077      0              138977.8       51.798257      51.798257      51.798257      1.2997786      44786.456      45552.755      46343.458    
    462000   231000         482.98758      46841.476      121151.22      26184.514      11573.702      14610.812      4382.7484      4237.3773      10436.578      0             -4445.8924      0              139016.05      51.803008      51.803008      51.803008      1.299421       46241.374      47520.028      46763.024    
    463000   231500         491.62446      45640.8        119013.5       26534.126      11780.665      14753.461      4330.3914      4244.6956      10556.9        0             -4378.5264      0              138936.31      51.793102      51.793102      51.793102      1.3001668      46014.021      45988.902      44919.477    
    464000   232000         475.53713      46282.739      119736.89      26242.356      11395.169      14847.188      4311.2036      4215.4852      10626.667      0             -4306.1679      0              138513.23      51.740476      51.740476      51.740476      1.3041381      46132.713      46299.822      46415.682    
    465000   232500         485.4545       46580.118      120803.99      26586.675      11632.816      14953.859      4465.0746      4326.459       10495.026      0             -4332.7001      0              138692.91      51.762839      51.762839      51.762839      1.3024485      46115.342      46939.238      46685.775    
    466000   233000         481.94742      46407.422      120390.79      26436.911      11548.777      14888.134      4442.0329      4278.2535      10526.776      0             -4358.9291      0              138819.79      51.778619      51.778619      51.778619      1.3012581      45546.667      46358.738      47316.86     
    467000   233500         476.79988      46366.507      120150.81      26334.656      11425.428      14909.229      4370.688       4368.0208      10478.261      0             -4307.7415      0              138738.62      51.768525      51.768525      51.768525      1.3020194      46030.228      46331.314      46737.979    
    468000   234000         470.08597      46540.415      120391.92      26409.971      11264.544      15145.427      4492.236       4327.3474      10600.378      0             -4274.5345      0              138464.46      51.734403      51.734403      51.734403      1.3045974      46346.283      46135.677      47139.284    
    469000   234500         476.67118      47995.342      123416.16      26450.452      11422.344      15028.108      4461.8936      4322.5386      10456.038      0             -4212.362       0              138529.79      51.742537      51.742537      51.742537      1.3039822      47577.818      48952.399      47455.81     
    470000   235000         476.31824      46773.299      120984.81      26355.975      11413.886      14942.089      4440.1295      4380.9967      10460.626      0             -4339.6635      0              138723.35      51.766626      51.766626      51.766626      1.3021627      46244.204      46181.029      47894.662    
    471000   235500         474.68526      48328.916      123951.74      26495.71       11374.756      15120.955      4419.2775      4382.9852      10442.855      0             -4124.1634      0              138269.3       51.710085      51.710085      51.710085      1.3064388      47215.956      48629.81       49140.981    
    472000   236000         478.00566      47208.449      121627.23      26349.187      11454.321      14894.865      4276.0967      4397.5244      10430.342      0             -4209.0978      0              138387.61      51.72483       51.72483       51.72483       1.3053219      47576.208      46247.674      47801.465    
    473000   236500         481.60427      47715.986      122953.59      26566.185      11540.554      15025.631      4380.3481      4415.1272      10546.427      0             -4316.2716      0              138509.8       51.740049      51.740049      51.740049      1.3041703      47470.061      47184.872      48493.027    
    474000   237000         485.32253      47630.588      122875.55      26769.532      11629.654      15139.878      4485.0036      4437.0173      10434.294      0             -4216.4374      0              138353.05      51.720523      51.720523      51.720523      1.305648       47043.65       47051.451      48796.663    
    475000   237500         487.69383      46602.61       120926.34      26792.628      11686.477      15106.151      4417.3276      4373.4004      10492.228      0             -4176.805       0              138502.96      51.739198      51.739198      51.739198      1.3042347      46737.603      46396.896      46673.331    
    476000   238000         486.23266      47464.194      122352.54      26643.889      11651.463      14992.426      4407.253       4310.4739      10462.986      0             -4188.2874      0              138264.03      51.709428      51.709428      51.709428      1.3064886      46400.317      48261.947      47730.319    
    477000   238500         483.10817      48419.279      124254.58      26795.231      11576.592      15218.639      4458.0836      4281.7504      10504.27       0             -4025.4642      0              138015.96      51.678484      51.678484      51.678484      1.3088369      48203.268      48563.577      48490.991    
    478000   239000         484.40108      48139.835      123942.79      26980.839      11607.573      15373.266      4461.7539      4333.775       10575.171      0             -3997.4347      0              138108.65      51.690051      51.690051      51.690051      1.3079585      49123.811      47767.382      47528.313    
    479000   239500         488.12381      47917.719      123494.03      27017.983      11696.78       15321.203      4563.4893      4314.3641      10604.567      0             -4161.217       0              138053.52      51.683172      51.683172      51.683172      1.3084808      48881.954      48179.212      46691.992    
    480000   240000         478.13343      47778.436      122942.14      26742.477      11457.383      15285.094      4426.5876      4409.1833      10581.262      0             -4131.9389      0              138059.32      51.683896      51.683896      51.683896      1.3084258      47126.779      48702.406      47506.122    
    481000   240500         481.50767      48581.458      124454.05      26764.497      11538.239      15226.258      4487.2641      4323.5251      10504.989      0             -4089.5201      0              137880.13      51.661526      51.661526      51.661526      1.3101262      48225.388      49641.161      47877.825    
    482000   241000         477.2777       47572.392      122509.44      26560.002      11436.878      15123.125      4563.6857      4303.9075      10542.299      0             -4286.767       0              138296.62      51.713491      51.713491      51.713491      1.3061807      46381.852      47697.269      48638.055    
    483000   241500         474.64566      48667.662      124458.09      26531.961      11373.807      15158.154      4354.5635      4352.6387      10491.804      0             -4040.8519      0              137969.22      51.67265       51.67265       51.67265       1.3092803      49157.135      49448.368      47397.484    
    484000   242000         478.54393      48204.916      123682.8       26690.88       11467.22       15223.66       4367.905       4343.2549      10492.811      0             -3980.3103      0              137964.81      51.672099      51.672099      51.672099      1.3093221      48028.189      49178.5        47408.059    
    485000   242500         476.03208      48902.775      125255.87      26974.457      11407.029      15567.428      4459.1507      4471.522       10444.116      0             -3807.361       0              137804.06      51.652023      51.652023      51.652023      1.3108495      49044.718      48757.954      48905.655    
    486000   243000         477.88039      48360.009      124079.42      26789.979      11451.32       15338.66       4532.5057      4423.5431      10491.022      0             -4108.4109      0              137944.2       51.669526      51.669526      51.669526      1.3095178      48680.874      48169.256      48229.896    
    487000   243500         480.31604      48449.084      124000.8       26752.799      11509.685      15243.115      4352.0363      4308.0709      10488.241      0             -3905.2333      0              137631.93      51.630508      51.630508      51.630508      1.3124889      48117.957      48799.046      48430.248    
    488000   244000         473.36409      48491.583      124144.08      26690.763      11343.097      15347.666      4493.6166      4299.6296      10517.296      0             -3962.8764      0              137801.64      51.651721      51.651721      51.651721      1.3108725      47964.349      48546.843      48963.556    
    489000   244500         479.08821      48427.13       124221.09      26853.371      11480.262      15373.109      4445.048       4430.9838      10476.599      0             -3979.5224      0              137863.85      51.659492      51.659492      51.659492      1.310281       48483.087      48502.023      48296.279    
    490000   245000         479.92579      49327.785      126032.57      27013.548      11500.333      15513.214      4493.4524      4419.2179      10485.46       0             -3884.9161      0              137642.05      51.631774      51.631774      51.631774      1.3123924      48201.104      50118.096      49664.155    
    491000   245500         479.33133      47787.685      122781.5       26729.994      11486.088      15243.905      4387.2507      4336.3437      10576.718      0             -4056.407       0              137820.01      51.654016      51.654016      51.654016      1.3106978      47768.742      47740.629      47853.685    
    492000   246000         485.92861      48879.115      125279.75      27124.269      11644.177      15480.092      4497.4765      4437.1662      10366.839      0             -3821.3895      0              137694.1       51.638281      51.638281      51.638281      1.3118963      48502.752      49030.036      49104.555    
    493000   246500         480.23817      49889.919      127248.21      27210.694      11507.819      15702.876      4470.9137      4483.2275      10497.988      0             -3749.2539      0              137490.97      51.612876      51.612876      51.612876      1.3138344      49056.299      50653.144      49960.314    
    494000   247000         482.43061      48803.123      124900.15      26936.905      11560.355      15376.549      4383.4772      4398.7215      10567.104      0             -3972.7535      0              137638.41      51.631319      51.631319      51.631319      1.3124271      48687.61       49454.709      48267.049    
    495000   247500         477.73562      49999.316      127100.41      26974.123      11447.851      15526.273      4448.7713      4301.1924      10510.597      0             -3734.288       0              137311.89      51.590458      51.590458      51.590458      1.315548       49884.134      51362.687      48751.128    
    496000   248000         482.43161      50706.806      128713.85      27126.173      11560.379      15565.794      4581.6812      4246.0685      10567.703      0             -3829.6585      0              137372.21      51.598011      51.598011      51.598011      1.3149703      51690.18       50370.504      50059.735    
    497000   248500         478.83334      49117.506      125561.14      26949.172      11474.155      15475.017      4563.1159      4420.4918      10455.283      0             -3963.874       0              137663.06      51.634401      51.634401      51.634401      1.3121921      48051.082      49902.848      49398.589    
    498000   249000         486.17153      50202.837      127820.91      27215.821      11649.998      15565.823      4547.7751      4332.075       10582.472      0             -3896.4996      0              137409.19      51.602641      51.602641      51.602641      1.3146164      50013.493      50573.231      50021.788    
    499000   249500         474.32431      51019.954      129189.33      27160.957      11366.106      15794.851      4539.2089      4497.3698      10548.83       0             -3790.5584      0              137121.32      51.56658       51.56658       51.56658       1.3173763      50482.939      50886.179      51690.745    
    500000   250000         472.08062      49815.796      126621.43      26806.537      11312.341      15494.196      4514.501       4302.0271      10519.109      0             -3841.4417      0              137389.13      51.600129      51.600129      51.600129      1.3148084      48711.119      51035.411      49700.858    
Loop time of 2861.46 on 8 procs for 500000 steps with 8040 atoms

Performance: 7.549 ns/day, 3.179 hours/ns, 174.736 timesteps/s, 1.405 Matom-step/s
98.5% CPU use with 8 MPI tasks x 1 OpenMP threads

MPI task timing breakdown:
Section |  min time  |  avg time  |  max time  |%varavg| %total
---------------------------------------------------------------
Pair    | 2277.9     | 2316.7     | 2341.3     |  44.7 | 80.96
Bond    | 76.747     | 77.8       | 78.744     |   8.4 |  2.72
Neigh   | 55.61      | 55.617     | 55.627     |   0.1 |  1.94
Comm    | 346.32     | 372.02     | 412.41     | 115.8 | 13.00
Output  | 0.79731    | 0.83268    | 0.87381    |   2.6 |  0.03
Modify  | 24.134     | 24.783     | 25.398     |   9.2 |  0.87
Other   |            | 13.67      |            |       |  0.48

Nlocal:           1005 ave        1015 max         998 min
Histogram: 2 2 0 0 0 1 0 2 0 1
Nghost:        10299.9 ave       10330 max       10271 min
Histogram: 2 0 1 1 0 0 1 1 1 1
Neighs:         502323 ave      508064 max      497276 min
Histogram: 1 1 1 0 1 2 0 0 1 1

Total # of neighbors = 4018583
Ave neighs/atom = 499.82376
Ave special neighs/atom = 5.9701493
Neighbor list builds = 4419
Dangerous builds = 0

unfix npt_comp

undump dump_comp

write_dump all custom npt_compress_last.dump id type mol x y z xu yu zu vx vy vz modify sort id
write_data /home/arz2/PolyJarvis/data/cis-PBD4/lammps/equil/npt_compress/npt_compress_out.data
System init for write_data ...
Generated 3 of 3 mixed pair_coeff terms from arithmetic mixing rule

print "STAGE COMPLETE: NPT compression P=1.0->50000.0atm density target reached"
STAGE COMPLETE: NPT compression P=1.0->50000.0atm density target reached
quit
 1 1 1 1
Neighs:         502323 ave      508064 max      497276 min
Histogram: 1 1 1 0 1 2 0 0 1 1

Total # of neighbors = 4018583
Ave neighs/atom = 499.82376
Ave special neighs/atom = 5.9701493
Neighbor list builds = 4419
Dangerous builds = 0
System init for write_data ...
Generated 3 of 3 mixed pair_coeff terms from arithmetic mixing rule
STAGE COMPLETE: NPT compression P=1.0->50000.0atm density target reached
