LAMMPS data file via write_data, version 22 Jul 2025, timestep = 1000000, units = real

10820 atoms
8 atom types
11610 bonds
10 bond types
19600 angles
16 angle types
29180 dihedrals
19 dihedral types
8000 impropers
11 improper types

4.986655262004007 56.9069261679876 xlo xhi
4.986655262004007 56.9069261679876 ylo yhi
4.986655262004007 56.9069261679876 zlo zhi

Masses

1 12.01115
2 12.01115
3 1.00797
4 1.00797
5 15.9994
6 15.9994
7 15.9994
8 32.064

Pair Coeffs # lj/class2/coul/long/kk

1 0.054 4.01
2 0.064 4.01
3 0.02 2.995
4 0.013 1.098
5 0.06 3.535
6 0.24 3.535
7 0.24 3.535
8 0.25 4.027

Bond Coeffs # class2/kk

1 1.53 299.67 -501.77 679.81
2 1.501 321.902 -521.821 572.163
3 1.101 345 -691.89 844.6
4 1.417 470.836 -627.618 1327.63
5 1.0982 372.825 -803.453 894.317
6 1.3768 428.88 -738.235 1114.97
7 1.3768 428.88 -738.235 1114.97
8 1.72 239.802 0 0
9 0.965 532.506 -1282.9 2004.77
10 1.4308 743.76 0 0

Angle Coeffs # class2/kk

1 112.67 39.516 -7.443 -9.5583
2 108.4 43.9594 -8.3924 -9.3379
3 110.77 41.453 -10.604 5.129
4 120.05 44.7148 -22.7352 0
5 111 44.3234 -9.4454 0
6 118.9 61.0226 -34.9931 0
7 117.94 35.1558 -12.4682 0
8 123.42 73.6781 -21.6787 0
9 123.42 73.6781 -21.6787 0
10 120 60 0 0
11 109.5 60 0 0
12 108.19 53.125 -8.5016 0
13 102 58 0 0
14 113.1 42.3 0 0
15 107.66 39.641 -12.921 -2.4318
16 119.329 135 0 0

BondBond Coeffs

1 0 1.53 1.53
2 0 1.53 1.501
3 3.3872 1.53 1.101
4 12.0676 1.501 1.417
5 0 1.501 1.501
6 68.2856 1.417 1.417
7 1.0795 1.417 1.0982
8 48.4754 1.417 1.3768
9 48.4754 1.417 1.3768
10 0 1.417 1.72
11 0 1.3768 1.3768
12 20.6577 1.3768 0.965
13 0 1.72 1.72
14 0 1.72 1.4308
15 5.3316 1.101 1.101
16 40 1.4308 1.4308

BondAngle Coeffs

1 8.016 8.016 1.53 1.53
2 0 0 1.53 1.501
3 20.754 11.421 1.53 1.101
4 47.0579 31.0771 1.501 1.417
5 0 0 1.501 1.501
6 28.8708 28.8708 1.417 1.417
7 20.0033 24.2183 1.417 1.0982
8 58.479 107.681 1.417 1.3768
9 58.479 107.681 1.417 1.3768
10 0 0 1.417 1.72
11 0 0 1.3768 1.3768
12 53.8614 23.9224 1.3768 0.965
13 0 0 1.72 1.72
14 0 0 1.72 1.4308
15 18.103 18.103 1.101 1.101
16 0 0 1.4308 1.4308

Dihedral Coeffs # class2/kk

1 0 0 0.0316 0 -0.1681 0
2 -0.2802 0 -0.0678 0 -0.0122 0
3 0 0 4.4072 0 0 0
4 0 0 1.559 0 0 0
5 -0.0228 0 0.028 0 -0.1863 0
6 -0.2802 0 -0.0678 0 -0.0122 0
7 8.3667 0 1.1932 0 0 0
8 0 0 3.9661 0 0 0
9 0 0 4.8498 0 0 0
10 0 0 4.8498 0 0 0
11 0 0 3 0 0 0
12 0 0 1.8 0 0 0
13 -0.69 0 0.5097 0 0.0095 0
14 0 0 1.5 0 0 0
15 0 0 1.5 0 0 0
16 0 0 1.8769 0 0 0
17 0 0 1.7234 0 0 0
18 0 0 1.7234 0 0 0
19 0 0 3 0 0 0

AngleAngleTorsion Coeffs

1 -16.164 112.67 110.77
2 0 108.4 120.05
3 -14.4097 120.05 118.9
4 4.4444 120.05 117.94
5 0 108.4 110.77
6 0 111 120.05
7 0 118.9 118.9
8 -4.8141 118.9 117.94
9 -21.0247 118.9 123.42
10 -21.0247 118.9 123.42
11 0 118.9 120
12 0 123.42 109.5
13 -4.6072 123.42 108.19
14 0 120 102
15 0 120 113.1
16 0.3598 117.94 117.94
17 4.2296 117.94 123.42
18 4.2296 117.94 123.42
19 0 117.94 120

EndBondTorsion Coeffs

1 0.2486 0.2422 -0.0925 0.0814 0.0591 0.2219 1.53 1.101
2 0 0 0 0 0 0 1.53 1.417
3 0 0.2421 0 0 -0.6918 0 1.501 1.417
4 0 -1.797 0 0 -0.4879 0 1.501 1.0982
5 0 0 0 0 0 0 1.501 1.101
6 0 0 0 0 0 0 1.501 1.417
7 -0.1185 6.3204 0 -0.1185 6.3204 0 1.417 1.417
8 0 -6.8958 0 0 -0.4669 0 1.417 1.0982
9 0 0.2655 0 0 4.8905 0 1.417 1.3768
10 0 0.2655 0 0 4.8905 0 1.417 1.3768
11 0 0 0 0 0 0 1.417 1.72
12 0 0 0 0 0 0 1.417 1.3768
13 0.9 -1.3456 1.19 3.4132 0.5873 -0.1323 1.417 0.965
14 0 0 0 0 0 0 1.417 1.72
15 0 0 0 0 0 0 1.417 1.4308
16 0 -0.689 0 0 -0.689 0 1.0982 1.0982
17 0 -1.5867 0 0 4.2641 0 1.0982 1.3768
18 0 -1.5867 0 0 4.2641 0 1.0982 1.3768
19 0 0 0 0 0 0 1.0982 1.72

MiddleBondTorsion Coeffs

1 -14.879 -3.6581 -0.3138 1.53
2 0 0 0 1.501
3 0 9.1792 0 1.417
4 0 3.9421 0 1.417
5 0 0 0 1.53
6 0 0 0 1.501
7 27.5989 -2.312 0 1.417
8 0 -1.1521 0 1.417
9 0 4.8255 0 1.417
10 0 4.8255 0 1.417
11 0 0 0 1.417
12 0 0 0 1.3768
13 1.158 3.2697 3.5132 1.3768
14 0 0 0 1.72
15 0 0 0 1.72
16 0 4.8228 0 1.417
17 0 5.5432 0 1.417
18 0 5.5432 0 1.417
19 0 0 0 1.417

BondBond13 Coeffs

1 0 1.53 1.101
2 0 1.53 1.417
3 2.5085 1.501 1.417
4 0.8743 1.501 1.0982
5 0 1.501 1.101
6 0 1.501 1.417
7 53 1.417 1.417
8 -6.2741 1.417 1.0982
9 -2.2436 1.417 1.3768
10 -2.2436 1.417 1.3768
11 0 1.417 1.72
12 0 1.417 1.3768
13 1.159 1.417 0.965
14 0 1.417 1.72
15 0 1.417 1.4308
16 -1.7077 1.0982 1.0982
17 2.0517 1.0982 1.3768
18 2.0517 1.0982 1.3768
19 0 1.0982 1.72

AngleTorsion Coeffs

1 -0.2454 0 -0.1136 0.3113 0.4516 -0.1988 112.67 110.77
2 0 0 0 0 0 0 108.4 120.05
3 0 -4.4683 0 0 3.8987 0 120.05 118.9
4 0 -0.1242 0 0 3.4601 0 120.05 117.94
5 0 0 0 0 0 0 108.4 110.77
6 0 0 0 0 0 0 111 120.05
7 1.9767 1.0239 0 1.9767 1.0239 0 118.9 118.9
8 0 2.5014 0 0 2.7147 0 118.9 117.94
9 0 10.0155 0 0 1.7404 0 118.9 123.42
10 0 10.0155 0 0 1.7404 0 118.9 123.42
11 0 0 0 0 0 0 118.9 120
12 0 0 0 0 0 0 123.42 109.5
13 -5.136 -1.0122 0 4.6852 0.023 -0.598 123.42 108.19
14 0 0 0 0 0 0 120 102
15 0 0 0 0 0 0 120 113.1
16 0 2.4501 0 0 2.4501 0 117.94 117.94
17 0 1.8729 0 0 2.5706 0 117.94 123.42
18 0 1.8729 0 0 2.5706 0 117.94 123.42
19 0 0 0 0 0 0 117.94 120

Improper Coeffs # class2/kk

1 0 0
2 0 0
3 0 0
4 0 0
5 7.8153 0
6 4.8912 0
7 13.0421 0
8 13.0421 0
9 0 0
10 0 0
11 0 0

AngleAngle Coeffs

1 0 0 0 112.67 108.4 108.4
2 0 0 0 108.4 108.4 111
3 0.2738 -0.4825 0.2738 110.77 110.77 107.66
4 -0.3157 -0.3157 -0.3157 107.66 107.66 107.66
5 0 0 0 120.05 120.05 118.9
6 0 0 0 118.9 117.94 117.94
7 0 0 0 118.9 123.42 123.42
8 0 0 0 118.9 123.42 123.42
9 0 0 0 118.9 120 120
10 0 0 0 102 113.1 113.1
11 0 0 0 113.1 113.1 119.329

Atoms # full/kk

2853 3 2 -0.1268 56.791126028982326 10.074065474108737 9.96983099660931 0 0 0
3298 4 3 0.1268 6.340011807692201 6.839714879073473 9.251217095490436 0 0 0
3297 4 2 -0.1268 5.7273409973035045 6.235045090383948 8.531752648021417 0 0 0
3299 4 2 -0.1268 5.262589141876161 7.046455310730357 7.594711011562059 0 0 0
3264 4 2 -0.1268 7.564897329171931 5.298817661709284 10.758912988101882 0 0 0
3300 4 3 0.1268 5.271497167847972 8.11638770862216 7.661299002686477 0 0 0
3254 4 1 0 5.552530926658886 56.08880133223279 10.012554061710727 0 -1 0
3253 4 2 0 5.229382724263439 5.009150840816375 8.771151277209889 0 0 0
3265 4 3 0.1268 7.898276723396197 56.618507633641215 9.841366800041145 0 -1 0
1308 2 3 0.053 9.416646375650814 7.823511034269478 7.189559459124134 0 0 1
3263 4 2 0 6.238707287702399 5.069999202162176 10.917033321300075 0 0 0
1309 2 3 0.053 7.988063382558582 6.9432697089059 6.482412969201055 0 0 1
1307 2 1 -0.159 8.944778148350427 7.437479642745395 6.205267721699961 0 0 1
1310 2 3 0.053 8.866888972039199 8.23559804517089 5.497035480477646 0 0 1
1317 2 3 0.1268 11.160657700223164 9.038346692597568 5.746648354546887 0 0 1
9894 10 3 0.1268 6.030376904469635 9.287801851898514 56.85222525452393 1 1 -1
1306 2 1 0 9.844946223011355 6.256039287315604 5.6054014975272395 0 0 1
1305 2 2 0 10.304312397328744 5.410937697839958 6.815087840013624 0 0 1
1350 2 3 0.1268 11.616707740905118 6.977524918358831 7.847852648598777 0 0 1
1349 2 2 -0.1268 11.191867976558449 5.938106241909765 7.812191064493241 0 0 1
1352 2 3 0.1268 12.692819339133965 5.353020538566455 9.062430826064725 0 0 1
5708 6 3 0.1268 15.002620141193022 5.586893943637522 6.094639511349036 0 0 1
1324 2 3 0.1268 15.90490729862384 7.248046347866076 5.330771370889903 0 0 1
5712 6 5 -0.1143 14.865228460879358 6.495271450016504 10.024246334044095 0 0 1
5710 6 8 0.0822 15.85547441780897 6.110141449921263 9.055842637211533 0 0 1
1347 2 2 -0.1268 12.114128707977482 5.984010962624231 56.27298201518744 0 0 0
1348 2 3 0.1268 11.88276104708625 56.84437852476324 56.09724983650317 0 -1 0
1315 2 2 0 11.28236655879236 6.836320908687258 5.132887047383238 0 0 1
1316 2 2 -0.1268 11.700783375431847 8.177721494127454 5.2717980713988 0 0 1
1323 2 2 -0.1268 16.332777783063168 8.137072824924783 4.9875707225403545 0 0 1
5711 6 5 -0.1143 16.290442507388015 7.1812652312319205 8.15198675902496 0 0 1
6239 6 3 0.1268 22.441085813684637 11.062547365625722 9.174844198512448 0 -1 1
1329 2 5 -0.1143 20.622732911285425 8.762847750776341 6.216931052542974 0 0 1
6235 6 3 0.053 21.700431704328718 8.638011738890002 9.947434635163905 0 -1 1
5714 6 2 -0.1268 18.46047714387848 5.690768933112079 9.075587275949028 0 0 1
5715 6 3 0.1268 18.64660218967031 6.005724004047745 8.0688020281234 0 0 1
1325 2 2 -0.1268 17.608077863778558 8.48265802456843 5.434361512724694 0 0 1
1326 2 3 0.1268 18.223624745628086 7.790799745500081 6.101234692812359 0 0 1
6236 6 3 0.053 22.368917985457824 9.072370514163143 8.32681826895133 0 -1 1
6233 6 1 -0.159 22.48209667435004 8.471510537579178 9.168372527755087 0 -1 1
5258 5 3 0.053 22.68931796542698 6.2538670660309705 5.984402534134173 0 1 0
6270 6 3 0.1268 24.736925137917464 9.25299925861685 12.397412995098083 0 -1 1
6234 6 3 0.053 22.546378565322946 7.464718106255136 8.770139222405737 0 -1 1
6237 6 2 0 23.74984219066661 10.118721132014453 10.623246180799597 0 -1 1
5255 5 1 -0.159 23.211770731354363 5.390273326454734 5.485266256494701 0 1 0
6225 6 2 -0.1268 24.994975942843688 8.501455926911115 7.366468440803968 0 -1 1
6230 6 3 0.053 24.88628429802783 7.552257066992787 11.532960767051739 0 -1 1
4467 5 5 -0.1143 27.64442334041231 6.668453055901165 10.19856592255228 0 0 0
6223 6 2 -0.1268 25.868566390908736 8.729693553513872 6.398129879793526 0 -1 1
6229 6 1 -0.159 24.279533952241888 7.452806691955054 10.608106649755186 0 -1 1
6272 6 3 0.1268 26.282825923715276 10.33995797186388 9.919965813217582 0 -1 1
6227 6 2 0 25.035303654962593 9.122886259170762 8.702904764836767 0 -1 1
6271 6 2 -0.1268 26.062863564034913 10.059874946964074 8.898471809102064 0 -1 1
6228 6 1 0 23.968360796737024 8.695305815252013 9.806616658345686 0 -1 1
6231 6 3 0.053 24.723128661380628 6.652720441082094 10.089853303335875 0 -1 1
5256 5 3 0.053 23.302404787468543 5.422994884849585 56.35585912543578 0 1 -1
6274 6 3 0.1268 27.740757317696048 10.991019196135568 8.124227498049189 0 -1 1
6222 6 2 0.0265 26.77575725511909 9.766028894244311 6.552547171008574 0 -1 1
6273 6 2 -0.1268 26.92610924974577 10.344265446721543 7.852663487875775 0 -1 1
5257 5 3 0.053 24.12324455286664 5.214340944746631 5.922291290463991 0 1 0
6221 6 6 -0.053 27.415097282743876 10.127986186148153 5.398749997124183 0 -1 1
4477 5 2 -0.1268 29.81195244160085 8.793882721165403 9.683502412423387 0 0 0
4478 5 3 0.1268 29.977879017090405 7.7903921244068695 9.172257770514612 0 0 0
4472 5 2 -0.1268 29.37758206319996 11.096655452660725 11.215047463782586 0 0 0
4475 5 2 -0.1268 30.583765409079042 9.862869162429128 9.376714438838915 0 0 0
4474 5 2 0.0265 30.290821308831553 11.077534560128282 10.091089345358103 0 0 0
4476 5 3 0.1268 31.210255134153982 9.909015713253758 8.483420889566375 0 0 0
5763 6 2 0.0732 29.75715545768382 6.299665504329221 5.088408795413801 0 0 1
5777 6 2 -0.1268 29.894812491489517 5.661654042370699 6.275299002066052 0 0 1
5778 6 3 0.1268 30.7275336115903 6.006688362864251 6.9889497372220095 0 0 1
5766 6 5 -0.1143 31.55858847749807 8.180567116901095 5.677303628774224 0 0 1
5769 6 3 0.1268 32.94986939246311 6.181563956032234 6.297796668425316 0 0 1
5768 6 2 -0.1268 33.179118766818604 5.906619015061125 5.1774127046853895 0 0 1
4634 5 2 -0.1268 33.34142084345218 11.532320490137066 7.1567855381087515 0 0 0
4635 5 3 0.1268 33.71562954962406 10.577332276302215 7.489274089606837 0 0 0
4483 5 2 -0.1268 34.465765649606396 6.950332311509478 11.034634767317437 0 0 0
4456 5 2 -0.1268 35.46190008201342 56.72960923477143 11.587681441956832 0 -1 0
5771 6 3 0.1268 34.65907409888936 56.87645066177014 5.909433533118698 0 -1 1
4454 5 2 -0.1268 36.47373064630258 5.015804286790953 10.533388918720314 0 0 0
4486 5 3 0.1268 35.49914520403256 8.13147143082473 9.654388479080435 0 0 0
4453 5 2 0 36.379713850251335 6.145073965099999 9.728563380669451 0 0 0
4444 5 1 0 37.31163951444644 6.729902357459576 8.717882190342623 0 0 0
4451 5 3 0.053 38.230225785144754 5.076406347730618 7.302224283233669 0 0 0
4447 5 3 0.053 35.843010691868784 7.0143806011255005 6.90905485210958 0 0 0
4445 5 1 -0.159 36.7027641837699 7.5258984463193945 7.420251672792498 0 0 0
4485 5 2 -0.1268 35.41558054833571 7.109545952844613 10.069687267578582 0 0 0
4446 5 3 0.053 37.290648118125354 7.702556537298154 6.4860745786948515 0 0 0
4448 5 3 0.053 36.300334702569444 8.569378975910402 7.824175757065177 0 0 0
4449 5 1 -0.159 38.30696580056739 5.518032263055909 8.321217973566139 0 0 0
4455 5 3 0.1268 37.19923003848278 56.13902474193833 10.731774704216491 0 -1 0
4443 5 2 0 38.28865595052396 7.7275989779447904 9.409751378673919 0 0 0
4450 5 3 0.053 39.31966108668412 5.8763961405600025 8.222421932037225 0 0 0
4452 5 3 0.053 38.57231443479439 56.53213226114274 8.935628300828897 0 -1 0
4487 5 2 -0.1268 38.860675159052505 8.754566598709436 8.662522716559645 0 0 0
4488 5 3 0.1268 38.92256177202914 8.946239024873195 7.606993598177784 0 0 0
4613 5 3 0.053 42.85938270104875 9.496791330806285 55.909855337633246 0 0 -1
4611 5 1 -0.159 43.25942008662715 9.294327809972174 5.042540598384794 0 0 0
6028 6 2 0.0265 42.99331252859988 56.53519929510996 7.481516185407088 0 -1 1
6029 6 2 -0.1268 42.92420727513282 5.310442688316544 6.269487574434216 0 0 1
4489 5 2 -0.1268 39.824384924273154 9.657506580007738 9.036190741563424 0 0 0
6030 6 3 0.1268 42.762387820773704 6.415297696511971 6.26409398350898 0 0 1
4614 5 3 0.053 44.25378665643183 8.735852750095765 56.79450847999847 0 0 -1
6026 6 2 0.0265 42.562903263825795 5.240197542329847 9.927794803106758 0 0 1
6027 6 6 -0.053 42.88880143864916 5.526825989064177 8.58961982887325 0 0 1
4607 5 1 -0.159 43.85818862780601 10.186725269377668 7.403718415483469 0 0 0
4610 5 3 0.053 43.11362586109502 9.519855912320292 7.928159757349711 0 0 0
4608 5 3 0.053 44.76636765597329 9.67047058932073 7.466486441618827 0 0 0
9524 9 3 0.1268 47.31367067318406 9.96594325596116 8.852466537944602 -1 1 0
9502 9 2 -0.1268 50.42434486544309 10.502865812393264 8.338756058811361 -1 1 0
9523 9 2 -0.1268 47.77817988484486 10.103385888072017 9.86240501565546 -1 1 0
9600 9 3 0.1268 45.59984913426649 5.558562105536491 9.320649078181324 -1 1 0
9525 9 2 -0.1268 47.45409015246816 9.027722596447958 10.737734949824649 -1 1 0
9601 9 2 -0.1268 47.35142850380455 5.654833131462356 7.958890187146859 -1 1 0
9613 9 2 -0.1268 51.33566321723182 7.291542645880156 9.550919511566562 -1 1 0
9614 9 3 0.1268 51.127860912424765 8.125946609345165 10.29634576129918 -1 1 0
9606 9 5 -0.1143 48.98639614489413 6.673880668687041 5.876282715409061 -1 1 0
9607 9 2 0.0732 50.636055586331594 5.847573934956408 7.676654007943014 -1 1 0
9616 9 3 0.1268 49.15778395086953 7.07017889963954 9.009131695708618 -1 1 0
9615 9 2 -0.1268 50.29727911592797 6.821756554287233 8.75772575617338 -1 1 0
9604 9 8 0.0822 49.54599828141666 5.563974363513486 6.438597724996961 -1 1 0
9602 9 3 0.1268 47.484927348653436 6.7927893511173165 7.898232594862903 -1 1 0
9599 9 2 -0.1268 46.584204469503625 5.092403265594154 8.901981507164743 -1 1 0
4604 5 3 0.1268 46.09817104371994 10.40268595257739 5.711329968745419 0 0 0
9526 9 3 0.1268 46.68611543746113 8.16879161162467 10.49148376055395 -1 1 0
2843 3 5 -0.1143 54.67705505792668 9.227490186343797 8.111153912970982 0 0 0
9612 9 2 0.0265 52.555558357774515 6.578348325918587 9.641298346440387 -1 1 0
2842 3 8 0.0822 54.74175571502811 10.722470864718758 8.090801495181479 0 0 0
9629 9 6 -0.053 53.62469890871348 7.147401308683021 10.334218286979194 -1 1 0
3256 4 3 0.053 55.399302983147464 56.65029443029572 10.564222245437213 -1 -1 0
2844 3 5 -0.1143 54.592189460820556 11.459454941708719 6.908850547325707 0 0 0
2854 3 3 0.1268 55.981084854434584 9.792452031273788 10.628268303280077 0 0 0
2845 3 2 0.0732 56.33475412180091 10.86166593719248 8.862882528493312 0 0 0
9501 9 3 0.1268 50.996351187215815 9.087429906580358 6.773348246157834 -1 1 0
9500 9 2 -0.1268 50.841909800422904 10.215883656185712 7.095830674839897 -1 1 0
9503 9 3 0.1268 50.104971915398664 9.683947559604183 9.017946520385845 -1 1 0
2841 3 2 0.0732 53.82998166943418 11.313519580788645 9.46858242303564 0 0 0
2856 3 3 0.1268 53.37733318259278 9.362903408394708 10.377869718706012 0 0 0
2855 3 2 -0.1268 53.38245952158843 10.478257885081401 10.542550859102885 0 0 0
9499 9 2 0.0732 51.26444835351853 11.158454152161653 6.092528025206091 -1 1 0
2847 3 3 0.1268 5.084866108279511 12.133000159187871 7.123062619331633 1 0 0
2849 3 3 0.1268 7.3483307036801415 12.2978920799266 7.8665463559660465 1 0 0
2846 3 2 -0.1268 5.41917554615196 11.45347945989441 8.028939177643213 1 0 0
2850 3 2 0.0265 7.1984187693798525 10.793683918649398 9.622327167477415 1 0 0
2867 3 6 -0.053 8.362727906741567 11.17821122336467 10.184870948026541 1 0 0
2870 3 3 0.1268 9.946408357748457 9.891214395439103 8.602505345775828 1 0 0
2868 3 2 0.0265 9.264122806447787 11.817914126260128 9.383252522766961 1 0 0
2848 3 2 -0.1268 6.713593095475692 11.478342108516056 8.474043387299046 1 0 0
2869 3 2 -0.1268 10.113072348248094 11.065950408549043 8.60193766325388 1 0 0
2919 3 2 -0.1268 9.509629025873004 13.190021023841203 9.446323001742595 1 0 0
1915 2 6 -0.053 6.1349620369047635 15.763367307765497 10.952891013732776 0 -1 0
2872 3 3 0.1268 11.530195926825648 10.87728917660139 7.064257550481003 1 0 0
2871 3 2 -0.1268 11.03521675265403 11.655817462251505 7.781571196520429 1 0 0
9890 10 3 0.1268 6.825157098438414 16.18024003371307 5.3120491568100645 1 1 0
9889 10 2 -0.1268 6.227489303085473 15.256389621151413 5.089415778023969 1 1 0
9892 10 3 0.1268 7.980588692270213 14.160973559517332 5.38253687627766 1 1 0
9891 10 2 -0.1268 6.902552433425097 14.042053582890857 5.205807256279339 1 1 0
9869 10 6 -0.053 7.072506172225115 11.772955446117859 56.906838463545505 1 1 -1
2916 3 3 0.1268 10.29886768979225 15.092166859641468 55.974541353548894 1 0 -1
2917 3 2 -0.1268 10.357755281699752 13.752873811007472 8.474430102717642 1 0 0
2918 3 3 0.1268 10.209401385471793 14.903972431972303 8.426647144773126 1 0 0
2873 3 2 0 11.041084964201806 12.989580515184931 7.5066941445890585 1 0 0
2874 3 1 0 11.469030496193236 13.413757029523735 6.017374606616103 1 0 0
2883 3 2 0 11.30593014683489 14.933191976992418 5.8073632928831636 1 0 0
2915 3 2 -0.1268 10.809585066767681 15.654342946621258 56.74825952835441 1 0 -1
2881 3 3 0.053 13.748709384580433 14.044819911216907 5.728797288853408 1 0 0
2879 3 1 -0.159 13.085726734349729 13.13964402199972 5.771559362439871 1 0 0
2880 3 3 0.053 13.49812055285115 12.311438944804825 6.46045926845652 1 0 0
2882 3 3 0.053 13.275926067084836 12.732499915346729 56.63860297327786 1 0 -1
2885 3 3 0.1268 12.59382224614609 15.088314591659467 7.50338373853809 1 0 0
2884 3 2 -0.1268 12.10548314194973 15.633716969176062 6.774365734597032 1 0 0
1234 2 3 0.1268 16.39151374344079 14.521168379889401 5.288054029656097 0 0 1
2913 3 2 -0.1268 10.814607531036097 17.02529294921944 56.770988685746 1 0 -1
2876 3 3 0.053 11.210714416561384 11.806261086379148 56.560075189379155 1 0 -1
2877 3 3 0.053 9.75118689888278 12.382318561616202 5.318956252149889 1 0 0
2878 3 3 0.053 10.687195350045938 13.158020821622973 55.82583585802781 1 0 -1
2875 3 1 -0.159 10.745023805024113 12.668247330788041 56.81471728024981 1 0 -1
1228 2 2 0.0265 17.17692871298584 14.237541206280778 9.114809266788736 0 0 1
1229 2 2 -0.1268 18.068645299476987 13.541396140777463 8.308052120059537 0 0 1
1223 2 2 0.0732 18.313581743750987 15.245120566264173 6.600722284892875 0 0 1
1230 2 3 0.1268 18.29689880625278 12.452926857671226 8.537707104532464 0 0 1
1231 2 2 -0.1268 18.528921885182665 13.959653884269716 7.125680080449561 0 0 1
1232 2 3 0.1268 19.00291218022577 13.213617764426466 6.445842771034837 0 0 1
1226 2 2 -0.1268 16.903147745132895 15.549490146353223 8.742144759525985 0 0 1
1224 2 2 -0.1268 17.574658222774083 16.015304701741286 7.572629133220279 0 0 1
6241 6 3 0.1268 22.30213295583967 13.219269894931985 10.507009353205994 0 -1 1
1233 2 2 -0.1268 16.68849585339839 14.639348934355892 56.09034983905042 0 0 0
5328 5 3 0.1268 21.169627182093617 15.072421387146491 8.627601419549572 0 1 0
6238 6 2 -0.1268 22.999500381783907 11.172179768424083 10.169898826402832 0 -1 1
5324 5 2 0.0265 23.464684197101516 14.413373359839916 6.078300599209922 0 1 0
6240 6 2 -0.1268 22.94688849152131 12.389640711120064 10.860337056060713 0 -1 1
5326 5 3 0.1268 22.28885626131268 13.086964203580614 7.3520514046765335 0 1 0
5325 5 2 -0.1268 22.559325812236995 14.156179605598858 7.122303553035256 0 1 0
6226 6 3 0.1268 24.120954277901003 7.856502417273031 7.250128850095558 0 -1 1
6206 6 3 0.1268 26.22208508708484 12.186042121254328 6.05075554480061 0 -1 1
5327 5 2 -0.1268 22.010048235982186 15.165966191276087 7.890295201047793 0 1 0
6224 6 3 0.1268 25.51099328202663 8.37937352705067 5.459316108803129 0 -1 1
4496 5 3 0.1268 27.562466438475763 15.52447895775856 10.277259241984432 0 0 0
6208 6 3 0.1268 26.662973143615602 14.43485988483762 5.459807983947783 0 -1 1
5323 5 6 -0.053 23.826794691699384 13.431175088600202 5.159552611918318 0 1 0
6205 6 2 -0.1268 27.040726489267467 12.419480675392283 5.48674681221865 0 -1 1
4544 5 3 0.1268 31.497061046574906 13.319851829563431 11.894087264212716 0 0 0
4541 5 2 -0.1268 30.447836988082884 15.132037952492942 12.124052679067992 0 0 0
4492 5 2 0.0265 30.154695445423396 13.41026907285166 10.199962819088096 0 0 0
4543 5 2 -0.1268 30.79771449828943 13.959985540313095 11.399027609531943 0 0 0
4497 5 2 0 29.246463746107423 15.72375841933429 11.69682919595035 0 0 0
4630 5 5 -0.1143 33.089149326545055 16.391755147471713 8.757271732776486 0 0 0
4493 5 2 -0.1268 29.018897584457573 14.052445686166116 9.913249897884713 0 0 0
4473 5 3 0.1268 28.84571182878746 11.936759402220403 11.583764987472186 0 0 0
4494 5 3 0.1268 28.456495550485204 13.66213442099188 9.09129536167858 0 0 0
4540 5 3 0.1268 30.362227010283835 17.86224409286684 9.98642447697228 0 0 0
4495 5 2 -0.1268 28.638140730107242 15.261598529188529 10.548859520648527 0 0 0
4491 5 6 -0.053 30.715788139841663 12.330462140088422 9.533783509439806 0 0 0
4632 5 2 -0.1268 33.27668147867722 12.46400473397421 8.15720220839454 0 0 0
4636 5 2 0.0265 32.9043858057223 11.833057280982029 5.814125378616477 0 0 0
4637 5 2 -0.1268 32.3041393732003 13.115099086968584 5.493529563241979 0 0 0
4631 5 2 0.0732 32.83102095218787 13.748311756454356 7.9171936272168715 0 0 0
4639 5 2 -0.1268 32.3230353362822 14.000446767458097 6.580805314081977 0 0 0
4640 5 3 0.1268 32.12285233761031 15.088746810446668 6.469134326716551 0 0 0
4629 5 5 -0.1143 33.85283065853442 14.655245139822174 10.339633435378401 0 0 0
4628 5 8 0.0822 33.53546563417281 15.023823420306611 8.978126573636153 0 0 0
4644 5 3 0.1268 37.983221090375935 13.243144113535367 8.50295124528924 0 0 0
4633 5 3 0.1268 33.90483411162029 12.234974576948467 8.942280757140887 0 0 0
4641 5 2 -0.1268 36.018061566602 14.027373802850981 8.54011711454185 0 0 0
4625 5 2 -0.1268 35.39650647040518 15.657938856451178 6.940888906580611 0 0 0
4627 5 2 0.0732 35.018070858918946 14.882698660422504 8.05618209084866 0 0 0
4642 5 3 0.1268 35.97012091271307 13.48718998425493 9.502080782582725 0 0 0
4626 5 3 0.1268 34.54975415717712 16.30509322458304 6.720288166532973 0 0 0
4643 5 2 -0.1268 37.21635068125886 13.777968656896686 7.920958036374242 0 0 0
4623 5 2 -0.1268 36.60252751789134 15.277465743520597 6.195457964641332 0 0 0
4622 5 2 0.0265 37.488859652524255 14.338682757735157 6.65565060938452 0 0 0
4624 5 3 0.1268 36.7939621004759 15.801637791947789 5.283652093713811 0 0 0
4619 5 3 0.1268 38.916971906281326 11.530647343506015 56.517031096735955 0 0 -1
4621 5 6 -0.053 38.57897653426451 13.989362035784962 5.76683876661763 0 0 0
4521 5 5 -0.1143 37.75169366232982 17.28407501545265 8.436942731441661 0 0 0
9733 9 2 -0.1268 45.199709327477 17.458273494426905 9.229723337128432 -1 1 0
4490 5 3 0.1268 40.265876348631465 10.28649714925183 8.247770774002618 0 0 0
4615 5 2 0 41.87636371866262 11.315217114677893 6.109282025809504 0 0 0
9735 9 2 -0.1268 44.69354478148556 17.14156430611661 10.521711619179165 -1 1 0
4617 5 3 0.1268 40.93593146239639 10.592413002999194 56.317730350781574 0 0 -1
4609 5 3 0.053 43.89600835343879 11.124421179345571 7.951323992378475 0 0 0
4646 5 3 0.1268 40.81256980557524 14.349907106001254 7.390522378946474 0 0 0
4618 5 2 -0.1268 39.63809185075089 11.850594053349045 5.320944248183947 0 0 0
4616 5 2 -0.1268 40.768282782267654 11.1486252104502 5.271558106213177 0 0 0
4606 5 1 0 43.285786356621294 10.572034428779418 5.8814475648739055 0 0 0
4620 5 2 0.0265 39.658450593772876 13.140282393887425 5.9665167359786455 0 0 0
4645 5 2 -0.1268 40.752717115451716 13.316213509404111 6.906937221216823 0 0 0
4647 5 2 -0.1268 41.83854833362941 12.532845031383296 6.839504746665201 0 0 0
4648 5 3 0.1268 42.7311170987115 12.866470970794879 7.351006076034562 0 0 0
4605 5 2 0 44.29208271131935 11.675612810152607 5.2681986623328845 0 0 0
9698 9 3 0.053 44.34457409299037 17.075436770863377 6.40573508927091 -1 1 0
9693 9 3 0.053 47.60919383172378 15.398800609219116 6.445750297215113 -1 1 0
9687 9 2 -0.1268 46.48755863138607 15.473994363476983 9.150322516864172 -1 1 0
9522 9 2 0.0265 48.68947504664739 11.019134945913429 10.332532229004633 -1 1 0
9692 9 3 0.053 48.65353639549145 16.53111443882318 7.518756234625646 -1 1 0
9507 9 2 -0.1268 50.82326651494609 12.500223674129256 6.39437805507897 -1 1 0
9694 9 3 0.053 48.27547532547541 16.96034640652561 5.7834959766160505 -1 1 0
9504 9 2 0.0265 49.93770447187793 11.817297281831053 8.489861959368875 -1 1 0
9691 9 1 -0.159 47.89541340728434 16.459642179552418 6.68754656803261 -1 1 0
9690 9 1 0 46.53237785240119 17.084245804179314 7.158734760167033 -1 1 0
1904 2 3 0.053 51.38257735913898 17.44135299670516 7.673516674596604 -1 -1 0
9697 9 3 0.053 45.44895605260168 15.531722217680706 6.134321813853062 -1 1 0
9505 9 2 -0.1268 50.245868078918896 12.831233533983305 7.627098009552736 -1 1 0
9506 9 3 0.1268 50.23199100112139 13.953220564369794 7.708762500819331 -1 1 0
9689 9 2 0 46.046026645105826 16.580448560447905 8.536087507159966 -1 1 0
1898 2 3 0.1268 51.70915802557984 16.26207460649134 10.97900016927334 -1 -1 0
9688 9 3 0.1268 47.44151382737691 14.935508746504706 8.62284499210394 -1 1 0
9685 9 2 -0.1268 45.96407407708743 14.9875104590664 10.382113550610717 -1 1 0
4603 5 2 -0.1268 45.65643878481508 11.317558834440101 5.283542164314026 0 0 0
9521 9 6 -0.053 49.0485822030562 12.169885562557052 9.571945945677058 -1 1 0
9695 9 1 -0.159 45.36746410537139 16.607491679505838 6.0947315135003155 -1 1 0
9696 9 3 0.053 45.67199711772638 16.73859972899129 5.083774754115633 -1 1 0
2840 3 3 0.1268 53.71702841447231 13.23821425432037 8.741251513435772 0 0 0
1913 2 3 0.1268 5.132947799408804 15.544245861546116 8.630216896691545 0 -1 0
1901 2 1 -0.159 52.09939922309858 16.84182374977987 8.281223928597411 -1 -1 0
1914 2 2 0.0265 56.82549672979454 16.3014972787294 10.545286531869042 -1 -1 0
1912 2 2 -0.1268 56.353755059950835 16.13808471731405 9.197736102475732 -1 -1 0
1902 2 3 0.053 51.6321870253394 15.909319201107175 8.867571948774625 -1 -1 0
1910 2 2 -0.1268 55.130701869912976 16.663973297080968 8.684814601490089 -1 -1 0
1903 2 3 0.053 52.69400257257225 16.57742404859288 7.403239043853588 -1 -1 0
1911 2 3 0.1268 54.853877087556974 16.493891174387176 7.611224565036537 -1 -1 0
2839 3 2 -0.1268 53.65650681762615 12.642819771561731 9.620156325454108 0 0 0
9508 9 3 0.1268 51.13050364890262 13.191070406670988 5.573070062852348 -1 1 0
2837 3 2 -0.1268 53.26738755504657 13.245938215696917 10.781585021537236 0 0 0
205 1 2 -0.1268 9.467698383635192 19.12907303899664 11.173738930038175 1 0 0
207 1 2 -0.1268 8.073221670201955 19.190503445677777 11.460030079284566 1 0 0
2894 3 3 0.1268 7.00715479425679 19.51292223230716 6.13291749424336 1 0 0
2893 3 2 -0.1268 7.9227670711807505 20.0540268528518 6.077891204031859 1 0 0
206 1 3 0.1268 10.009412675107058 18.170980895060655 10.995488775206006 1 0 0
208 1 3 0.1268 7.519187043853436 18.167467806159692 11.423247103248835 1 0 0
2891 3 2 -0.1268 9.06752115566952 19.318038208612684 6.097797351473943 1 0 0
2892 3 3 0.1268 8.885144091258367 18.228037402829294 6.201421388187428 1 0 0
2890 3 2 0.0265 10.290610544739799 19.83179949261305 5.713961999464468 1 0 0
2895 3 2 0.0732 7.9705805954696025 21.41375734185083 5.772948492193369 1 0 0
2898 3 5 -0.1143 5.485206451844976 21.2954488279795 5.699393497654186 1 0 0
2909 3 2 -0.1268 9.194816640793844 22.09293522756746 5.621761288037755 1 0 0
2908 3 3 0.1268 5.322384623961983 22.41537165694526 8.625661753250538 1 0 0
2896 3 8 0.0822 6.456039152271996 22.316520917037163 5.661298985622495 1 0 0
186 1 2 0.0265 7.4367869802169775 20.436624401948418 11.718583889480403 1 0 0
185 1 6 -0.053 6.018525683067322 20.315837089541994 11.676528628286373 1 0 0
196 1 2 -0.1268 11.733417873281846 22.363078514755816 8.972383303368321 1 0 0
197 1 3 0.1268 10.815914016911435 22.081377603563887 8.569043817557715 1 0 0
2911 3 2 -0.1268 10.334482294201727 21.320722540143688 5.523181546076687 1 0 0
194 1 5 -0.1143 11.348523824972276 19.415755198646835 8.91770366639613 1 0 0
2887 3 3 0.1268 13.061314543785192 17.463123964374354 7.344078470175029 1 0 0
2886 3 2 -0.1268 12.320222846794305 16.955309274007703 6.664754985944789 1 0 0
198 1 2 -0.1268 12.175312859503542 23.625287157043463 8.719308824395071 1 0 0
2888 3 2 0.0265 11.473439082811904 17.724899535700796 5.8659400933472545 1 0 0
3408 4 3 0.1268 14.246531706019342 21.72449239922747 5.478400805287697 0 0 0
3337 4 3 0.1268 15.592713833063423 20.26794982002256 9.837228661697122 0 0 0
199 1 3 0.1268 11.602884465416945 24.421141336384323 7.990002793322622 1 0 0
2912 3 3 0.1268 11.317263780312235 21.787563822194382 5.6696689562748475 1 0 0
1222 2 5 -0.1143 20.234763409339266 15.318962570159593 56.78332043348144 0 0 0
1225 2 3 0.1268 17.34725177693219 17.03109178495841 7.325033550644555 0 0 1
3339 4 2 -0.1268 18.140697174202614 21.782986745391806 8.349166372740385 0 0 0
1221 2 5 -0.1143 18.74790111423267 17.298203771936464 5.151410661786652 0 0 1
3341 4 2 -0.1268 19.074533190237954 21.651767193619847 9.368800532698963 0 0 0