units real
atom_style full
boundary p p p

# --- Force Field Styles ---
pair_style lj/class2/coul/long 9.5 9.5
kspace_style pppm 1e-6
dielectric 1.000000
bond_style class2
angle_style class2
dihedral_style class2
improper_style class2
special_bonds lj/coul 0 0 1
pair_modify mix sixthpower tail yes
neighbor 2.0 bin
neigh_modify delay 0 every 1 check yes
neigh_modify one 4000
# KOKKOS: package loaded via -pk kokkos on the command line

read_data /home/alexzhao/PolyJarvis/data/PS4/lammps/equil/npt_production/npt_production_out.data
Reading data file ...
  orthogonal box = (4.1433579 4.1433579 4.1433579) to (46.591327 46.591327 46.591327)
  1 by 1 by 1 MPI processor grid
  reading atoms ...
  6420 atoms
  reading velocities ...
  6420 velocities
  scanning bonds ...
  4 = max bonds/atom
  scanning angles ...
  14 = max angles/atom
  scanning dihedrals ...
  34 = max dihedrals/atom
  scanning impropers ...
  11 = max impropers/atom
  orthogonal box = (4.1433579 4.1433579 4.1433579) to (46.591327 46.591327 46.591327)
  1 by 1 by 1 MPI processor grid
  reading bonds ...
  6810 bonds
  reading angles ...
  12000 angles
  reading dihedrals ...
  19110 dihedrals
  reading impropers ...
  5600 impropers
Finding 1-2 1-3 1-4 neighbors ...
  special bond factors lj:    0        0        1       
  special bond factors coul:  0        0        1       
     4 = max # of 1-2 neighbors
     8 = max # of 1-3 neighbors
    12 = max # of special neighbors
  special bonds CPU = 0.004 seconds
  read_data CPU = 0.414 seconds
include /home/alexzhao/PolyJarvis/data/PS4/lammps/equil/emc_build.params
# LAMMPS parameters created by EMC v9.4.4, build Jul 31 2025 20:33:44

# Variables

variable	seed		index	472913
variable	ntotal		index	6420
variable	fshape		index	1
variable	output		index	emc_build
variable	field		index	pcff/pcff
variable	location1	index	~/emc/field/
variable	nav		index	0.6022141179
variable	temperature	index	300
variable	radius		index	5
variable	nrelax		index	100
variable	weight_nonbond	index	0.0001
variable	weight_bond	index	0.0001
variable	weight_focus	index	1
variable	cutoff		index	9.5
variable	charge_cutoff	index	9.5
variable	kappa		index	4
variable	density1	index	0.53
variable	lprevious	index	0
variable	lphase		index	50.7346850343
variable	f_poly		index	10
variable	chem_repeat	index	*CC(c1ccccc1)*
variable	chem_cap	index	*[H]
variable	lg_repeat	index	16
variable	lg_cap		index	1
variable	norm_poly	index	100
variable	l_poly		index	642
variable	mg_repeat	index	92.14181
variable	mg_cap		index	1.00797
variable	m_poly		index	3687.68834
variable	n_poly		index	10
variable	mtotal		index	41681.3434
variable	nphase1		index	6420
variable	mphase1		index	41681.3434
variable	vphase1		index	130591.498627
variable	lbox		index	50.7346850343
variable	lphase1		index	50.7346850343
variable	lxx		index	50.7346850343
variable	lyy		index	50.7346850343
variable	lzz		index	50.7346850343
variable	lzy		index	0
variable	lzx		index	0
variable	lyx		index	0
variable	vtotal		index	130591.498627
variable	nl_poly		index	10

# Types

variable	type_c		index	1
variable	type_c1		index	2
variable	type_cp		index	3
variable	type_hc		index	4

variable	type_bond_c_c	index	1
variable	type_bond_c_c1	index	2
variable	type_bond_c_cp	index	3
variable	type_bond_c_hc	index	4
variable	type_bond_c1_cp	index	5
variable	type_bond_c1_hc	index	6
variable	type_bond_cp_cp	index	7
variable	type_bond_cp_hc	index	8

variable	type_angle_c_c_c1 index	1
variable	type_angle_c_c_cp index	2
variable	type_angle_c_c_hc index	3
variable	type_angle_c_c1_c index	4
variable	type_angle_c_c1_cp index	5
variable	type_angle_c_c1_hc index	6
variable	type_angle_c_cp_cp index	7
variable	type_angle_c1_c_c1 index	8
variable	type_angle_c1_c_hc index	9
variable	type_angle_c1_cp_cp index	10
variable	type_angle_cp_c_hc index	11
variable	type_angle_cp_c1_hc index	12
variable	type_angle_cp_cp_cp index	13
variable	type_angle_cp_cp_hc index	14
variable	type_angle_hc_c_hc index	15

# Clusters

variable	n0_poly		index	1
variable	n1_poly		index	10
variable	nl_poly		index	10

# Flags

variable	flag_charged	index	1

# Masses

mass		1    12.01115  # c
mass		2    12.01115  # c1
mass		3    12.01115  # cp
mass		4     1.00797  # hc

# Potentials

pair_modify	mix sixthpower tail yes
special_bonds	lj/coul 0 0 1

# Pair Coeffs

pair_coeff	 1  1    0.05400    4.01000  # c,c
pair_coeff	 2  2    0.05400    4.01000  # c1,c1
pair_coeff	 3  3    0.06400    4.01000  # cp,cp
pair_coeff	 4  4    0.02000    2.99500  # hc,hc

# Bond Coeffs

bond_coeff	1    1.53000  299.67000 -501.77000  679.81000  # c,c
bond_coeff	2    1.53000  299.67000 -501.77000  679.81000  # c,c1
bond_coeff	3    1.50100  321.90210 -521.82080  572.16280  # c,cp
bond_coeff	4    1.10100  345.00000 -691.89000  844.60000  # c,hc
bond_coeff	5    1.50100  321.90210 -521.82080  572.16280  # c1,cp
bond_coeff	6    1.10100  345.00000 -691.89000  844.60000  # c1,hc
bond_coeff	7    1.41700  470.83610 -627.61790 1327.63450  # cp,cp
bond_coeff	8    1.09820  372.82510 -803.45260  894.31730  # cp,hc

# Angle Coeffs

angle_coeff	 1  112.67000   39.51600   -7.44300   -9.55830  # c,c,c1
angle_coeff	 2  108.40000   43.95940   -8.39240   -9.33790  # c,c,cp
angle_coeff	 3  110.77000   41.45300  -10.60400    5.12900  # c,c,hc
angle_coeff	 4  112.67000   39.51600   -7.44300   -9.55830  # c,c1,c
angle_coeff	 5  108.40000   43.95940   -8.39240   -9.33790  # c,c1,cp
angle_coeff	 6  110.77000   41.45300  -10.60400    5.12900  # c,c1,hc
angle_coeff	 7  120.05000   44.71480  -22.73520    0.00000  # c,cp,cp
angle_coeff	 8  112.67000   39.51600   -7.44300   -9.55830  # c1,c,c1
angle_coeff	 9  110.77000   41.45300  -10.60400    5.12900  # c1,c,hc
angle_coeff	10  120.05000   44.71480  -22.73520    0.00000  # c1,cp,cp
angle_coeff	11  111.00000   44.32340   -9.44540    0.00000  # cp,c,hc
angle_coeff	12  111.00000   44.32340   -9.44540    0.00000  # cp,c1,hc
angle_coeff	13  118.90000   61.02260  -34.99310    0.00000  # cp,cp,cp
angle_coeff	14  117.94000   35.15580  -12.46820    0.00000  # cp,cp,hc
angle_coeff	15  107.66000   39.64100  -12.92100   -2.43180  # hc,c,hc

# BondBond Coeffs

angle_coeff	 1 bb    0.00000    1.53000    1.53000  # c,c,c1
angle_coeff	 2 bb    0.00000    1.53000    1.50100  # c,c,cp
angle_coeff	 3 bb    3.38720    1.53000    1.10100  # c,c,hc
angle_coeff	 4 bb    0.00000    1.53000    1.53000  # c,c1,c
angle_coeff	 5 bb    0.00000    1.53000    1.50100  # c,c1,cp
angle_coeff	 6 bb    3.38720    1.53000    1.10100  # c,c1,hc
angle_coeff	 7 bb   12.06760    1.50100    1.41700  # c,cp,cp
angle_coeff	 8 bb    0.00000    1.53000    1.53000  # c1,c,c1
angle_coeff	 9 bb    3.38720    1.53000    1.10100  # c1,c,hc
angle_coeff	10 bb   12.06760    1.50100    1.41700  # c1,cp,cp
angle_coeff	11 bb    2.91680    1.50100    1.10100  # cp,c,hc
angle_coeff	12 bb    2.91680    1.50100    1.10100  # cp,c1,hc
angle_coeff	13 bb   68.28560    1.41700    1.41700  # cp,cp,cp
angle_coeff	14 bb    1.07950    1.41700    1.09820  # cp,cp,hc
angle_coeff	15 bb    5.33160    1.10100    1.10100  # hc,c,hc

# BondAngle Coeffs

angle_coeff	 1 ba    8.01600    8.01600    1.53000    1.53000  # c,c,c1
angle_coeff	 2 ba    0.00000    0.00000    1.53000    1.50100  # c,c,cp
angle_coeff	 3 ba   20.75400   11.42100    1.53000    1.10100  # c,c,hc
angle_coeff	 4 ba    8.01600    8.01600    1.53000    1.53000  # c,c1,c
angle_coeff	 5 ba    0.00000    0.00000    1.53000    1.50100  # c,c1,cp
angle_coeff	 6 ba   20.75400   11.42100    1.53000    1.10100  # c,c1,hc
angle_coeff	 7 ba   47.05790   31.07710    1.50100    1.41700  # c,cp,cp
angle_coeff	 8 ba    8.01600    8.01600    1.53000    1.53000  # c1,c,c1
angle_coeff	 9 ba   20.75400   11.42100    1.53000    1.10100  # c1,c,hc
angle_coeff	10 ba   47.05790   31.07710    1.50100    1.41700  # c1,cp,cp
angle_coeff	11 ba   26.46080   11.77170    1.50100    1.10100  # cp,c,hc
angle_coeff	12 ba   26.46080   11.77170    1.50100    1.10100  # cp,c1,hc
angle_coeff	13 ba   28.87080   28.87080    1.41700    1.41700  # cp,cp,cp
angle_coeff	14 ba   20.00330   24.21830    1.41700    1.09820  # cp,cp,hc
angle_coeff	15 ba   18.10300   18.10300    1.10100    1.10100  # hc,c,hc

# Dihedral Coeffs

dihedral_coeff	 1    0.00000    0.00000    0.05140    0.00000   -0.14300    0.00000  # c,c,c1,c
dihedral_coeff	 2    0.00000    0.00000    0.00000    0.00000    0.15800  180.00000  # c,c,c1,cp
dihedral_coeff	 3    0.00000    0.00000    0.03160    0.00000   -0.16810    0.00000  # c,c,c1,hc
dihedral_coeff	 4   -0.28020    0.00000   -0.06780    0.00000   -0.01220    0.00000  # c,c,cp,cp
dihedral_coeff	 5    0.00000    0.00000    0.05140    0.00000   -0.14300    0.00000  # c,c1,c,c1
dihedral_coeff	 6    0.00000    0.00000    0.03160    0.00000   -0.16810    0.00000  # c,c1,c,hc
dihedral_coeff	 7   -0.28020    0.00000   -0.06780    0.00000   -0.01220    0.00000  # c,c1,cp,cp
dihedral_coeff	 8    0.00000    0.00000    4.40720    0.00000    0.00000    0.00000  # c,cp,cp,cp
dihedral_coeff	 9    0.00000    0.00000    1.55900    0.00000    0.00000    0.00000  # c,cp,cp,hc
dihedral_coeff	10    0.00000    0.00000    0.00000    0.00000    0.15800  180.00000  # c1,c,c,cp
dihedral_coeff	11    0.00000    0.00000    0.03160    0.00000   -0.16810    0.00000  # c1,c,c,hc
dihedral_coeff	12    0.00000    0.00000    0.00000    0.00000    0.15800  180.00000  # c1,c,c1,cp
dihedral_coeff	13    0.00000    0.00000    0.03160    0.00000   -0.16810    0.00000  # c1,c,c1,hc
dihedral_coeff	14    0.00000    0.00000    4.40720    0.00000    0.00000    0.00000  # c1,cp,cp,cp
dihedral_coeff	15    0.00000    0.00000    1.55900    0.00000    0.00000    0.00000  # c1,cp,cp,hc
dihedral_coeff	16   -0.02280    0.00000    0.02800    0.00000   -0.18630    0.00000  # cp,c,c,hc
dihedral_coeff	17   -0.02280    0.00000    0.02800    0.00000   -0.18630    0.00000  # cp,c1,c,hc
dihedral_coeff	18   -0.28010    0.00000   -0.06780    0.00000   -0.01220    0.00000  # cp,cp,c,hc
dihedral_coeff	19   -0.28010    0.00000   -0.06780    0.00000   -0.01220    0.00000  # cp,cp,c1,hc
dihedral_coeff	20    8.36670    0.00000    1.19320    0.00000    0.00000    0.00000  # cp,cp,cp,cp
dihedral_coeff	21    0.00000    0.00000    3.96610    0.00000    0.00000    0.00000  # cp,cp,cp,hc
dihedral_coeff	22   -0.14320    0.00000    0.06170    0.00000   -0.10830    0.00000  # hc,c,c,hc
dihedral_coeff	23   -0.14320    0.00000    0.06170    0.00000   -0.10830    0.00000  # hc,c,c1,hc
dihedral_coeff	24    0.00000    0.00000    1.87690    0.00000    0.00000    0.00000  # hc,cp,cp,hc

# MiddleBondTorsion Coeffs

dihedral_coeff	 1 mbt  -17.78700   -7.18770    0.00000    1.53000  # c,c,c1,c
dihedral_coeff	 2 mbt    0.00000    0.00000    0.00000    1.53000  # c,c,c1,cp
dihedral_coeff	 3 mbt  -14.87900   -3.65810   -0.31380    1.53000  # c,c,c1,hc
dihedral_coeff	 4 mbt    0.00000    0.00000    0.00000    1.50100  # c,c,cp,cp
dihedral_coeff	 5 mbt  -17.78700   -7.18770    0.00000    1.53000  # c,c1,c,c1
dihedral_coeff	 6 mbt  -14.87900   -3.65810   -0.31380    1.53000  # c,c1,c,hc
dihedral_coeff	 7 mbt    0.00000    0.00000    0.00000    1.50100  # c,c1,cp,cp
dihedral_coeff	 8 mbt    0.00000    9.17920    0.00000    1.41700  # c,cp,cp,cp
dihedral_coeff	 9 mbt    0.00000    3.94210    0.00000    1.41700  # c,cp,cp,hc
dihedral_coeff	10 mbt    0.00000    0.00000    0.00000    1.53000  # c1,c,c,cp
dihedral_coeff	11 mbt  -14.87900   -3.65810   -0.31380    1.53000  # c1,c,c,hc
dihedral_coeff	12 mbt    0.00000    0.00000    0.00000    1.53000  # c1,c,c1,cp
dihedral_coeff	13 mbt  -14.87900   -3.65810   -0.31380    1.53000  # c1,c,c1,hc
dihedral_coeff	14 mbt    0.00000    9.17920    0.00000    1.41700  # c1,cp,cp,cp
dihedral_coeff	15 mbt    0.00000    3.94210    0.00000    1.41700  # c1,cp,cp,hc
dihedral_coeff	16 mbt    0.00000    0.00000    0.00000    1.53000  # cp,c,c,hc
dihedral_coeff	17 mbt    0.00000    0.00000    0.00000    1.53000  # cp,c1,c,hc
dihedral_coeff	18 mbt   -5.56790    1.40830    0.30100    1.50100  # cp,cp,c,hc
dihedral_coeff	19 mbt   -5.56790    1.40830    0.30100    1.50100  # cp,cp,c1,hc
dihedral_coeff	20 mbt   27.59890   -2.31200    0.00000    1.41700  # cp,cp,cp,cp
dihedral_coeff	21 mbt    0.00000   -1.15210    0.00000    1.41700  # cp,cp,cp,hc
dihedral_coeff	22 mbt  -14.26100   -0.53220   -0.48640    1.53000  # hc,c,c,hc
dihedral_coeff	23 mbt  -14.26100   -0.53220   -0.48640    1.53000  # hc,c,c1,hc
dihedral_coeff	24 mbt    0.00000    4.82280    0.00000    1.41700  # hc,cp,cp,hc

# EndBondTorsion Coeffs

dihedral_coeff	 1 ebt   -0.07320    0.00000    0.00000   -0.07320    0.00000    0.00000    1.53000    1.53000  # c,c,c1,c
dihedral_coeff	 2 ebt    0.00000    0.00000    0.00000    0.00000    0.00000    0.00000    1.53000    1.50100  # c,c,c1,cp
dihedral_coeff	 3 ebt    0.24860    0.24220   -0.09250    0.08140    0.05910    0.22190    1.53000    1.10100  # c,c,c1,hc
dihedral_coeff	 4 ebt    0.00000    0.00000    0.00000    0.00000    0.00000    0.00000    1.53000    1.41700  # c,c,cp,cp
dihedral_coeff	 5 ebt   -0.07320    0.00000    0.00000   -0.07320    0.00000    0.00000    1.53000    1.53000  # c,c1,c,c1
dihedral_coeff	 6 ebt    0.24860    0.24220   -0.09250    0.08140    0.05910    0.22190    1.53000    1.10100  # c,c1,c,hc
dihedral_coeff	 7 ebt    0.00000    0.00000    0.00000    0.00000    0.00000    0.00000    1.53000    1.41700  # c,c1,cp,cp
dihedral_coeff	 8 ebt    0.00000    0.24210    0.00000    0.00000   -0.69180    0.00000    1.50100    1.41700  # c,cp,cp,cp
dihedral_coeff	 9 ebt    0.00000   -1.79700    0.00000    0.00000   -0.48790    0.00000    1.50100    1.09820  # c,cp,cp,hc
dihedral_coeff	10 ebt    0.00000    0.00000    0.00000    0.00000    0.00000    0.00000    1.53000    1.50100  # c1,c,c,cp
dihedral_coeff	11 ebt    0.24860    0.24220   -0.09250    0.08140    0.05910    0.22190    1.53000    1.10100  # c1,c,c,hc
dihedral_coeff	12 ebt    0.00000    0.00000    0.00000    0.00000    0.00000    0.00000    1.53000    1.50100  # c1,c,c1,cp
dihedral_coeff	13 ebt    0.24860    0.24220   -0.09250    0.08140    0.05910    0.22190    1.53000    1.10100  # c1,c,c1,hc
dihedral_coeff	14 ebt    0.00000    0.24210    0.00000    0.00000   -0.69180    0.00000    1.50100    1.41700  # c1,cp,cp,cp
dihedral_coeff	15 ebt    0.00000   -1.79700    0.00000    0.00000   -0.48790    0.00000    1.50100    1.09820  # c1,cp,cp,hc
dihedral_coeff	16 ebt    0.00000    0.00000    0.00000    0.00000    0.00000    0.00000    1.50100    1.10100  # cp,c,c,hc
dihedral_coeff	17 ebt    0.00000    0.00000    0.00000    0.00000    0.00000    0.00000    1.50100    1.10100  # cp,c1,c,hc
dihedral_coeff	18 ebt   -0.58350    1.12200    0.39780    1.39970    0.77560    0.00000    1.41700    1.10100  # cp,cp,c,hc
dihedral_coeff	19 ebt   -0.58350    1.12200    0.39780    1.39970    0.77560    0.00000    1.41700    1.10100  # cp,cp,c1,hc
dihedral_coeff	20 ebt   -0.11850    6.32040    0.00000   -0.11850    6.32040    0.00000    1.41700    1.41700  # cp,cp,cp,cp
dihedral_coeff	21 ebt    0.00000   -6.89580    0.00000    0.00000   -0.46690    0.00000    1.41700    1.09820  # cp,cp,cp,hc
dihedral_coeff	22 ebt    0.21300    0.31200    0.07770    0.21300    0.31200    0.07770    1.10100    1.10100  # hc,c,c,hc
dihedral_coeff	23 ebt    0.21300    0.31200    0.07770    0.21300    0.31200    0.07770    1.10100    1.10100  # hc,c,c1,hc
dihedral_coeff	24 ebt    0.00000   -0.68900    0.00000    0.00000   -0.68900    0.00000    1.09820    1.09820  # hc,cp,cp,hc

# AngleTorsion Coeffs

dihedral_coeff	 1 at    0.38860   -0.31390    0.13890    0.38860   -0.31390    0.13890  112.67000  112.67000  # c,c,c1,c
dihedral_coeff	 2 at    0.00000    0.00000    0.00000    0.00000    0.00000    0.00000  112.67000  108.40000  # c,c,c1,cp
dihedral_coeff	 3 at   -0.24540    0.00000   -0.11360    0.31130    0.45160   -0.19880  112.67000  110.77000  # c,c,c1,hc
dihedral_coeff	 4 at    0.00000    0.00000    0.00000    0.00000    0.00000    0.00000  108.40000  120.05000  # c,c,cp,cp
dihedral_coeff	 5 at    0.38860   -0.31390    0.13890    0.38860   -0.31390    0.13890  112.67000  112.67000  # c,c1,c,c1
dihedral_coeff	 6 at   -0.24540    0.00000   -0.11360    0.31130    0.45160   -0.19880  112.67000  110.77000  # c,c1,c,hc
dihedral_coeff	 7 at    0.00000    0.00000    0.00000    0.00000    0.00000    0.00000  108.40000  120.05000  # c,c1,cp,cp
dihedral_coeff	 8 at    0.00000   -4.46830    0.00000    0.00000    3.89870    0.00000  120.05000  118.90000  # c,cp,cp,cp
dihedral_coeff	 9 at    0.00000   -0.12420    0.00000    0.00000    3.46010    0.00000  120.05000  117.94000  # c,cp,cp,hc
dihedral_coeff	10 at    0.00000    0.00000    0.00000    0.00000    0.00000    0.00000  112.67000  108.40000  # c1,c,c,cp
dihedral_coeff	11 at   -0.24540    0.00000   -0.11360    0.31130    0.45160   -0.19880  112.67000  110.77000  # c1,c,c,hc
dihedral_coeff	12 at    0.00000    0.00000    0.00000    0.00000    0.00000    0.00000  112.67000  108.40000  # c1,c,c1,cp
dihedral_coeff	13 at   -0.24540    0.00000   -0.11360    0.31130    0.45160   -0.19880  112.67000  110.77000  # c1,c,c1,hc
dihedral_coeff	14 at    0.00000   -4.46830    0.00000    0.00000    3.89870    0.00000  120.05000  118.90000  # c1,cp,cp,cp
dihedral_coeff	15 at    0.00000   -0.12420    0.00000    0.00000    3.46010    0.00000  120.05000  117.94000  # c1,cp,cp,hc
dihedral_coeff	16 at    0.00000    0.00000    0.00000    0.00000    0.00000    0.00000  108.40000  110.77000  # cp,c,c,hc
dihedral_coeff	17 at    0.00000    0.00000    0.00000    0.00000    0.00000    0.00000  108.40000  110.77000  # cp,c1,c,hc
dihedral_coeff	18 at    0.22510    0.65480    0.12370    4.62660    0.16320    0.04610  120.05000  111.00000  # cp,cp,c,hc
dihedral_coeff	19 at    0.22510    0.65480    0.12370    4.62660    0.16320    0.04610  120.05000  111.00000  # cp,cp,c1,hc
dihedral_coeff	20 at    1.97670    1.02390    0.00000    1.97670    1.02390    0.00000  118.90000  118.90000  # cp,cp,cp,cp
dihedral_coeff	21 at    0.00000    2.50140    0.00000    0.00000    2.71470    0.00000  118.90000  117.94000  # cp,cp,cp,hc
dihedral_coeff	22 at   -0.80850    0.55690   -0.24660   -0.80850    0.55690   -0.24660  110.77000  110.77000  # hc,c,c,hc
dihedral_coeff	23 at   -0.80850    0.55690   -0.24660   -0.80850    0.55690   -0.24660  110.77000  110.77000  # hc,c,c1,hc
dihedral_coeff	24 at    0.00000    2.45010    0.00000    0.00000    2.45010    0.00000  117.94000  117.94000  # hc,cp,cp,hc

# AngleAngleTorsion Coeffs

dihedral_coeff	 1 aat  -22.04500  112.67000  112.67000  # c,c,c1,c
dihedral_coeff	 2 aat    0.00000  112.67000  108.40000  # c,c,c1,cp
dihedral_coeff	 3 aat  -16.16400  112.67000  110.77000  # c,c,c1,hc
dihedral_coeff	 4 aat    0.00000  108.40000  120.05000  # c,c,cp,cp
dihedral_coeff	 5 aat  -22.04500  112.67000  112.67000  # c,c1,c,c1
dihedral_coeff	 6 aat  -16.16400  112.67000  110.77000  # c,c1,c,hc
dihedral_coeff	 7 aat    0.00000  108.40000  120.05000  # c,c1,cp,cp
dihedral_coeff	 8 aat  -14.40970  120.05000  118.90000  # c,cp,cp,cp
dihedral_coeff	 9 aat    4.44440  120.05000  117.94000  # c,cp,cp,hc
dihedral_coeff	10 aat    0.00000  112.67000  108.40000  # c1,c,c,cp
dihedral_coeff	11 aat  -16.16400  112.67000  110.77000  # c1,c,c,hc
dihedral_coeff	12 aat    0.00000  112.67000  108.40000  # c1,c,c1,cp
dihedral_coeff	13 aat  -16.16400  112.67000  110.77000  # c1,c,c1,hc
dihedral_coeff	14 aat  -14.40970  120.05000  118.90000  # c1,cp,cp,cp
dihedral_coeff	15 aat    4.44440  120.05000  117.94000  # c1,cp,cp,hc
dihedral_coeff	16 aat    0.00000  108.40000  110.77000  # cp,c,c,hc
dihedral_coeff	17 aat    0.00000  108.40000  110.77000  # cp,c1,c,hc
dihedral_coeff	18 aat   -5.88880  120.05000  111.00000  # cp,cp,c,hc
dihedral_coeff	19 aat   -5.88880  120.05000  111.00000  # cp,cp,c1,hc
dihedral_coeff	20 aat    0.00000  118.90000  118.90000  # cp,cp,cp,cp
dihedral_coeff	21 aat   -4.81410  118.90000  117.94000  # cp,cp,cp,hc
dihedral_coeff	22 aat  -12.56400  110.77000  110.77000  # hc,c,c,hc
dihedral_coeff	23 aat  -12.56400  110.77000  110.77000  # hc,c,c1,hc
dihedral_coeff	24 aat    0.35980  117.94000  117.94000  # hc,cp,cp,hc

# BondBond13 Coeffs

dihedral_coeff	 1 bb13    0.00000    1.53000    1.53000  # c,c,c1,c
dihedral_coeff	 2 bb13    0.00000    1.53000    1.50100  # c,c,c1,cp
dihedral_coeff	 3 bb13    0.00000    1.53000    1.10100  # c,c,c1,hc
dihedral_coeff	 4 bb13    0.00000    1.53000    1.41700  # c,c,cp,cp
dihedral_coeff	 5 bb13    0.00000    1.53000    1.53000  # c,c1,c,c1
dihedral_coeff	 6 bb13    0.00000    1.53000    1.10100  # c,c1,c,hc
dihedral_coeff	 7 bb13    0.00000    1.53000    1.41700  # c,c1,cp,cp
dihedral_coeff	 8 bb13    2.50850    1.50100    1.41700  # c,cp,cp,cp
dihedral_coeff	 9 bb13    0.87430    1.50100    1.09820  # c,cp,cp,hc
dihedral_coeff	10 bb13    0.00000    1.53000    1.50100  # c1,c,c,cp
dihedral_coeff	11 bb13    0.00000    1.53000    1.10100  # c1,c,c,hc
dihedral_coeff	12 bb13    0.00000    1.53000    1.50100  # c1,c,c1,cp
dihedral_coeff	13 bb13    0.00000    1.53000    1.10100  # c1,c,c1,hc
dihedral_coeff	14 bb13    2.50850    1.50100    1.41700  # c1,cp,cp,cp
dihedral_coeff	15 bb13    0.87430    1.50100    1.09820  # c1,cp,cp,hc
dihedral_coeff	16 bb13    0.00000    1.50100    1.10100  # cp,c,c,hc
dihedral_coeff	17 bb13    0.00000    1.50100    1.10100  # cp,c1,c,hc
dihedral_coeff	18 bb13   -3.48260    1.41700    1.10100  # cp,cp,c,hc
dihedral_coeff	19 bb13   -3.48260    1.41700    1.10100  # cp,cp,c1,hc
dihedral_coeff	20 bb13   53.00000    1.41700    1.41700  # cp,cp,cp,cp
dihedral_coeff	21 bb13   -6.27410    1.41700    1.09820  # cp,cp,cp,hc
dihedral_coeff	22 bb13    0.00000    1.10100    1.10100  # hc,c,c,hc
dihedral_coeff	23 bb13    0.00000    1.10100    1.10100  # hc,c,c1,hc
dihedral_coeff	24 bb13   -1.70770    1.09820    1.09820  # hc,cp,cp,hc

# Improper Coeffs

improper_coeff	 1    0.00000    0.00000  # c,c,cp,hc
improper_coeff	 2    0.00000    0.00000  # c,c,hc,c1
improper_coeff	 3    0.00000    0.00000  # c,c,hc,cp
improper_coeff	 4    0.00000    0.00000  # c,c,hc,hc
improper_coeff	 5    0.00000    0.00000  # c,c1,c1,hc
improper_coeff	 6    0.00000    0.00000  # c,c1,hc,hc
improper_coeff	 7    0.00000    0.00000  # c,cp,hc,hc
improper_coeff	 8    0.00000    0.00000  # c,hc,hc,hc
improper_coeff	 9    0.00000    0.00000  # c1,c,c,cp
improper_coeff	10    0.00000    0.00000  # c1,c,c,hc
improper_coeff	11    0.00000    0.00000  # c1,c,cp,hc
improper_coeff	12    7.81530    0.00000  # cp,c,cp,cp
improper_coeff	13    7.81530    0.00000  # cp,c1,cp,cp
improper_coeff	14    4.89120    0.00000  # cp,cp,cp,hc

# AngleAngle Coeffs

improper_coeff	 1 aa    2.04030   -1.82020    1.08270  108.40000  110.77000  111.00000  # c,c,cp,hc
improper_coeff	 2 aa    0.11840   -1.31990   -1.31990  110.77000  112.67000  110.77000  # c,c,hc,c1
improper_coeff	 3 aa    1.08270   -1.82020    2.04030  110.77000  108.40000  111.00000  # c,c,hc,cp
improper_coeff	 4 aa    0.27380   -0.48250    0.27380  110.77000  110.77000  107.66000  # c,c,hc,hc
improper_coeff	 5 aa   -1.31990   -1.31990    0.11840  112.67000  110.77000  110.77000  # c,c1,c1,hc
improper_coeff	 6 aa    0.27380   -0.48250    0.27380  110.77000  110.77000  107.66000  # c,c1,hc,hc
improper_coeff	 7 aa    2.37940    3.01180    2.37940  111.00000  111.00000  107.66000  # c,cp,hc,hc
improper_coeff	 8 aa   -0.31570   -0.31570   -0.31570  107.66000  107.66000  107.66000  # c,hc,hc,hc
improper_coeff	 9 aa    0.00000    0.00000    0.00000  112.67000  108.40000  108.40000  # c1,c,c,cp
improper_coeff	10 aa   -1.31990   -1.31990    0.11840  112.67000  110.77000  110.77000  # c1,c,c,hc
improper_coeff	11 aa    2.04030   -1.82020    1.08270  108.40000  110.77000  111.00000  # c1,c,cp,hc
improper_coeff	12 aa    0.00000    0.00000    0.00000  120.05000  120.05000  118.90000  # cp,c,cp,cp
improper_coeff	13 aa    0.00000    0.00000    0.00000  120.05000  120.05000  118.90000  # cp,c1,cp,cp
improper_coeff	14 aa    0.00000    0.00000    0.00000  118.90000  117.94000  117.94000  # cp,cp,cp,hc


# --- Thermo Output ---
thermo_style custom step time temp press enthalpy etotal ke pe ebond eangle edihed eimp evdwl ecoul elong etail vol lx ly lz density pxx pyy pzz
thermo_modify flush yes
thermo 1000

# --- Trajectory ---
dump dump_npt all custom 1000 npt_cool300.dump id type mol x y z ix iy iz vx vy vz

# --- Restart Checkpointing ---
# No restart checkpointing

# --- Initial Velocities (optional) ---
# Velocities read from data file

# --- SHAKE Constraints ---
# SHAKE disabled

# --- NPT Thermostat + Barostat (Nose-Hoover) ---
# T_damp = 100.0 fs  (heat bath coupling)
# P_damp = 1000.0 fs  (pressure bath coupling, ~10x T_damp typical)
# Ramp: T=550.0->300.0K  P=1.0->1.0atm
timestep 1.0
fix npt_fix all npt temp 550.0 300.0 100.0 iso 1.0 1.0 1000.0

run 1000000
PPPM Kokkos initialization ...
  using 12-bit tables for long-range coulomb
  G vector (1/distance) = 0.30025986
  grid = 30 30 30
  stencil order = 5
  estimated absolute RMS force accuracy = 0.00029588387
  estimated relative force accuracy = 8.9104548e-07
  using double precision cuFFT
  3d grid and FFT values/proc = 50653 27000
Generated 6 of 6 mixed pair_coeff terms from sixthpower/sixthpower mixing rule
Neighbor list info ...
  update: every = 1 steps, delay = 0 steps, check = yes
  max neighbors/atom: 4000, page size: 100000
  master list distance cutoff = 11.5
  ghost atom cutoff = 11.5
  binsize = 11.5, bins = 4 4 4
  1 neighbor lists, perpetual/occasional/extra = 1 0 0
  (1) pair lj/class2/coul/long/kk, perpetual
      attributes: full, newton off, kokkos_device
      pair build: full/bin/kk/device
      stencil: full/bin/3d
      bin: kk/device
Per MPI rank memory allocation (min/avg/max) = 41.11 | 41.11 | 41.11 Mbytes
   Step          Time           Temp          Press         Enthalpy        TotEng         KinEng         PotEng         E_bond        E_angle        E_dihed        E_impro         E_vdwl         E_coul         E_long         E_tail         Volume           Lx             Ly             Lz          Density          Pxx            Pyy            Pzz      
         0   0              541.60934     -217.2386       19179.553      19421.87       10363.055      9058.8143      4783.7899      4241.5937     -1071.1159      358.9457       808.40887      3840.1882     -3902.9962     -376.05624      76484.029      42.447969      42.447969      42.447969      0.90494047    -3451.2713      2612.1414      187.41407    
      1000   1000           556.74745      278.69757      19914.808      19598.618      10652.705      8945.9129      4796.1476      4088.6297     -1078.8096      363.20714      824.93038      3848.1132     -3896.3055     -369.72958      77792.793      42.688719      42.688719      42.688719      0.88971601    -1235.3396      503.753        1567.6793    
      2000   2000           544.04907     -500.67189      18705.488      19263.301      10409.737      8853.5641      4815.5493      4151.0195     -1110.0323      358.26654      707.81423      3837.0738     -3906.1269     -376.49917      76394.05       42.431317      42.431317      42.431317      0.90600633    -1061.0025     -412.36399     -28.649161    
      3000   3000           553.89966      570.13198      20135.395      19495.38       10598.216      8897.1641      4607.5287      4171.995      -1019.5466      381.36877      811.9278       3850.9049     -3907.0145     -373.66735      76972.999      42.538235      42.538235      42.538235      0.89919185     82.794998      611.48646      1016.1145    
      4000   4000           556.05913     -1064.0625      18461.975      19637.191      10639.535      8997.6559      4649.1647      4245.6421     -920.96617      377.34537      720.48011      3835.8896     -3909.8999     -379.79465      75731.178      42.308235      42.308235      42.308235      0.91393657    -198.88741     -548.27066     -2445.0295    
      5000   5000           543.41994      617.03072      19899.963      19206.782      10397.699      8809.0829      4572.9605      4106.2192     -995.65114      371.11277      831.03738      3829.8694     -3906.4652     -373.38737      77030.716      42.548865      42.548865      42.548865      0.89851811     233.34512     -314.65644      1932.4035    
      6000   6000           547.93507     -559.75246      18807.862      19435.815      10484.091      8951.724       4779.7311      4144.9662     -1063.0851      370.45447      775.11125      3845.6754     -3901.1293     -373.91145      76922.748      42.528976      42.528976      42.528976      0.89977925    -844.09154     -260.22002     -574.94582    
      7000   7000           550.91105      786.34736      20186.173      19308.619      10541.033      8767.5862      4632.9912      4190.6853     -1091.393       346.25796      782.38427      3814.4786     -3907.8182     -375.87211      76521.498      42.4549        42.4549        42.4549        0.90449737    -1427.0304      1128.7159      2657.3565    
      8000   8000           545.02601      1184.1247      20598.211      19257.804      10428.429      8829.3749      4702.3835      4084.5534     -1082.8196      372.22535      823.06937      3833.6426     -3903.6798     -370.56158      77618.129      42.656746      42.656746      42.656746      0.89171813     436.47141      1299.2016      1816.7012    
      9000   9000           550.54952      258.58411      19736.864      19451.615      10534.115      8917.4994      4696.2675      4244.9868     -1073.8119      373.99868      732.44053      3849.6228     -3906.005      -380.25593      75639.311      42.29112       42.29112       42.29112       0.91504658     602.2843      -4.0387898      177.50683    
     10000   10000          549.61839      502.32792      19792.896      19220.802      10516.299      8704.5025      4622.793       4097.3245     -1137.2675      365.48458      814.22454      3838.1689     -3896.2255     -368.31488      78091.595      42.743305      42.743305      42.743305      0.88631168    -94.395255      2866.5562     -1265.1771    
     11000   11000          544.70133      479.94691      19854.406      19319.126      10422.217      8896.9095      4742.6504      4139.8986     -1069.7918      372.51102      794.0233       3830.9633     -3913.3454     -376.1075       76473.606      42.446041      42.446041      42.446041      0.90506381     812.75045      131.33264      495.75764    
     12000   12000          546.0425       427.84658      19846.422      19374.745      10447.879      8926.8659      4699.1586      4145.5469     -1028.9997      392.76801      798.92994      3832.2014     -3912.7393     -380.48906      75592.966      42.282481      42.282481      42.282481      0.91560758     320.45102      726.98781      236.10092    
     13000   13000          549.09212     -970.66539      18152.129      19240.468      10506.23       8734.2378      4501.3613      4100.6444     -992.14527      375.35742      832.15041      3825.4744     -3908.6048     -374.11474      76880.949      42.521272      42.521272      42.521272      0.90026845    -330.09324     -2309.0716     -272.83137    
     14000   14000          551.56035     -1176.0013      18230.67       19550.891      10553.456      8997.4342      4743.5763      4221.7217     -1071.6249      375.56882      813.28122      3821.2064     -3906.2953     -373.64631      76977.334      42.539034      42.539034      42.539034      0.89914121    -1768.2569      745.04869     -2504.7956    
     15000   15000          543.29827      447.73223      19933.763      19433.225      10395.371      9037.8541      4764.0035      4241.7878     -1053.9486      376.74309      787.30401      3832.4426     -3910.4783     -375.21564      76655.377      42.479645      42.479645      42.479645      0.90291765     1169.8709     -423.02368      596.34948    
     16000   16000          540.37566      543.82293      19790.51       19178.657      10339.45       8839.2062      4741.2975      4057.5904     -1097.6315      367.338        851.75574      3822.7707     -3903.9147     -372.82915      77146.051      42.57009       42.57009       42.57009       0.8971748      299.51047      900.44282      431.51548    
     17000   17000          540.52996      683.49698      19852.509      19092.655      10342.403      8750.2526      4646.6143      4177.3749     -1094.9249      382.6355       727.90209      3826.938      -3916.2873     -377.31684      76228.499      42.400644      42.400644      42.400644      0.90797397     1114.2567      1006.4598     -70.225558    
     18000   18000          549.36332     -632.08911      18702.061      19406.165      10511.419      8894.7459      4607.8961      4255.6074     -1002.5852      379.74366      733.10408      3832.3519     -3911.3721     -376.56602      76380.488      42.428806      42.428806      42.428806      0.9061672     -19.431623     -1689.693      -187.14274    
     19000   19000          539.63251     -1176.7154      17846.534      19166.093      10325.231      8840.8621      4674.6111      4132.9321     -1047.2745      382.16357      790.8061       3822.5191     -3914.8955     -374.0607       76892.057      42.523319      42.523319      42.523319      0.9001384     -1531.8425     -35.795352     -1962.5084    
     20000   20000          554.47432      328.82307      19899.66       19532.833      10609.212      8923.6213      4690.7627      4227.3699     -1093.9142      364.99888      821.4597       3825.4338     -3912.4896     -376.01127      76493.177      42.449662      42.449662      42.449662      0.90483224     120.81275     -12.541821      878.19829    
     21000   21000          546.60902      419.65889      19719.136      19254.399      10458.718      8795.6809      4657.3552      4153.0902     -1069.4002      372.034        770.38963      3829.2818     -3917.0698     -378.78147      75933.747      42.345924      42.345924      42.345924      0.91149846    -294.67757      1738.3702     -184.71599    
     22000   22000          542.98791     -679.40676      18251.342      19006.216      10389.433      8616.7832      4623.2197      4043.491      -1110.7926      356.42253      761.24092      3847.8706     -3904.669      -377.53279      76184.897      42.392558      42.392558      42.392558      0.90849362     767.29488     -1203.8106     -1601.7045    
     23000   23000          550.5162      -644.88662      18402.446      19126.503      10533.478      8593.0256      4614.504       4080.8447     -1142.9927      344.65895      763.70601      3840.6997     -3908.395      -373.60277      76986.304      42.540686      42.540686      42.540686      0.89903645    -1246.1053      478.77391     -1167.3285    
     24000   24000          554.94467     -867.25889      18483.526      19440.248      10618.211      8822.0366      4755.6789      4120.3537     -1035.3938      362.95603      706.12377      3824.4865     -3912.1685     -380.24395      75641.693      42.291564      42.291564      42.291564      0.91501776    -1917.6624     -350.005       -334.10923    
     25000   25000          541.3487       640.18906      19846.399      19130.063      10358.068      8771.9942      4773.8127      4096.7319     -1142.9206      375.88716      754.99434      3825.2768     -3911.7881     -374.8784       76724.336      42.492379      42.492379      42.492379      0.90210612    -595.39322     -320.52019      2836.4806    
     26000   26000          549.20817      500.70157      20015.769      19452.228      10508.45       8943.7778      4785.1655      4134.7151     -1103.8322      373.03654      818.40471      3839.2206     -3902.9325     -372.69414      77173.997      42.575229      42.575229      42.575229      0.89684992     331.89207      719.26168      450.95097    
     27000   27000          542.5578      -566.38156      18603.348      19226.941      10381.203      8845.7381      4746.662       4132.3929     -1090.5503      383.56925      767.33309      3820.1358     -3913.8047     -380.98457      75494.65       42.264142      42.264142      42.264142      0.91679997     439.16532     -2072.2888     -66.021183    
     28000   28000          542.88662     -528.65671      18490.267      19073.887      10387.495      8686.3927      4671.9683      4072.5642     -1111.3399      381.89515      757.421        3832.2079     -3918.3239     -379.96455      75697.315      42.301928      42.301928      42.301928      0.91434542     76.116108     -540.28189     -1121.8043    
     29000   29000          547.48001     -946.21181      18099.542      19158.792      10475.384      8683.4078      4640.1076      4122.0313     -1072.969       368.41132      695.10233      3838.8662     -3908.142      -374.70484      76759.874      42.498939      42.498939      42.498939      0.90168847    -601.43577     -1537.4342     -699.76551    
     30000   30000          545.43019     -431.32679      18567.079      19041.019      10436.163      8604.8559      4688.9054      4045.3553     -1072.6394      348.53302      679.30211      3831.1822     -3915.7827     -381.75295      75342.697      42.235767      42.235767      42.235767      0.918649       149.87031     -1691.8634      248.01266    
     31000   31000          545.9855       1860.8433      21121.174      19082.738      10446.788      8635.9503      4704.0592      4083.1203     -1161.9919      361.04192      729.49005      3835.1018     -3914.8711     -382.92371      75112.342      42.192679      42.192679      42.192679      0.92146631     1474.4421      3949.0011      159.08683    
     32000   32000          546.76745     -293.24914      18842.039      19166.736      10461.75       8704.9863      4660.4919      4112.4317     -1088.7933      369.66734      726.08843      3841.7842     -3916.6839     -378.84154      75921.708      42.343686      42.343686      42.343686      0.91164299    -1362.9831      126.62928      356.60642    
     33000   33000          543.86002      123.55738      19289.352      19153.839      10406.12       8747.719       4731.8464      4135.9757     -1149.5911      368.06519      737.11787      3837.7739     -3913.4689     -382.45854      75203.697      42.209778      42.209778      42.209778      0.92034694     2359.7433     -1211.7493     -777.3219     
     34000   34000          546.08507     -1127.6981      18004.459      19262.289      10448.693      8813.5957      4632.4121      4260.918      -1077.8365      376.81231      710.22436      3822.0345     -3910.969      -376.07137      76480.951      42.4474        42.4474        42.4474        0.90497688    -726.3337      -1434.8343     -1221.9263    
     35000   35000          535.47398     -63.802835      19017.268      19088.465      10245.663      8842.8025      4772.698       4143.1989     -1015.8203      379.16796      648.41622      3826.2201     -3911.0784     -375.90383      76515.039      42.453705      42.453705      42.453705      0.90457371    -382.94046      375.61119     -184.07924    
     36000   36000          537.12095     -1340.3571      17506.719      18999.204      10277.175      8722.0286      4700.0101      4179.0382     -1167.8654      358.18844      729.05171      3835.8688     -3912.2632     -376.71248      76350.792      42.423307      42.423307      42.423307      0.90651964    -34.249595     -582.57927     -3404.2425    
     37000   37000          543.18372      1011.504       20195.03       19073.261      10393.179      8680.0817      4661.0153      4046.449      -1076.8206      353.26571      791.42573      3817.7886     -3913.042      -378.23665      76043.124      42.366246      42.366246      42.366246      0.9101874      1656.2572      746.21967      632.03503    
     38000   38000          538.73794     -2157.7678      16802.287      19251.714      10308.115      8943.599       4768.803       4191.4689     -1052.1503      373.15294      731.95826      3834.6441     -3904.278      -369.52149      77836.6        42.69673       42.69673       42.69673       0.88921526    -1181.9209     -2154.9792     -3136.4032    
     39000   39000          535.04948     -716.06827      18261.711      19068.106      10237.54       8830.5656      4708.9988      4067.4524     -1081.8094      356.24641      842.74977      3837.9265     -3900.9989     -372.48278      77217.789      42.583281      42.583281      42.583281      0.89634129    -1073.6688     -206.93927     -867.59674    
     40000   40000          539.57605     -1057.5403      17984.223      19184.715      10324.151      8860.5641      4722.3073      4144.0329     -1074.0933      381.33582      760.76455      3832.2754     -3906.0585     -369.51929      77837.063      42.696815      42.696815      42.696815      0.88920998     841.69343     -919.58366     -3094.7307    
     41000   41000          530.60867     -382.45468      18294.795      18727.125      10152.571      8574.5547      4599.1526      4127.2078     -1210.1969      346.32468      797.28617      3825.9458     -3911.1654     -371.07696      77510.327      42.636989      42.636989      42.636989      0.89295834    -499.14115     -109.16725     -539.05562    
     42000   42000          539.65433     -1179.0605      17660.741      18971.606      10325.649      8645.9577      4556.3768      4159.3956     -1099.9364      343.12136      767.49865      3831.1858     -3911.684      -377.29176      76233.567      42.401584      42.401584      42.401584      0.9079136     -889.36386     -657.56331     -1990.2545    
     43000   43000          538.05239     -999.95367      18029.993      19146.264      10294.997      8851.2663      4640.716       4122.7585     -984.03273      401.14055      749.49249      3832.5673     -3911.3759     -375.75945      76544.439      42.459142      42.459142      42.459142      0.90422628     297.83152     -1736.0366     -1561.6559    
     44000   44000          539.68582      219.89204      19189.022      18946.209      10326.251      8619.9574      4615.9468      4005.6169     -1070.0903      381.70536      748.80624      3848.157      -3910.1847     -379.87121      75715.915      42.305392      42.305392      42.305392      0.9141208     -519.28535      1880.037      -701.07555    
     45000   45000          546.55011     -1330.4472      17774.487      19261.659      10457.591      8804.0676      4589.7776      4198.2204     -1075.1159      373.62527      776.34818      3846.7559     -3905.5439     -375.26308      76645.687      42.477855      42.477855      42.477855      0.9030318     -1996.3391     -608.01456     -1386.9878    
     46000   46000          530.25226      1272.7734      20416.046      19006.357      10145.751      8860.6064      4673.2399      4253.3752     -1128.767       373.252        756.51684      3843.6116     -3910.6221     -378.72786      75944.495      42.347922      42.347922      42.347922      0.91136945     712.96836      1031.1416      2074.2101    
     47000   47000          544.41512      670.85355      19845.496      19104.113      10416.741      8687.3726      4577.5832      4161.6901     -1126.6176      358.92857      778.46331      3848.0017     -3910.6766     -379.56385      75777.229      42.316809      42.316809      42.316809      0.91338116     818.36422     -962.26666      2156.4631    
     48000   48000          532.09907     -412.65774      18506.782      18962.04       10181.088      8780.9524      4659.22        4117.2797     -1110.1647      355.99045      833.28631      3838.4294     -3913.0887     -380.21686      75647.084      42.292569      42.292569      42.292569      0.91495256    -395.25192     -1123.2716      280.55031    
     49000   49000          534.48287      536.91103      19617.939      19015.679      10226.699      8788.9803      4660.9929      4201.7225     -1116.8678      367.79287      749.92506      3833.2791     -3907.8643     -373.95354      76914.091      42.527381      42.527381      42.527381      0.89988053    -297.25157      1852.1977      55.786935    
     50000   50000          543.21785      170.25098      19139.181      18950.704      10393.832      8556.8712      4621.8797      4097.6428     -1168.264       359.55544      705.522        3846.8019     -3906.2665     -378.90404      75909.183      42.341357      42.341357      42.341357      0.91179341     2242.4597     -697.31332     -1034.3935    
     51000   51000          529.5644      -1156.5531      17419.484      18709.046      10132.59       8576.456       4567.2629      4062.6817     -1058.3222      349.0912       729.11565      3831.6424     -3905.0157     -376.20361      76454.068      42.442426      42.442426      42.442426      0.9052951      1158.1908     -2900.9017     -1726.9485    
     52000   52000          526.51613      1213.6013      20148.641      18796.171      10074.265      8721.9066      4746.5222      4078.337      -1181.8253      355.54709      801.01046      3832.1602     -3909.845      -376.39865      76414.451      42.435094      42.435094      42.435094      0.90576444     3988.327      -564.54269      217.01941    
     53000   53000          532.2111      -1231.0567      17394.817      18749.684      10183.231      8566.4525      4602.1855      4014.6951     -1022.0141      356.67266      710.86549      3821.6987     -3917.6508     -381.13674      75464.508      42.258517      42.258517      42.258517      0.91716616    -2379.8077     -201.48765     -1111.8748    
     54000   54000          547.97696      1071.1896      20413.084      19228.119      10484.892      8743.2265      4753.029       4118.2613     -1165.8167      368.76835      754.49856      3825.8375     -3911.3514     -379.19285      75851.369      42.330605      42.330605      42.330605      0.91248839     3208.7954     -348.21764      352.9909     
     55000   55000          533.44606     -408.26309      18317.536      18768.066      10206.861      8561.2053      4617.1875      4093.5303     -1101.7422      366.41058      655.87172      3840.8304     -3910.8829     -380.11556      75667.243      42.296325      42.296325      42.296325      0.9147088     -122.01199      478.2802      -1581.0575    
     56000   56000          535.14987      1089.0798      20146.401      18931.567      10239.461      8692.1062      4709.4189      4100.9894     -1122.0596      368.90789      699.10535      3839.4589     -3903.7147     -376.04711      76485.887      42.448313      42.448313      42.448313      0.90491849     428.74494      1573.4678      1265.0266    
     57000   57000          552.82314      234.87755      19402.882      19142.832      10577.618      8565.2139      4643.5158      4060.2104     -1168.797       349.16171      758.48779      3835.7376     -3913.1025     -378.86508      75916.99       42.342808      42.342808      42.342808      0.91169965    -1048.3834      705.77657      1047.2395    
     58000   58000          535.30062      955.70815      19912.373      18857.24       10242.345      8614.8945      4561.4082      4068.2269     -1093.2425      368.38563      767.16465      3855.463      -3912.5115     -379.94216      75701.776      42.302759      42.302759      42.302759      0.91429153    -404.07342      1530.1816      1741.0162    
     59000   59000          539.27471      389.96312      19422.567      18990.196      10318.385      8671.811       4649.7686      4095.6597     -1135.9688      350.26167      790.66077      3838.1252     -3916.6961     -378.32645      76025.074      42.362894      42.362894      42.362894      0.91040349     1593.1083      441.72305     -864.94202    
     60000   60000          531.9425      -856.28233      17723.157      18685.615      10178.092      8507.523       4479.1481      4093.5498     -1106.7751      354.61139      759.58508      3836.0941     -3908.6903     -373.19412      77070.605      42.556208      42.556208      42.556208      0.89805306    -65.994499     -1161.7501     -1341.1024    
     61000   61000          529.51505      456.97046      19374.565      18869.438      10131.646      8737.7922      4553.2431      4242.2174     -1094.9737      363.79718      742.45532      3843.0766     -3912.0237     -379.47839      75794.294      42.319985      42.319985      42.319985      0.91317551     1551.8444     -347.60857      166.67557    
     62000   62000          539.11985     -410.7288       18294.119      18752.073      10315.422      8436.6507      4497.0003      4069.6017     -1122.2354      356.57488      731.85744      3821.4291     -3917.5772     -376.21261      76452.239      42.442087      42.442087      42.442087      0.90531676     375.55751     -1981.7864      374.04251    
     63000   63000          544.25917     -552.65362      18631.709      19244.565      10413.757      8830.8083      4578.7996      4296.615      -1061.8188      375.7714       700.20498      3855.4593     -3914.2232     -378.26319      76037.789      42.365255      42.365255      42.365255      0.91025126    -530.41875     -795.35404     -332.18807    
     64000   64000          529.59723     -1057.2022      17503.117      18675          10133.218      8541.782       4612.1778      4087.2058     -1144.6411      357.79552      706.54848      3838.6632     -3915.9678     -378.41923      76006.434      42.359431      42.359431      42.359431      0.91062676    -1358.6379     -1107.2368     -705.73194    
     65000   65000          541.3478      -1215.9322      17687.312      19032.479      10358.051      8674.4276      4599.108       4127.551      -1120.1753      367.81692      774.08201      3838.8457     -3912.8008     -379.16886      75856.167      42.331497      42.331497      42.331497      0.91243067    -190.42588     -238.01001     -3219.3608    
     66000   66000          538.43981      992.1434       19856.678      18762.506      10302.41       8460.0962      4552.5741      4078.5536     -1147.8881      362.37734      687.69117      3840.6851     -3913.897      -380.35457      75619.695      42.287464      42.287464      42.287464      0.91528395    -237.40681      514.28823      2699.5488    
     67000   67000          527.9441       445.86331      19099.94       18611.372      10101.587      8509.7843      4598.1455      4008.2853     -1121.7849      373.25127      719.59827      3851.9472     -3919.6585     -382.80315      75135.997      42.197108      42.197108      42.197108      0.92117621     2725.5567     -1926.3735      538.40666    
     68000   68000          530.92268      1332.9898      20224.558      18757.733      10158.579      8599.1542      4676.233       4104.6965     -1209.4745      366.29886      757.27137      3826.871      -3922.7421     -381.19567      75452.842      42.256339      42.256339      42.256339      0.91730797     3739.9041      939.89525     -680.83002    
     69000   69000          537.04153     -261.2145       18739.428      19032.135      10275.656      8756.4792      4612.8514      4203.9204     -1055.3644      373.49         693.67361      3839.2133     -3911.3051     -374.33738      76835.224      42.51284       42.51284       42.51284       0.90080421     1166.6165     -842.30777     -1107.9522    
     70000   70000          539.70019     -863.58371      17894.934      18848.244      10326.526      8521.7182      4505.9769      4119.844      -1142.1433      349.94047      758.21439      3847.2044     -3917.3187     -379.98774      75692.696      42.301067      42.301067      42.301067      0.91440121     334.3369      -1810.3834     -1114.7046    
     71000   71000          530.70286      509.00767      18954.785      18393.007      10154.373      8238.6345      4463.6194      4045.0219     -1188.5875      338.27537      650.29573      3845.7388     -3915.7292     -380.0659       75677.129      42.298167      42.298167      42.298167      0.91458931     47.576255      1029.5792      449.86756    
     72000   72000          526.73681      1156.8432      19794.288      18520.718      10078.487      8442.2308      4576.6094      4006.4739     -1181.8963      359.69091      759.06502      3836.4895     -3914.2016     -381.02288      75487.058      42.262725      42.262725      42.262725      0.91689218     590.60243      1203.9672      1675.96      
     73000   73000          533.06381      385.00131      19162.022      18737.979      10199.547      8538.4318      4609.6376      4060.6902     -1145.9082      370.45006      724.07844      3835.6644     -3916.1806     -380.8474       75521.84       42.269216      42.269216      42.269216      0.91646989    -1763.9627      1066.7571      1852.2096    
     74000   74000          520.17273     -1578.3682      16733.015      18469.902      9952.8913      8517.0102      4573.3499      4081.0079     -1093.0246      380.8376       661.27055      3833.6225     -3920.0537     -381.18535      75454.884      42.25672       42.25672       42.25672       0.91728314     101.1112      -2712.7216     -2123.494     
     75000   75000          526.61694      1075.4467      19891.645      18695.054      10076.194      8618.8604      4599.6941      4149.6779     -1152.2924      353.26381      756.613        3823.0935     -3911.1895     -377.0011       76292.341      42.412478      42.412478      42.412478      0.90721418    -538.81089      2723.1834      1041.9676    
     76000   76000          523.64705     -209.61405      18409.744      18641.981      10019.368      8622.6131      4547.1732      4133.8774     -1083.1606      377.66959      738.43         3821.6962     -3913.0727     -378.60645      75968.851      42.352448      42.352448      42.352448      0.91107727    -741.82698      1951.0461     -1838.0613    
     77000   77000          528.55957     -928.7535       17633.795      18663.924      10113.363      8550.5608      4568.2523      4078.8723     -1063.5373      365.87218      680.35125      3832.9481     -3912.198      -378.18838      76052.83       42.368049      42.368049      42.368049      0.91007123    -1096.5523     -58.408536     -1631.2997    
     78000   78000          538.4709      -564.09652      18125.011      18752.086      10303.005      8449.0814      4553.6181      4012.0127     -1163.8755      349.7919       772.74278      3832.0556     -3907.2642     -377.34016      76223.789      42.399771      42.399771      42.399771      0.90803008    -1800.2686      799.26425     -691.28522    
     79000   79000          523.38707     -1542.4787      16817.853      18544.908      10014.394      8530.5144      4651.3164      3990.582      -1114.5814      346.63952      746.94416      3819.385      -3909.7713     -374.63849      76773.469      42.501448      42.501448      42.501448      0.90152879    -2190.0112     -1690.644      -746.78085    
     80000   80000          532.11733     -278.08212      18499.127      18810.876      10181.437      8629.439       4449.8499      4088.11       -1032.4921      364.76676      839.87677      3833.2039     -3913.8762     -374.1681       76869.986      42.519251      42.519251      42.519251      0.90039685    -1464.5419     -1244.1747      1874.4702    
     81000   81000          533.16849      1977.8093      20895.991      18686.763      10201.55       8485.2127      4469.2181      4087.0757     -1181.4809      365.08551      824.34151      3829.9177     -3908.9449     -375.52881      76591.452      42.467833      42.467833      42.467833      0.90367125     3400.7361      2190.8893      341.8024     
     82000   82000          524.43501      34.833494      18506.242      18467.324      10034.445      8432.8787      4509.7696      4026.6453     -1132.9835      352.16871      755.6929       3834.0538     -3912.4682     -375.43697      76610.188      42.471296      42.471296      42.471296      0.90345024    -729.68945      536.94098      297.24896    
     83000   83000          524.83262      266.28022      18827.097      18530.954      10042.053      8488.9013      4604.15        4081.1461     -1197.1244      348.67273      742.95076      3827.3216     -3918.2155     -377.16969      76258.239      42.406158      42.406158      42.406158      0.90761987     1235.7037     -1663.7538      1226.8908    
     84000   84000          537.45333      626.23245      19521.431      18825.108      10283.535      8541.573       4606.8995      4077.6231     -1141.5202      350.87109      719.97355      3842.7212     -3914.9953     -377.24549      76242.917      42.403317      42.403317      42.403317      0.90780227     2100.3531      1349.371      -1571.0267    
     85000   85000          528.11116     -1058.1624      17496.648      18663.691      10104.784      8558.9071      4674.026       4019.5013     -1047.2797      355.55957      641.86437      3832.6263     -3917.3908     -380.3338       75623.825      42.288234      42.288234      42.288234      0.91523396    -814.88766     -2709.6644      350.06474    
     86000   86000          534.45004      1332.6207      20128.808      18660.915      10226.071      8434.8448      4478.1449      4041.4811     -1126.9322      365.12769      768.09135      3828.1635     -3919.2316     -380.81308      75528.647      42.270485      42.270485      42.270485      0.91638731     114.64999      3802.8294      80.382805    
     87000   87000          522.33642     -177.69076      18310.166      18506.718      9994.291       8512.4269      4588.6017      3996.4174     -1107.0458      356.08787      752.19186      3842.8608     -3916.6869     -379.2158       75846.779      42.329751      42.329751      42.329751      0.91254361    -485.47182     -661.60191      614.00145    
     88000   88000          525.0248       152.01435      18668.516      18497.251      10045.73       8451.5208      4566.0827      3992.9496     -1219.0868      342.31286      843.82865      3837.0359     -3911.6021     -372.31801      77251.961      42.589562      42.589562      42.589562      0.89594481     550.50078      599.6453      -694.10303    
     89000   89000          530.95016     -1787.5521      16692.154      18680.146      10159.105      8521.0412      4490.2882      4042.2093     -1036.2951      359.97945      747.22889      3834.0844     -3916.4539     -377.17558      76257.049      42.405937      42.405937      42.405937      0.90763403    -1972.7945     -357.93149     -3031.9304    
     90000   90000          535.32954      109.58894      18606.71       18483.432      10242.899      8240.5335      4443.3197      3967.4176     -1177.6516      365.25194      722.51788      3830.6647     -3910.9867     -372.89174      77133.102      42.567708      42.567708      42.567708      0.89732542     1029.943       1276.7769     -1977.9531    
     91000   91000          521.59932      165.51122      18696.524      18512.889      9980.1873      8532.7015      4544.7369      4072.5952     -1120.08        378.7171       739.47978      3828.1006     -3910.8481     -378.06839      76076.967      42.37253       42.37253       42.37253       0.9097825     -687.87229     -55.256218      1239.6622    
     92000   92000          540.55297      537.04442      19543.156      18960.678      10342.843      8617.8345      4689.417       4043.0698     -1117.7551      353.53921      733.33607      3829.369      -3913.1414     -386.7497       74369.279      42.053085      42.053085      42.053085      0.93067317     1732.6799     -1535.8092      1414.2625    
     93000   93000          525.92069      274.93978      18804.001      18499.039      10062.872      8436.1673      4513.0734      4069.5046     -1130.13        348.03438      721.73119      3824.8187     -3910.865      -378.17344      76055.835      42.368606      42.368606      42.368606      0.91003528     427.67732     -654.22581      1051.3678    
     94000   94000          525.24351     -682.83718      17693.693      18444.759      10049.915      8394.8443      4510.7966      4002.3714     -1085.8286      356.99823      693.5023       3831.1462     -3914.1418     -381.36313      75419.711      42.250153      42.250153      42.250153      0.91771093    -2109.3319     -277.21314      338.03347    
     95000   95000          525.70242      85.31976       18546.586      18452.269      10058.695      8393.5735      4538.1416      4036.0795     -1150.1202      358.77422      697.8608       3833.7686     -3920.9311     -379.45341      75799.283      42.320913      42.320913      42.320913      0.9131154     -1208.4713      1960.5818     -496.15126    
     96000   96000          526.99865     -405.89115      17911.696      18361.716      10083.497      8278.219       4451.5007      4046.6592     -1186.7788      335.81211      724.4543       3824.3696     -3917.7981     -378.33517      76023.323      42.362568      42.362568      42.362568      0.91042447    -174.0785       400.14695     -1443.7419    
     97000   97000          523.44219      1065.7607      19626.198      18457.602      10015.449      8442.1536      4529.9544      4049.6437     -1105.2775      369.9053       704.59625      3819.4768     -3926.1454     -382.55566      75184.605      42.206205      42.206205      42.206205      0.92058066     1639.1494      29.317083      1528.8155    
     98000   98000          524.66451      66.900716      18353.685      18279.6        10038.836      8240.7639      4367.2165      4025.6984     -1117.6944      341.98122      692.12838      3842.5491     -3911.1154     -378.79069      75931.899      42.34558       42.34558       42.34558       0.91152064    -580.71625      1110.9043     -329.48586    
     99000   99000          524.68909     -679.39905      17820.718      18561.606      10039.307      8522.2999      4611.9087      4013.7693     -1008.5486      347.94386      659.67103      3822.4468     -3924.8912     -384.65515      74774.24       42.129277      42.129277      42.129277      0.92563285    -670.74621     -170.97912     -1196.4718    
    100000   100000         522.71491     -141.14401      18075.239      18231.87       10001.533      8230.3375      4505.2279      3862.8507     -1124.0625      347.40406      711.49078      3840.1366     -3912.7099     -377.99347      76092.046      42.375329      42.375329      42.375329      0.9096022      714.75535     -16.48718      -1121.7002    
    101000   101000         526.3097       309.02592      18596.239      18257.533      10070.315      8187.2178      4441.5315      4043.816      -1211.2779      332.19759      684.15998      3820.4847     -3923.694      -382.71091      75154.107      42.200498      42.200498      42.200498      0.92095423    -114.39256      824.11847      217.35186    
    102000   102000         526.76517     -84.203341      18469.864      18564.423      10079.03       8485.393       4627.4431      3985.5221     -1169.9285      362.0502       756.85534      3837.0768     -3913.6261     -373.53054      77001.192      42.543428      42.543428      42.543428      0.89886262     5.6867452     -909.6212       651.32443    
    103000   103000         538.54026     -1320.5429      17051.228      18499.443      10304.332      8195.1105      4397.3067      3976.285      -1104.8204      352.20314      669.14024      3823.2165     -3918.2206     -382.48903      75197.703      42.208656      42.208656      42.208656      0.92042031    -1104.3722     -73.725044     -2783.5315    
    104000   104000         517.77678      1796.4233      20243.955      18270.907      9907.0477      8363.8597      4510.7181      3991.0497     -1140.0911      347.33203      738.34472      3833.3632     -3916.8571     -381.91838      75310.06       42.229668      42.229668      42.229668      0.91904711     1871.1428      2449.5154      1068.6116    
    105000   105000         518.94295     -1148.8866      17166.946      18426.499      9929.3609      8497.1379      4536.6933      4095.783      -1067.0216      361.04877      659.52066      3827.0776     -3915.9639     -382.6136       75173.22       42.204075      42.204075      42.204075      0.92072007    -2042.5975     -1510.9123      106.85008    
    106000   106000         525.02425      875.6709       19295.161      18332.769      10045.719      8287.0493      4520.9663      3909.1176     -1105.5116      344.16248      709.13294      3828.849      -3919.6674     -381.6703       75359.012      42.238816      42.238816      42.238816      0.91845012    -1805.6053      296.25286      4136.3652    
    107000   107000         518.54834     -1062.3306      17066.52       18223.414      9921.8105      8301.6035      4490.3869      4027.0339     -1109.696       349.48479      642.74287      3824.9621     -3923.3111     -385.18176      74672.011      42.110069      42.110069      42.110069      0.92690009    -1034.6271     -1305.9544     -846.4102     
    108000   108000         515.91103      640.7278       18846.238      18141.188      9871.3486      8269.8397      4632.9781      3974.0113     -1235.3991      333.60468      658.32109      3825.5715     -3919.2479     -381.20057      75451.872      42.256158      42.256158      42.256158      0.91731976     379.36101      1432.0679      110.75454    
    109000   109000         525.05738     -575.91492      17797.073      18434.297      10046.353      8387.9435      4474.9167      4025.3437     -1096.0585      363.07664      710.39181      3828.1774     -3917.9043     -379.11034      75867.877      42.333676      42.333676      42.333676      0.91228983    -56.686751     -640.11972     -1030.9383    
    110000   110000         526.03432     -1670.6002      16395.417      18214.549      10065.046      8149.5033      4420.7416      3950.8304     -1104.6115      358.22887      617.955        3827.8283     -3921.4694     -385.21906      74664.78       42.108709      42.108709      42.108709      0.92698984    -3026.7701     -584.9014      -1400.1292    
    111000   111000         520.68013      2774.053       21177.484      18155.837      9962.5997      8193.2377      4480.7123      3970.9156     -1216.352       347.67063      682.24006      3846.5336     -3918.4825     -385.09734      74688.381      42.113146      42.113146      42.113146      0.92669693     1856.6928      3375.902       3089.5643    
    112000   112000         522.11853      967.1984       19390.959      18339.823      9990.1219      8349.7015      4441.8728      4141.2922     -1179.9296      335.27031      700.39619      3834.0135     -3923.214      -385.97256      74519.018      42.08129       42.08129       42.08129       0.92880307     1331.5197      1400.1615      169.91401    
    113000   113000         518.66732     -1476.055       16673.67       18293.303      9924.0869      8369.2161      4446.1832      4102.4383     -1177.918       362.59622      712.02613      3840.8938     -3917.0036     -382.28327      75238.178      42.216228      42.216228      42.216228      0.91992516    -248.23976     -2457.9681     -1721.9572    
    114000   114000         523.39432      443.90455      18890.993      18392.99       10014.532      8378.4577      4578.7002      4022.0477     -1237.3599      340.41775      748.05906      3835.7871     -3909.1942     -373.90149      76924.799      42.529354      42.529354      42.529354      0.89975527     488.8417       573.78806      269.08389    
    115000   115000         516.50223      1985.4887      20440.342      18256.298      9882.6606      8373.6376      4456.688       4077.9941     -1160.9948      354.78932      731.91193      3829.2292     -3915.9801     -381.33393      75425.486      42.251231      42.251231      42.251231      0.91764067    -78.668389      3778.8314      2256.3032    
    116000   116000         511.86067     -537.87981      17404.218      17993.373      9793.8498      8199.5232      4363.1155      4084.0748     -1186.1126      346.03727      672.70885      3837.0405     -3917.3411     -382.96163      75104.905      42.191286      42.191286      42.191286      0.92155756     272.21764      979.08686     -2864.9439    
    117000   117000         522.81878     -25.874294      18252.667      18281.185      10003.52       8277.6644      4381.7175      4059.5402     -1104.8637      349.93265      684.47645      3825.9397     -3919.0783     -380.59236      75572.449      42.278655      42.278655      42.278655      0.91585616     1601.9785     -237.6444      -1441.957     
    118000   118000         526.20379     -124.21829      18350.868      18489.211      10068.288      8420.9226      4577.954       4000.6024     -1135.3514      354.54582      688.9034       3842.9332     -3908.6649     -376.64184      76365.112      42.425959      42.425959      42.425959      0.90634965    -390.17052      143.84898     -126.33333    
    119000   119000         522.42998     -2399.8212      15692.157      18309.505      9996.081       8313.4238      4400.8697      4021.9568     -1033.6053      358.81566      644.688        3838.8123     -3918.1133     -384.60667      74783.665      42.131047      42.131047      42.131047      0.9255162     -2988.8406     -1894.7704     -2315.8527    
    120000   120000         525.30901      1234.0884      19637.624      18264.595      10051.168      8213.427       4459.6324      4036.2327     -1251.3089      345.57446      705.47148      3831.8132     -3913.9883     -377.02133      76288.248      42.411719      42.411719      42.411719      0.90726285     746.82974      1795.403       1160.0324    
    121000   121000         520.10653     -405.10632      17621.189      18071.086      9951.6246      8119.4614      4400.9076      3866.8929     -1149.7892      338.08885      747.05157      3828.507      -3912.1974     -377.70699      76149.759      42.38604       42.38604       42.38604       0.90891283    -137.71399     -1600.1817      522.5767     
    122000   122000         517.18973      1074.2619      19312.26       18122.089      9895.815       8226.2743      4619.5719      3903.6437     -1294.365       342.54202      738.21956      3833.3329     -3916.6708     -378.61722      75966.688      42.352046      42.352046      42.352046      0.91110321     2534.4884      483.35832      204.93896    
    123000   123000         520.50087      819.98049      19287.817      18384.797      9959.1699      8425.6267      4533.1619      3999.2644     -1141.1476      360.60657      762.06245      3828.7203     -3917.0414     -380.8952       75512.363      42.267447      42.267447      42.267447      0.91658492     336.69458      593.14523      1530.1017    
    124000   124000         519.26073      942.3553       19109.249      18072.123      9935.4412      8136.6822      4434.3269      3917.5379     -1169.6174      357.01114      682.61485      3832.8172     -3918.0084     -381.13845      75464.169      42.258453      42.258453      42.258453      0.91717028    -505.08498      2998.4721      333.67876    
    125000   125000         511.69611     -501.32231      17674.911      18230.363      9790.7011      8439.6615      4507.247       4051.9955     -1143.9339      362.48349      738.32585      3833.5388     -3909.9953     -378.59085      75971.98       42.35303       42.35303       42.35303       0.91103974    -777.6556      -456.21031     -270.10101    
    126000   126000         508.05894     -2052.8538      15629.674      17896.393      9721.1081      8175.2848      4371.3658      3982.992      -1092.4696      348.50503      645.34637      3830.1746     -3910.6293     -379.89177      75711.819      42.304629      42.304629      42.304629      0.91417026    -1351.0587     -1355.3054     -3452.1973    
    127000   127000         520.77194     -147.66743      17914.005      18076.008      9964.3564      8111.6519      4426.0764      3936.2997     -1154.774       349.65537      633.67338      3834.6603     -3913.9392     -382.35037      75224.973      42.213758      42.213758      42.213758      0.92008665    -1486.9298     -175.96578      1219.8933    
    128000   128000         520.99706      292.48271      18589.627      18263.824      9968.6638      8295.1605      4499.3954      3978.8182     -1157.958       362.67838      704.05765      3819.7622     -3911.5933     -376.56935      76379.813      42.428681      42.428681      42.428681      0.90617521     1209.5842     -1884.9976      1552.8615    
    129000   129000         512.93769     -1328.2873      16646.549      18101.964      9814.4573      8287.5069      4406.282       4054.4718     -1158.4196      354.84637      700.64784      3847.392      -3917.7135     -382.82875      75130.973      42.196167      42.196167      42.196167      0.92123781     114.32232     -951.71557     -3147.4686    
    130000   130000         519.85939     -561.20855      17552.868      18173.745      9946.8959      8226.8494      4442.887       3948.7996     -1141.0327      359.16512      690.07801      3835.5947     -3908.6423     -379.15621      75858.699      42.331968      42.331968      42.331968      0.91240022    -87.18167       457.40033     -2053.8443    
    131000   131000         514.46804      1037.5572      19102.674      17973.636      9843.7388      8129.8974      4182.048       4077.5074     -1140.7988      353.00925      732.09345      3840.5126     -3914.4745     -385.48103      74614.039      42.099168      42.099168      42.099168      0.92762025     775.67523      1789.6257      547.37081    
    132000   132000         518.43305     -669.36216      17352.213      18092.764      9919.6045      8173.1596      4513.4866      3924.7233     -1195.6605      335.45005      677.40203      3830.6023     -3912.8442     -379.14543      75860.855      42.33237       42.33237       42.33237       0.91237428    -1751.2163      1487.9912     -1744.8614    
    133000   133000         519.40622     -255.62389      17761.766      18043.068      9938.225       8104.8426      4376.1395      3904.9984     -1125.0597      349.70093      671.64733      3834.5638     -3907.1477     -381.17926      75456.09       42.256945      42.256945      42.256945      0.91726849     470.82441     -169.89825     -1067.7978    
    134000   134000         504.52396      310.8174       18223.687      17882.122      9653.4704      8228.6518      4479.8444      3939.1548     -1173.8788      353.10894      716.41439      3829.0075     -3914.9994     -381.70868      75351.435      42.2374        42.2374        42.2374        0.91854247    -695.85813      1705.1609     -76.850588    
    135000   135000         507.74986      322.87506      18280.918      17925.73       9715.1943      8210.5359      4464.3185      3984.3111     -1173.3758      338.60755      689.61581      3822.6991     -3915.6404     -381.30781      75430.651      42.252196      42.252196      42.252196      0.91757783     121.52193      1726.1915     -879.08825    
    136000   136000         519.65108     -1172.3183      16718.479      18007.781      9942.9101      8064.8712      4419.2624      3928.4958     -1188.4834      341.85581      643.52191      3832.1658     -3911.9472     -381.40851      75410.737      42.248477      42.248477      42.248477      0.91782014    -2697.1638     -1230.9634      411.17223    
    137000   137000         519.25664     -42.280683      18307.172      18354.101      9935.3629      8418.7386      4513.2013      4035.3353     -1104.2963      341.31579      714.39957      3832.2067     -3913.4238     -377.91338      76108.171      42.378323      42.378323      42.378323      0.90940949     303.25839      292.56951     -722.66994    
    138000   138000         516.57364      1571.9006      19732.009      17998.827      9884.0268      8114.8003      4420.8423      4019.9384     -1344.3319      334.75902      755.4741       3841.2488     -3913.1305     -380.43488      75603.731      42.284488      42.284488      42.284488      0.91547721     1844.711       1804.7688      1066.2222    
    139000   139000         514.92293     -2535.0859      15309.451      18104.898      9852.4425      8252.4557      4388.9339      3973.5658     -1055.693       362.58572      657.14071      3839.2279     -3913.3052     -380.40027      75610.61       42.28577       42.28577       42.28577       0.91539393    -1030.8643     -2929.6875     -3644.7059    
    140000   140000         524.58268      889.9328       19060.114      18087.926      10037.27       8050.6559      4310.4072      4004.8189     -1206.8764      353.80439      681.53199      3819.6334     -3912.6636     -383.9783       74906.046      42.154016      42.154016      42.154016      0.92400409    -246.2898       677.68591      2238.4023    
    141000   141000         514.56198     -357.58091      17603.66       17996.156      9845.5361      8150.6194      4420.0094      3974.8877     -1169.11        343.2226       659.5294       3836.7617     -3914.6815     -382.15506      75263.42       42.220948      42.220948      42.220948      0.91961664     1295.1578      95.479412     -2463.3799    
    142000   142000         509.71928     -1647.0785      15956.865      17774.971      9752.8768      8022.0941      4428.0531      3874.753      -1204.9493      338.90484      647.13118      3843.201      -3904.9997     -380.00963      75688.335      42.300255      42.300255      42.300255      0.91445389     954.28924     -1510.7944     -4384.7304    
    143000   143000         513.78117      433.09726      18540.502      18066.164      9830.5963      8235.5674      4435.7695      4036.5675     -1179.5563      351.15671      654.46464      3846.1476     -3908.9821     -382.99855      75097.664      42.18993       42.18993       42.18993       0.92164642     980.91793      243.40101      74.972829    
    144000   144000         517.18098     -1009.7844      16891.603      18002.581      9895.6477      8106.9333      4395.1604      3914.8004     -1175.3482      335.01921      712.49655      3834.7403     -3909.9353     -381.26113      75439.887      42.25392       42.25392       42.25392       0.91746549    -2289.5052     -1526.1636      786.31563    
    145000   145000         516.48974      709.37444      18984.311      18204.324      9882.4216      8321.9028      4410.9343      3965.5267     -1083.3226      359.40144      757.35729      3829.5201     -3917.5143     -381.49391      75393.856      42.245325      42.245325      42.245325      0.91802565     625.92394      1808.674      -306.47459    
    146000   146000         508.29457      192.19825      18158.618      17943.298      9725.6167      8217.6809      4413.7386      4007.5753     -1207.9192      351.99725      724.82926      3836.2829     -3908.8232     -374.42424      76817.4        42.509553      42.509553      42.509553      0.90101323     218.45994      1622.6828     -1264.548     
    147000   147000         505.44702      303.12197      18238.203      17903.068      9671.1322      8231.9363      4469.8252      3925.4243     -1174.7374      352.55608      726.7969       3838.0193     -3905.9481     -379.4001       75809.934      42.322896      42.322896      42.322896      0.91298712    -36.919558      1032.6786     -86.393135    
    148000   148000         518.9186       142.00254      18098.671      17944.382      9928.895       8015.4875      4371.3047      3867.523      -1102.2338      353.26392      610.51714      3830.5558     -3915.4433     -386.06519      74501.139      42.077924      42.077924      42.077924      0.92902597    -1543.9764      1386.875       583.109      
    149000   149000         510.17977     -369.58805      17452.477      17861.554      9761.6876      8099.8668      4416.7205      3930.52       -1233.8156      334.0094       718.73621      3845.6795     -3911.9832     -378.97625      75894.719      42.338668      42.338668      42.338668      0.91196718     768.7191       40.959841     -1918.4431    
[...]
    955000   955000         309.85789      1547.0963      11450.973      9861.472       5928.765       3932.707       3001.4051      2702.1014     -2028.867       220.5985       161.30902      3809.4577     -3933.2977     -408.27806      70447.813      41.30055       41.30055       41.30055       0.98247894     2094.0154      1761.9572      785.3163     
    956000   956000         312.82552     -1338.5636      8601.7716      9978.2031      5985.5471      3992.656       2933.2281      2615.2375     -1832.2709      224.84257      182.39604      3807.061      -3937.8382     -407.92831      70508.214      41.31235       41.31235       41.31235       0.98163731    -1481.1277     -10.747504     -2523.8156    
    957000   957000         310.22959     -437.57983      9344.1463      9796.1103      5935.8771      3860.2331      2980.9417      2622.1264     -2002.7429      215.262        167.49267      3811.0128     -3933.8595     -406.11864      70822.399      41.373622      41.373622      41.373622      0.97728253    -444.16437     -443.74523     -424.82989    
    958000   958000         311.46638     -454.42316      9447.6946      9915.3235      5959.5415      3955.782       2868.9363      2730.967      -1920.3131      218.29626      188.31712      3804.2978     -3934.7194     -407.62293      70561.036      41.322664      41.322664      41.322664      0.98090244    -571.94693     -195.28973     -596.03282    
    959000   959000         311.6595       245.64637      10148.803      9895.6528      5963.2368      3932.416       2954.6288      2672.1785     -1968.0512      217.80229      188.44439      3802.3699     -3934.9566     -407.03457      70663.032      41.342565      41.342565      41.342565      0.97948661     45.008236      372.14005      319.79082    
    960000   960000         307.44044      107.29704      9886.2709      9775.7101      5882.5099      3893.2001      2961.7578      2674.1914     -1979.1739      215.23466      144.10977      3813.4956     -3936.4151     -407.08585      70654.13       41.340829      41.340829      41.340829      0.97961001    -99.040971      803.03519     -382.10311    
    961000   961000         310.74971      1392.9959      11179.021      9743.5064      5945.829       3797.6774      2884.8976      2657.6755     -2018.5999      204.1702       193.52167      3807.5623     -3931.55       -407.04423      70661.355      41.342238      41.342238      41.342238      0.97950985    -62.143778      2513.0838      1728.0476    
    962000   962000         314.17542     -1019.7227      8808.4969      9864.8157      6011.3759      3853.4398      2900.514       2664.8443     -1957.974       213.49335      154.92536      3809.0825     -3931.4456     -404.93614      71029.216      41.413856      41.413856      41.413856      0.97443696    -1079.963      -382.84817     -1596.357     
    963000   963000         312.69409      428.33694      10358.699      9916.3369      5983.0324      3933.3045      2965.1463      2699.6843     -1956.7138      215.49429      128.98069      3814.8597     -3934.1471     -406.16895      70813.627      41.371914      41.371914      41.371914      0.97740358     165.74143      1709.8878     -590.61842    
    964000   964000         308.64908     -1172.5867      8533.081       9743.9102      5905.6359      3838.2743      2896.8796      2696.7606     -1995.4798      204.12331      147.35334      3818.3247     -3929.6875     -406.22021      70804.692      41.370174      41.370174      41.370174      0.97752693    -895.6557      -634.81935     -1987.285     
    965000   965000         307.29819     -390.53813      9330.0986      9734.436       5879.7882      3854.6478      2906.0739      2658.8224     -1939.1874      211.46274      131.12879      3817.0245     -3930.6772     -405.15297      70991.202      41.406467      41.406467      41.406467      0.97495875    -557.58924     -594.38353     -19.641619    
    966000   966000         315.38623      1393.2164      11228.127      9807.4072      6034.5432      3772.8639      2873.8852      2677.6324     -2032.1067      207.98085      175.29301      3806.1758     -3935.9967     -411.3482       69922.018      41.197543      41.197543      41.197543      0.98986693    -473.73891      2339.2422      2314.1459    
    967000   967000         308.19037     -83.147898      9768.2507      9854.2987      5896.8589      3957.4397      2933.8817      2650.0132     -1895.4093      211.72634      184.32753      3804.7078     -3931.8075     -405.33134      70959.962      41.400392      41.400392      41.400392      0.97538796    -760.15099      267.06611      243.64118    
    968000   968000         305.38464     -23.529023      9634.9961      9659.1298      5843.1746      3815.9552      2880.402       2658.5938     -1953.165       218.85225      121.33846      3822.6626     -3932.7289     -408.95828      70330.637      41.277639      41.277639      41.277639      0.98411582    -388.42637      406.14958     -88.310281    
    969000   969000         319.04297      483.96882      10493.698      9993.7824      6104.5106      3889.2717      2933.8559      2647.8029     -1966.0344      208.96222      186.45317      3809.8157     -3931.5839     -406.08764      70827.806      41.374675      41.374675      41.374675      0.97720793     1216.7132      46.21466       188.97856    
    970000   970000         303.86439     -126.41152      9583.4287      9713.3826      5814.0865      3899.2961      2947.7742      2701.9398     -2002.4243      205.65028      154.78634      3823.2679     -3931.6981     -408.03444      70489.875      41.308768      41.308768      41.308768      0.98189269    -484.40571      133.53994     -28.368787    
    971000   971000         307.50046      737.83971      10556.645      9801.5613      5883.6583      3917.903       3001.0449      2701.0086     -2028.6794      217.07327      153.16216      3806.9766     -3932.6832     -409.88937      70170.876      41.246361      41.246361      41.246361      0.9863564     -811.41939      1019.5678      2005.3707    
    972000   972000         309.34149     -1141.4991      8530.307       9709.0958      5918.8844      3790.2115      2981.3019      2623.4198     -2026.1925      205.2377       130.82037      3808.1346     -3932.5104     -406.19916      70808.361      41.370888      41.370888      41.370888      0.97747627    -1070.0108      448.23306     -2802.7195    
    973000   973000         313.96739      1841.0336      11721.782      9825.6488      6007.3953      3818.2534      2929.1038      2646.0291     -2014.5494      209.58271      178.84609      3805.137      -3935.8959     -407.27921      70620.585      41.334286      41.334286      41.334286      0.98007532     991.5396       4223.4207      308.14045    
    974000   974000         307.50052     -841.94322      8811.9691      9677.5078      5883.6596      3793.8482      2849.7208      2650.3504     -1942.4973      211.33854      157.28929      3801.1467     -3933.5004     -408.03343      70490.048      41.308802      41.308802      41.308802      0.98189028    -1162.679      -284.80511     -1078.3456    
    975000   975000         305.78378     -1421.9226      8247.5874      9705.3565      5850.8117      3854.5448      2908.6355      2644.642      -1920.0768      211.87282      130.28248      3813.8518     -3934.663      -409.15387      70297.016      41.271061      41.271061      41.271061      0.9845865     -1084.6797     -1259.1711     -1921.9171    
    976000   976000         310.56215     -613.94086      9170.4966      9798.775       5942.2403      3856.5347      2984.7417      2657.6835     -1994.1736      213.21683      108.89407      3820.7386     -3934.5663     -409.89614      70169.719      41.246134      41.246134      41.246134      0.98637268    -822.08028     -527.80872     -491.93358    
    977000   977000         303.47778     -142.70918      9556.1946      9703.5988      5806.6891      3896.9098      2997.4705      2689.0831     -2008.231       210.32605      135.02522      3809.8027     -3936.5668     -406.10781      70824.288      41.37399       41.37399       41.37399       0.97725646     37.254089      137.96191     -603.34355    
    978000   978000         304.91537     -346.07801      9267.5607      9623.1236      5834.1956      3788.9279      2892.0939      2580.5499     -1923.5008      212.87933      146.63229      3815.1455     -3934.8722     -408.27905      70447.642      41.300517      41.300517      41.300517      0.98248133     746.97693     -918.78256     -866.4284     
    979000   979000         301.46519     -293.48845      9378.2729      9679.8034      5768.1807      3911.6228      2966.6141      2637.5993     -1918.2579      216.34025      132.09013      3810.032      -3932.7951     -408.28094      70447.316      41.300453      41.300453      41.300453      0.98248588     777.27331     -99.69345      -1558.0452    
    980000   980000         303.33466     -609.21242      8967.3777      9593.8498      5803.9507      3789.8991      2890.728       2620.5797     -1944.8393      212.29302      156.28218      3794.6584     -3939.8029     -407.912        70511.033      41.312901      41.312901      41.312901      0.98159806    -1476.4167      372.21676     -723.43734    
    981000   981000         305.3065       1140.0551      10896.669      9730.5141      5841.6796      3888.8345      2912.0277      2671.9732     -1953.1244      216.71275      173.37629      3806.3736     -3938.5047     -410.08026      70138.213      41.23996       41.23996       41.23996       0.98681574    -166.86747      1779.4852      1807.5475    
    982000   982000         302.97961     -1646.5412      7947.8929      9641.3515      5797.1573      3844.1942      2940.9503      2680.5867     -1964.1376      209.01559      107.4053       3806.9535     -3936.5797     -407.84719      70522.238      41.315089      41.315089      41.315089      0.9814421     -1326.4626     -1515.1715     -2097.9895    
    983000   983000         306.32624      521.45676      10156.637      9618.0521      5861.191       3756.8611      2942.8704      2637.4615     -2054.7946      200.81113      151.96803      3812.933      -3934.3883     -406.12849      70820.681      41.373288      41.373288      41.373288      0.97730623     1022.869       362.34828      179.15302    
    984000   984000         305.53169      122.26944      9747.3255      9621.6865      5845.9883      3775.6982      2894.4455      2630.4956     -1985.2365      208.50646      160.72217      3804.0676     -3937.3026     -408.21874      70458.051      41.302551      41.302551      41.302551      0.98233619    -527.12133      109.01342      784.91622    
    985000   985000         304.38499      60.281572      9626.6666      9564.74        5824.0476      3740.6925      2934.2434      2623.528      -2026.4389      195.97552      134.11716      3811.2185     -3931.9512     -408.32587      70439.565      41.298938      41.298938      41.298938      0.98259399    -1691.3648      2079.593      -207.38352    
    986000   986000         308.23886      91.352617      9744.9062      9651.136       5897.7868      3753.3493      2878.4801      2621.5291     -1941.8785      206.8286       108.20924      3815.2567     -3935.076      -408.65402      70383.002      41.287881      41.287881      41.287881      0.98338364    -1086.9291      661.65832      699.32867    
    987000   987000         304.4058      -767.31895      8904.5041      9694.1779      5824.4456      3869.7323      2929.8364      2639.5874     -1945.5486      207.06505      161.1358       3812.516      -3934.8597     -407.59391      70566.061      41.323645      41.323645      41.323645      0.9808326     -691.5575      -1795.4308      185.03142    
    988000   988000         304.85835      1442.1953      11066.34       9586.4544      5833.1046      3753.3498      2947.6079      2700.2019     -2107.1253      200.80831      138.20044      3806.4057     -3932.7493     -408.7853       70360.398      41.283461      41.283461      41.283461      0.98369957    -17.294934      885.58083      3458.3       
    989000   989000         298.98136      733.97588      10270.738      9512.776       5720.6555      3792.1205      2955.3076      2638.9814     -2026.9122      202.03597      143.58475      3809.6916     -3930.5685     -406.19442      70809.187      41.371049      41.371049      41.371049      0.97746487     442.95991      3031.1978     -1272.2301    
    990000   990000         304.02833     -490.487        9063.1841      9565.1967      5817.2232      3747.9735      2989.1854      2609.568      -2020.4277      194.53134      93.015174      3815.6155     -3933.5142     -409.83808      70179.658      41.248081      41.248081      41.248081      0.98623298    -1502.5339      760.53846     -729.46549    
    991000   991000         297.87222     -497.47241      9022.896       9537.9652      5699.4334      3838.5318      2940.9529      2612.5658     -1979.0188      205.26975      187.894        3800.4887     -3929.6205     -405.13795      70993.834      41.406979      41.406979      41.406979      0.9749226     -1550.1654      1703.4493     -1645.7011    
    992000   992000         307.81677      369.75897      10005.458      9626.8815      5889.7106      3737.1709      2839.0826      2685.6432     -2007.7817      196.58377      157.30662      3799.1344     -3932.798      -409.6984       70203.585      41.252768      41.252768      41.252768      0.98589684    -1274.1633      2173.8158      209.62435    
    993000   993000         306.74659      1744.357       11413.225      9619.8983      5869.2339      3750.6644      2878.9077      2665.4492     -2023.385       208.60445      140.2071       3818.2715     -3937.3906     -408.01437      70493.341      41.309445      41.309445      41.309445      0.98184441     3442.908       1039.1383      751.02487    
    994000   994000         297.46441      677.80047      10133.912      9439.854       5691.6304      3748.2236      2873.274       2676.8395     -2061.2879      196.5269       182.9674       3812.3337     -3932.43       -409.64323      70213.04       41.25462       41.25462       41.25462       0.98576408    -290.53128      292.74032      2031.1924    
    995000   995000         299.84232      535.91147      10125.886      9570.6692      5737.1289      3833.5403      2921.2193      2638.9164     -1997.905       209.06284      172.6208       3819.2769     -3929.6508     -404.88326      71038.492      41.415659      41.415659      41.415659      0.97430972     622.4941       1325.6185     -340.37821    
    996000   996000         297.09959      1212.2177      10700.117      9458.7698      5684.6501      3774.1197      2922.8515      2660.9794     -2043.3503      205.64593      144.76798      3813.9001     -3930.6747     -409.62533      70216.108      41.255221      41.255221      41.255221      0.98572101    -117.22263      2375.5987      1378.2769    
    997000   997000         298.80512      1310.4365      10835.877      9486.5293      5717.2833      3769.246       2976.2246      2634.5884     -2081.8942      206.34071      165.89051      3804.9014     -3936.8054     -407.3724       70604.431      41.331134      41.331134      41.331134      0.98029956     2529.5945      992.83213      408.88278    
    998000   998000         302.19504     -1098.9548      8316.299       9439.3664      5782.1454      3657.221       2857.2166      2577.543      -1971.0631      201.68908      114.90513      3812.0553     -3935.125      -410.46248      70072.901      41.227155      41.227155      41.227155      0.98773552    -2476.5554     -63.392609     -756.91648    
    999000   999000         299.66904     -1010.9391      8466.3829      9510.7056      5733.8134      3776.8922      2888.9764      2688.2114     -2028.0066      201.22961      161.46401      3798.4088     -3933.3914     -406.05958      70832.7        41.375628      41.375628      41.375628      0.97714041    -1543.5876     -796.8078      -692.42199    
   1000000   1000000        302.28153     -459.99971      8993.7484      9466.1183      5783.8003      3682.318       2866.6322      2613.5414     -2014.5966      202.54461      127.3416       3819.2305     -3932.3757     -408.48375      70412.34       41.293617      41.293617      41.293617      0.98297391    -370.45589     -483.01669     -526.52654    
Loop time of 2135.59 on 1 procs for 1000000 steps with 6420 atoms

Performance: 40.457 ns/day, 0.593 hours/ns, 468.255 timesteps/s, 3.006 Matom-step/s
100.0% CPU use with 1 MPI tasks x 1 OpenMP threads

MPI task timing breakdown:
Section |  min time  |  avg time  |  max time  |%varavg| %total
---------------------------------------------------------------
Pair    | 214.26     | 214.26     | 214.26     |   0.0 | 10.03
Bond    | 288.92     | 288.92     | 288.92     |   0.0 | 13.53
Kspace  | 991.9      | 991.9      | 991.9      |   0.0 | 46.45
Neigh   | 224.17     | 224.17     | 224.17     |   0.0 | 10.50
Comm    | 38.923     | 38.923     | 38.923     |   0.0 |  1.82
Output  | 9.6962     | 9.6962     | 9.6962     |   0.0 |  0.45
Modify  | 324.67     | 324.67     | 324.67     |   0.0 | 15.20
Other   |            | 43.05      |            |       |  2.02

Nlocal:           6420 ave        6420 max        6420 min
Histogram: 1 0 0 0 0 0 0 0 0 0
Nghost:          17631 ave       17631 max       17631 min
Histogram: 1 0 0 0 0 0 0 0 0 0
Neighs:              0 ave           0 max           0 min
Histogram: 1 0 0 0 0 0 0 0 0 0
FullNghs:  3.72389e+06 ave 3.72389e+06 max 3.72389e+06 min
Histogram: 1 0 0 0 0 0 0 0 0 0

Total # of neighbors = 3723894
Ave neighs/atom = 580.04579
Ave special neighs/atom = 5.8598131
Neighbor list builds = 41757
Dangerous builds = 0

# --- Cleanup ---
unfix npt_fix

undump dump_npt

# --- Write Output ---
write_dump all custom npt_cool300_last.dump id type mol x y z xu yu zu vx vy vz modify sort id
write_data /home/alexzhao/PolyJarvis/data/PS4/lammps/equil/npt_cool300/npt_cool300_out.data
System init for write_data ...
PPPM Kokkos initialization ...
  using 12-bit tables for long-range coulomb
  G vector (1/distance) = 0.30252783
  grid = 30 30 30
  stencil order = 5
  estimated absolute RMS force accuracy = 0.00027236707
  estimated relative force accuracy = 8.2022533e-07
  using double precision cuFFT
  3d grid and FFT values/proc = 50653 27000
Generated 6 of 6 mixed pair_coeff terms from sixthpower/sixthpower mixing rule

print "STAGE COMPLETE: NPT T=550.0->300.0K P=1.0->1.0atm steps=1000000"
STAGE COMPLETE: NPT T=550.0->300.0K P=1.0->1.0atm steps=1000000
quit
       |  2.02

Nlocal:           6420 ave        6420 max        6420 min
Histogram: 1 0 0 0 0 0 0 0 0 0
Nghost:          17631 ave       17631 max       17631 min
Histogram: 1 0 0 0 0 0 0 0 0 0
Neighs:              0 ave           0 max           0 min
Histogram: 1 0 0 0 0 0 0 0 0 0
FullNghs:  3.72389e+06 ave 3.72389e+06 max 3.72389e+06 min
Histogram: 1 0 0 0 0 0 0 0 0 0

Total # of neighbors = 3723894
Ave neighs/atom = 580.04579
Ave special neighs/atom = 5.8598131
Neighbor list builds = 41757
Dangerous builds = 0
System init for write_data ...
PPPM Kokkos initialization ...
  using 12-bit tables for long-range coulomb
  G vector (1/distance) = 0.30252783
  grid = 30 30 30
  stencil order = 5
  estimated absolute RMS force accuracy = 0.00027236707
  estimated relative force accuracy = 8.2022533e-07
  using double precision cuFFT
  3d grid and FFT values/proc = 50653 27000
Generated 6 of 6 mixed pair_coeff terms from sixthpower/sixthpower mixing rule
STAGE COMPLETE: NPT T=550.0->300.0K P=1.0->1.0atm steps=1000000
