units real
atom_style full
boundary p p p

# --- Force Field Styles ---
pair_style lj/class2/coul/long 9.5 9.5
kspace_style pppm 1e-6
dielectric 1.000000
bond_style class2
angle_style class2
dihedral_style class2
improper_style class2
special_bonds lj/coul 0 0 1
pair_modify mix sixthpower tail yes
neighbor 2.0 bin
neigh_modify delay 0 every 1 check yes
neigh_modify one 4000
# KOKKOS: package loaded via -pk kokkos on the command line

read_data /home/alexzhao/PolyJarvis/data/PS2/lammps/equil/nvt_production/nvt_production_out.data
Reading data file ...
  orthogonal box = (4.1224696 4.1224696 4.1224696) to (46.612215 46.612215 46.612215)
  1 by 1 by 1 MPI processor grid
  reading atoms ...
  6420 atoms
  reading velocities ...
  6420 velocities
  scanning bonds ...
  4 = max bonds/atom
  scanning angles ...
  14 = max angles/atom
  scanning dihedrals ...
  34 = max dihedrals/atom
  scanning impropers ...
  11 = max impropers/atom
  orthogonal box = (4.1224696 4.1224696 4.1224696) to (46.612215 46.612215 46.612215)
  1 by 1 by 1 MPI processor grid
  reading bonds ...
  6810 bonds
  reading angles ...
  12000 angles
  reading dihedrals ...
  19110 dihedrals
  reading impropers ...
  5600 impropers
Finding 1-2 1-3 1-4 neighbors ...
  special bond factors lj:    0        0        1       
  special bond factors coul:  0        0        1       
     4 = max # of 1-2 neighbors
     8 = max # of 1-3 neighbors
    12 = max # of special neighbors
  special bonds CPU = 0.004 seconds
  read_data CPU = 0.444 seconds
include /home/alexzhao/PolyJarvis/data/PS2/lammps/equil/emc_build.params
# LAMMPS parameters created by EMC v9.4.4, build Jul 31 2025 20:33:44

# Variables

variable	seed		index	472916
variable	ntotal		index	6420
variable	fshape		index	1
variable	output		index	emc_build
variable	field		index	pcff/pcff
variable	location1	index	~/emc/field/
variable	nav		index	0.6022141179
variable	temperature	index	300
variable	radius		index	5
variable	nrelax		index	100
variable	weight_nonbond	index	0.0001
variable	weight_bond	index	0.0001
variable	weight_focus	index	1
variable	cutoff		index	9.5
variable	charge_cutoff	index	9.5
variable	kappa		index	4
variable	density1	index	0.53
variable	lprevious	index	0
variable	lphase		index	50.7346850343
variable	f_poly		index	10
variable	chem_repeat	index	*CC(c1ccccc1)*
variable	chem_cap	index	*[H]
variable	lg_repeat	index	16
variable	lg_cap		index	1
variable	norm_poly	index	100
variable	l_poly		index	642
variable	mg_repeat	index	92.14181
variable	mg_cap		index	1.00797
variable	m_poly		index	3687.68834
variable	n_poly		index	10
variable	mtotal		index	41681.3434
variable	nphase1		index	6420
variable	mphase1		index	41681.3434
variable	vphase1		index	130591.498627
variable	lbox		index	50.7346850343
variable	lphase1		index	50.7346850343
variable	lxx		index	50.7346850343
variable	lyy		index	50.7346850343
variable	lzz		index	50.7346850343
variable	lzy		index	0
variable	lzx		index	0
variable	lyx		index	0
variable	vtotal		index	130591.498627
variable	nl_poly		index	10

# Types

variable	type_c		index	1
variable	type_c1		index	2
variable	type_cp		index	3
variable	type_hc		index	4

variable	type_bond_c_c	index	1
variable	type_bond_c_c1	index	2
variable	type_bond_c_cp	index	3
variable	type_bond_c_hc	index	4
variable	type_bond_c1_cp	index	5
variable	type_bond_c1_hc	index	6
variable	type_bond_cp_cp	index	7
variable	type_bond_cp_hc	index	8

variable	type_angle_c_c_c1 index	1
variable	type_angle_c_c_cp index	2
variable	type_angle_c_c_hc index	3
variable	type_angle_c_c1_c index	4
variable	type_angle_c_c1_cp index	5
variable	type_angle_c_c1_hc index	6
variable	type_angle_c_cp_cp index	7
variable	type_angle_c1_c_c1 index	8
variable	type_angle_c1_c_hc index	9
variable	type_angle_c1_cp_cp index	10
variable	type_angle_cp_c_hc index	11
variable	type_angle_cp_c1_hc index	12
variable	type_angle_cp_cp_cp index	13
variable	type_angle_cp_cp_hc index	14
variable	type_angle_hc_c_hc index	15

# Clusters

variable	n0_poly		index	1
variable	n1_poly		index	10
variable	nl_poly		index	10

# Flags

variable	flag_charged	index	1

# Masses

mass		1    12.01115  # c
mass		2    12.01115  # c1
mass		3    12.01115  # cp
mass		4     1.00797  # hc

# Potentials

pair_modify	mix sixthpower tail yes
special_bonds	lj/coul 0 0 1

# Pair Coeffs

pair_coeff	 1  1    0.05400    4.01000  # c,c
pair_coeff	 2  2    0.05400    4.01000  # c1,c1
pair_coeff	 3  3    0.06400    4.01000  # cp,cp
pair_coeff	 4  4    0.02000    2.99500  # hc,hc

# Bond Coeffs

bond_coeff	1    1.53000  299.67000 -501.77000  679.81000  # c,c
bond_coeff	2    1.53000  299.67000 -501.77000  679.81000  # c,c1
bond_coeff	3    1.50100  321.90210 -521.82080  572.16280  # c,cp
bond_coeff	4    1.10100  345.00000 -691.89000  844.60000  # c,hc
bond_coeff	5    1.50100  321.90210 -521.82080  572.16280  # c1,cp
bond_coeff	6    1.10100  345.00000 -691.89000  844.60000  # c1,hc
bond_coeff	7    1.41700  470.83610 -627.61790 1327.63450  # cp,cp
bond_coeff	8    1.09820  372.82510 -803.45260  894.31730  # cp,hc

# Angle Coeffs

angle_coeff	 1  112.67000   39.51600   -7.44300   -9.55830  # c,c,c1
angle_coeff	 2  108.40000   43.95940   -8.39240   -9.33790  # c,c,cp
angle_coeff	 3  110.77000   41.45300  -10.60400    5.12900  # c,c,hc
angle_coeff	 4  112.67000   39.51600   -7.44300   -9.55830  # c,c1,c
angle_coeff	 5  108.40000   43.95940   -8.39240   -9.33790  # c,c1,cp
angle_coeff	 6  110.77000   41.45300  -10.60400    5.12900  # c,c1,hc
angle_coeff	 7  120.05000   44.71480  -22.73520    0.00000  # c,cp,cp
angle_coeff	 8  112.67000   39.51600   -7.44300   -9.55830  # c1,c,c1
angle_coeff	 9  110.77000   41.45300  -10.60400    5.12900  # c1,c,hc
angle_coeff	10  120.05000   44.71480  -22.73520    0.00000  # c1,cp,cp
angle_coeff	11  111.00000   44.32340   -9.44540    0.00000  # cp,c,hc
angle_coeff	12  111.00000   44.32340   -9.44540    0.00000  # cp,c1,hc
angle_coeff	13  118.90000   61.02260  -34.99310    0.00000  # cp,cp,cp
angle_coeff	14  117.94000   35.15580  -12.46820    0.00000  # cp,cp,hc
angle_coeff	15  107.66000   39.64100  -12.92100   -2.43180  # hc,c,hc

# BondBond Coeffs

angle_coeff	 1 bb    0.00000    1.53000    1.53000  # c,c,c1
angle_coeff	 2 bb    0.00000    1.53000    1.50100  # c,c,cp
angle_coeff	 3 bb    3.38720    1.53000    1.10100  # c,c,hc
angle_coeff	 4 bb    0.00000    1.53000    1.53000  # c,c1,c
angle_coeff	 5 bb    0.00000    1.53000    1.50100  # c,c1,cp
angle_coeff	 6 bb    3.38720    1.53000    1.10100  # c,c1,hc
angle_coeff	 7 bb   12.06760    1.50100    1.41700  # c,cp,cp
angle_coeff	 8 bb    0.00000    1.53000    1.53000  # c1,c,c1
angle_coeff	 9 bb    3.38720    1.53000    1.10100  # c1,c,hc
angle_coeff	10 bb   12.06760    1.50100    1.41700  # c1,cp,cp
angle_coeff	11 bb    2.91680    1.50100    1.10100  # cp,c,hc
angle_coeff	12 bb    2.91680    1.50100    1.10100  # cp,c1,hc
angle_coeff	13 bb   68.28560    1.41700    1.41700  # cp,cp,cp
angle_coeff	14 bb    1.07950    1.41700    1.09820  # cp,cp,hc
angle_coeff	15 bb    5.33160    1.10100    1.10100  # hc,c,hc

# BondAngle Coeffs

angle_coeff	 1 ba    8.01600    8.01600    1.53000    1.53000  # c,c,c1
angle_coeff	 2 ba    0.00000    0.00000    1.53000    1.50100  # c,c,cp
angle_coeff	 3 ba   20.75400   11.42100    1.53000    1.10100  # c,c,hc
angle_coeff	 4 ba    8.01600    8.01600    1.53000    1.53000  # c,c1,c
angle_coeff	 5 ba    0.00000    0.00000    1.53000    1.50100  # c,c1,cp
angle_coeff	 6 ba   20.75400   11.42100    1.53000    1.10100  # c,c1,hc
angle_coeff	 7 ba   47.05790   31.07710    1.50100    1.41700  # c,cp,cp
angle_coeff	 8 ba    8.01600    8.01600    1.53000    1.53000  # c1,c,c1
angle_coeff	 9 ba   20.75400   11.42100    1.53000    1.10100  # c1,c,hc
angle_coeff	10 ba   47.05790   31.07710    1.50100    1.41700  # c1,cp,cp
angle_coeff	11 ba   26.46080   11.77170    1.50100    1.10100  # cp,c,hc
angle_coeff	12 ba   26.46080   11.77170    1.50100    1.10100  # cp,c1,hc
angle_coeff	13 ba   28.87080   28.87080    1.41700    1.41700  # cp,cp,cp
angle_coeff	14 ba   20.00330   24.21830    1.41700    1.09820  # cp,cp,hc
angle_coeff	15 ba   18.10300   18.10300    1.10100    1.10100  # hc,c,hc

# Dihedral Coeffs

dihedral_coeff	 1    0.00000    0.00000    0.05140    0.00000   -0.14300    0.00000  # c,c,c1,c
dihedral_coeff	 2    0.00000    0.00000    0.00000    0.00000    0.15800  180.00000  # c,c,c1,cp
dihedral_coeff	 3    0.00000    0.00000    0.03160    0.00000   -0.16810    0.00000  # c,c,c1,hc
dihedral_coeff	 4   -0.28020    0.00000   -0.06780    0.00000   -0.01220    0.00000  # c,c,cp,cp
dihedral_coeff	 5    0.00000    0.00000    0.05140    0.00000   -0.14300    0.00000  # c,c1,c,c1
dihedral_coeff	 6    0.00000    0.00000    0.03160    0.00000   -0.16810    0.00000  # c,c1,c,hc
dihedral_coeff	 7   -0.28020    0.00000   -0.06780    0.00000   -0.01220    0.00000  # c,c1,cp,cp
dihedral_coeff	 8    0.00000    0.00000    4.40720    0.00000    0.00000    0.00000  # c,cp,cp,cp
dihedral_coeff	 9    0.00000    0.00000    1.55900    0.00000    0.00000    0.00000  # c,cp,cp,hc
dihedral_coeff	10    0.00000    0.00000    0.00000    0.00000    0.15800  180.00000  # c1,c,c,cp
dihedral_coeff	11    0.00000    0.00000    0.03160    0.00000   -0.16810    0.00000  # c1,c,c,hc
dihedral_coeff	12    0.00000    0.00000    0.00000    0.00000    0.15800  180.00000  # c1,c,c1,cp
dihedral_coeff	13    0.00000    0.00000    0.03160    0.00000   -0.16810    0.00000  # c1,c,c1,hc
dihedral_coeff	14    0.00000    0.00000    4.40720    0.00000    0.00000    0.00000  # c1,cp,cp,cp
dihedral_coeff	15    0.00000    0.00000    1.55900    0.00000    0.00000    0.00000  # c1,cp,cp,hc
dihedral_coeff	16   -0.02280    0.00000    0.02800    0.00000   -0.18630    0.00000  # cp,c,c,hc
dihedral_coeff	17   -0.02280    0.00000    0.02800    0.00000   -0.18630    0.00000  # cp,c1,c,hc
dihedral_coeff	18   -0.28010    0.00000   -0.06780    0.00000   -0.01220    0.00000  # cp,cp,c,hc
dihedral_coeff	19   -0.28010    0.00000   -0.06780    0.00000   -0.01220    0.00000  # cp,cp,c1,hc
dihedral_coeff	20    8.36670    0.00000    1.19320    0.00000    0.00000    0.00000  # cp,cp,cp,cp
dihedral_coeff	21    0.00000    0.00000    3.96610    0.00000    0.00000    0.00000  # cp,cp,cp,hc
dihedral_coeff	22   -0.14320    0.00000    0.06170    0.00000   -0.10830    0.00000  # hc,c,c,hc
dihedral_coeff	23   -0.14320    0.00000    0.06170    0.00000   -0.10830    0.00000  # hc,c,c1,hc
dihedral_coeff	24    0.00000    0.00000    1.87690    0.00000    0.00000    0.00000  # hc,cp,cp,hc

# MiddleBondTorsion Coeffs

dihedral_coeff	 1 mbt  -17.78700   -7.18770    0.00000    1.53000  # c,c,c1,c
dihedral_coeff	 2 mbt    0.00000    0.00000    0.00000    1.53000  # c,c,c1,cp
dihedral_coeff	 3 mbt  -14.87900   -3.65810   -0.31380    1.53000  # c,c,c1,hc
dihedral_coeff	 4 mbt    0.00000    0.00000    0.00000    1.50100  # c,c,cp,cp
dihedral_coeff	 5 mbt  -17.78700   -7.18770    0.00000    1.53000  # c,c1,c,c1
dihedral_coeff	 6 mbt  -14.87900   -3.65810   -0.31380    1.53000  # c,c1,c,hc
dihedral_coeff	 7 mbt    0.00000    0.00000    0.00000    1.50100  # c,c1,cp,cp
dihedral_coeff	 8 mbt    0.00000    9.17920    0.00000    1.41700  # c,cp,cp,cp
dihedral_coeff	 9 mbt    0.00000    3.94210    0.00000    1.41700  # c,cp,cp,hc
dihedral_coeff	10 mbt    0.00000    0.00000    0.00000    1.53000  # c1,c,c,cp
dihedral_coeff	11 mbt  -14.87900   -3.65810   -0.31380    1.53000  # c1,c,c,hc
dihedral_coeff	12 mbt    0.00000    0.00000    0.00000    1.53000  # c1,c,c1,cp
dihedral_coeff	13 mbt  -14.87900   -3.65810   -0.31380    1.53000  # c1,c,c1,hc
dihedral_coeff	14 mbt    0.00000    9.17920    0.00000    1.41700  # c1,cp,cp,cp
dihedral_coeff	15 mbt    0.00000    3.94210    0.00000    1.41700  # c1,cp,cp,hc
dihedral_coeff	16 mbt    0.00000    0.00000    0.00000    1.53000  # cp,c,c,hc
dihedral_coeff	17 mbt    0.00000    0.00000    0.00000    1.53000  # cp,c1,c,hc
dihedral_coeff	18 mbt   -5.56790    1.40830    0.30100    1.50100  # cp,cp,c,hc
dihedral_coeff	19 mbt   -5.56790    1.40830    0.30100    1.50100  # cp,cp,c1,hc
dihedral_coeff	20 mbt   27.59890   -2.31200    0.00000    1.41700  # cp,cp,cp,cp
dihedral_coeff	21 mbt    0.00000   -1.15210    0.00000    1.41700  # cp,cp,cp,hc
dihedral_coeff	22 mbt  -14.26100   -0.53220   -0.48640    1.53000  # hc,c,c,hc
dihedral_coeff	23 mbt  -14.26100   -0.53220   -0.48640    1.53000  # hc,c,c1,hc
dihedral_coeff	24 mbt    0.00000    4.82280    0.00000    1.41700  # hc,cp,cp,hc

# EndBondTorsion Coeffs

dihedral_coeff	 1 ebt   -0.07320    0.00000    0.00000   -0.07320    0.00000    0.00000    1.53000    1.53000  # c,c,c1,c
dihedral_coeff	 2 ebt    0.00000    0.00000    0.00000    0.00000    0.00000    0.00000    1.53000    1.50100  # c,c,c1,cp
dihedral_coeff	 3 ebt    0.24860    0.24220   -0.09250    0.08140    0.05910    0.22190    1.53000    1.10100  # c,c,c1,hc
dihedral_coeff	 4 ebt    0.00000    0.00000    0.00000    0.00000    0.00000    0.00000    1.53000    1.41700  # c,c,cp,cp
dihedral_coeff	 5 ebt   -0.07320    0.00000    0.00000   -0.07320    0.00000    0.00000    1.53000    1.53000  # c,c1,c,c1
dihedral_coeff	 6 ebt    0.24860    0.24220   -0.09250    0.08140    0.05910    0.22190    1.53000    1.10100  # c,c1,c,hc
dihedral_coeff	 7 ebt    0.00000    0.00000    0.00000    0.00000    0.00000    0.00000    1.53000    1.41700  # c,c1,cp,cp
dihedral_coeff	 8 ebt    0.00000    0.24210    0.00000    0.00000   -0.69180    0.00000    1.50100    1.41700  # c,cp,cp,cp
dihedral_coeff	 9 ebt    0.00000   -1.79700    0.00000    0.00000   -0.48790    0.00000    1.50100    1.09820  # c,cp,cp,hc
dihedral_coeff	10 ebt    0.00000    0.00000    0.00000    0.00000    0.00000    0.00000    1.53000    1.50100  # c1,c,c,cp
dihedral_coeff	11 ebt    0.24860    0.24220   -0.09250    0.08140    0.05910    0.22190    1.53000    1.10100  # c1,c,c,hc
dihedral_coeff	12 ebt    0.00000    0.00000    0.00000    0.00000    0.00000    0.00000    1.53000    1.50100  # c1,c,c1,cp
dihedral_coeff	13 ebt    0.24860    0.24220   -0.09250    0.08140    0.05910    0.22190    1.53000    1.10100  # c1,c,c1,hc
dihedral_coeff	14 ebt    0.00000    0.24210    0.00000    0.00000   -0.69180    0.00000    1.50100    1.41700  # c1,cp,cp,cp
dihedral_coeff	15 ebt    0.00000   -1.79700    0.00000    0.00000   -0.48790    0.00000    1.50100    1.09820  # c1,cp,cp,hc
dihedral_coeff	16 ebt    0.00000    0.00000    0.00000    0.00000    0.00000    0.00000    1.50100    1.10100  # cp,c,c,hc
dihedral_coeff	17 ebt    0.00000    0.00000    0.00000    0.00000    0.00000    0.00000    1.50100    1.10100  # cp,c1,c,hc
dihedral_coeff	18 ebt   -0.58350    1.12200    0.39780    1.39970    0.77560    0.00000    1.41700    1.10100  # cp,cp,c,hc
dihedral_coeff	19 ebt   -0.58350    1.12200    0.39780    1.39970    0.77560    0.00000    1.41700    1.10100  # cp,cp,c1,hc
dihedral_coeff	20 ebt   -0.11850    6.32040    0.00000   -0.11850    6.32040    0.00000    1.41700    1.41700  # cp,cp,cp,cp
dihedral_coeff	21 ebt    0.00000   -6.89580    0.00000    0.00000   -0.46690    0.00000    1.41700    1.09820  # cp,cp,cp,hc
dihedral_coeff	22 ebt    0.21300    0.31200    0.07770    0.21300    0.31200    0.07770    1.10100    1.10100  # hc,c,c,hc
dihedral_coeff	23 ebt    0.21300    0.31200    0.07770    0.21300    0.31200    0.07770    1.10100    1.10100  # hc,c,c1,hc
dihedral_coeff	24 ebt    0.00000   -0.68900    0.00000    0.00000   -0.68900    0.00000    1.09820    1.09820  # hc,cp,cp,hc

# AngleTorsion Coeffs

dihedral_coeff	 1 at    0.38860   -0.31390    0.13890    0.38860   -0.31390    0.13890  112.67000  112.67000  # c,c,c1,c
dihedral_coeff	 2 at    0.00000    0.00000    0.00000    0.00000    0.00000    0.00000  112.67000  108.40000  # c,c,c1,cp
dihedral_coeff	 3 at   -0.24540    0.00000   -0.11360    0.31130    0.45160   -0.19880  112.67000  110.77000  # c,c,c1,hc
dihedral_coeff	 4 at    0.00000    0.00000    0.00000    0.00000    0.00000    0.00000  108.40000  120.05000  # c,c,cp,cp
dihedral_coeff	 5 at    0.38860   -0.31390    0.13890    0.38860   -0.31390    0.13890  112.67000  112.67000  # c,c1,c,c1
dihedral_coeff	 6 at   -0.24540    0.00000   -0.11360    0.31130    0.45160   -0.19880  112.67000  110.77000  # c,c1,c,hc
dihedral_coeff	 7 at    0.00000    0.00000    0.00000    0.00000    0.00000    0.00000  108.40000  120.05000  # c,c1,cp,cp
dihedral_coeff	 8 at    0.00000   -4.46830    0.00000    0.00000    3.89870    0.00000  120.05000  118.90000  # c,cp,cp,cp
dihedral_coeff	 9 at    0.00000   -0.12420    0.00000    0.00000    3.46010    0.00000  120.05000  117.94000  # c,cp,cp,hc
dihedral_coeff	10 at    0.00000    0.00000    0.00000    0.00000    0.00000    0.00000  112.67000  108.40000  # c1,c,c,cp
dihedral_coeff	11 at   -0.24540    0.00000   -0.11360    0.31130    0.45160   -0.19880  112.67000  110.77000  # c1,c,c,hc
dihedral_coeff	12 at    0.00000    0.00000    0.00000    0.00000    0.00000    0.00000  112.67000  108.40000  # c1,c,c1,cp
dihedral_coeff	13 at   -0.24540    0.00000   -0.11360    0.31130    0.45160   -0.19880  112.67000  110.77000  # c1,c,c1,hc
dihedral_coeff	14 at    0.00000   -4.46830    0.00000    0.00000    3.89870    0.00000  120.05000  118.90000  # c1,cp,cp,cp
dihedral_coeff	15 at    0.00000   -0.12420    0.00000    0.00000    3.46010    0.00000  120.05000  117.94000  # c1,cp,cp,hc
dihedral_coeff	16 at    0.00000    0.00000    0.00000    0.00000    0.00000    0.00000  108.40000  110.77000  # cp,c,c,hc
dihedral_coeff	17 at    0.00000    0.00000    0.00000    0.00000    0.00000    0.00000  108.40000  110.77000  # cp,c1,c,hc
dihedral_coeff	18 at    0.22510    0.65480    0.12370    4.62660    0.16320    0.04610  120.05000  111.00000  # cp,cp,c,hc
dihedral_coeff	19 at    0.22510    0.65480    0.12370    4.62660    0.16320    0.04610  120.05000  111.00000  # cp,cp,c1,hc
dihedral_coeff	20 at    1.97670    1.02390    0.00000    1.97670    1.02390    0.00000  118.90000  118.90000  # cp,cp,cp,cp
dihedral_coeff	21 at    0.00000    2.50140    0.00000    0.00000    2.71470    0.00000  118.90000  117.94000  # cp,cp,cp,hc
dihedral_coeff	22 at   -0.80850    0.55690   -0.24660   -0.80850    0.55690   -0.24660  110.77000  110.77000  # hc,c,c,hc
dihedral_coeff	23 at   -0.80850    0.55690   -0.24660   -0.80850    0.55690   -0.24660  110.77000  110.77000  # hc,c,c1,hc
dihedral_coeff	24 at    0.00000    2.45010    0.00000    0.00000    2.45010    0.00000  117.94000  117.94000  # hc,cp,cp,hc

# AngleAngleTorsion Coeffs

dihedral_coeff	 1 aat  -22.04500  112.67000  112.67000  # c,c,c1,c
dihedral_coeff	 2 aat    0.00000  112.67000  108.40000  # c,c,c1,cp
dihedral_coeff	 3 aat  -16.16400  112.67000  110.77000  # c,c,c1,hc
dihedral_coeff	 4 aat    0.00000  108.40000  120.05000  # c,c,cp,cp
dihedral_coeff	 5 aat  -22.04500  112.67000  112.67000  # c,c1,c,c1
dihedral_coeff	 6 aat  -16.16400  112.67000  110.77000  # c,c1,c,hc
dihedral_coeff	 7 aat    0.00000  108.40000  120.05000  # c,c1,cp,cp
dihedral_coeff	 8 aat  -14.40970  120.05000  118.90000  # c,cp,cp,cp
dihedral_coeff	 9 aat    4.44440  120.05000  117.94000  # c,cp,cp,hc
dihedral_coeff	10 aat    0.00000  112.67000  108.40000  # c1,c,c,cp
dihedral_coeff	11 aat  -16.16400  112.67000  110.77000  # c1,c,c,hc
dihedral_coeff	12 aat    0.00000  112.67000  108.40000  # c1,c,c1,cp
dihedral_coeff	13 aat  -16.16400  112.67000  110.77000  # c1,c,c1,hc
dihedral_coeff	14 aat  -14.40970  120.05000  118.90000  # c1,cp,cp,cp
dihedral_coeff	15 aat    4.44440  120.05000  117.94000  # c1,cp,cp,hc
dihedral_coeff	16 aat    0.00000  108.40000  110.77000  # cp,c,c,hc
dihedral_coeff	17 aat    0.00000  108.40000  110.77000  # cp,c1,c,hc
dihedral_coeff	18 aat   -5.88880  120.05000  111.00000  # cp,cp,c,hc
dihedral_coeff	19 aat   -5.88880  120.05000  111.00000  # cp,cp,c1,hc
dihedral_coeff	20 aat    0.00000  118.90000  118.90000  # cp,cp,cp,cp
dihedral_coeff	21 aat   -4.81410  118.90000  117.94000  # cp,cp,cp,hc
dihedral_coeff	22 aat  -12.56400  110.77000  110.77000  # hc,c,c,hc
dihedral_coeff	23 aat  -12.56400  110.77000  110.77000  # hc,c,c1,hc
dihedral_coeff	24 aat    0.35980  117.94000  117.94000  # hc,cp,cp,hc

# BondBond13 Coeffs

dihedral_coeff	 1 bb13    0.00000    1.53000    1.53000  # c,c,c1,c
dihedral_coeff	 2 bb13    0.00000    1.53000    1.50100  # c,c,c1,cp
dihedral_coeff	 3 bb13    0.00000    1.53000    1.10100  # c,c,c1,hc
dihedral_coeff	 4 bb13    0.00000    1.53000    1.41700  # c,c,cp,cp
dihedral_coeff	 5 bb13    0.00000    1.53000    1.53000  # c,c1,c,c1
dihedral_coeff	 6 bb13    0.00000    1.53000    1.10100  # c,c1,c,hc
dihedral_coeff	 7 bb13    0.00000    1.53000    1.41700  # c,c1,cp,cp
dihedral_coeff	 8 bb13    2.50850    1.50100    1.41700  # c,cp,cp,cp
dihedral_coeff	 9 bb13    0.87430    1.50100    1.09820  # c,cp,cp,hc
dihedral_coeff	10 bb13    0.00000    1.53000    1.50100  # c1,c,c,cp
dihedral_coeff	11 bb13    0.00000    1.53000    1.10100  # c1,c,c,hc
dihedral_coeff	12 bb13    0.00000    1.53000    1.50100  # c1,c,c1,cp
dihedral_coeff	13 bb13    0.00000    1.53000    1.10100  # c1,c,c1,hc
dihedral_coeff	14 bb13    2.50850    1.50100    1.41700  # c1,cp,cp,cp
dihedral_coeff	15 bb13    0.87430    1.50100    1.09820  # c1,cp,cp,hc
dihedral_coeff	16 bb13    0.00000    1.50100    1.10100  # cp,c,c,hc
dihedral_coeff	17 bb13    0.00000    1.50100    1.10100  # cp,c1,c,hc
dihedral_coeff	18 bb13   -3.48260    1.41700    1.10100  # cp,cp,c,hc
dihedral_coeff	19 bb13   -3.48260    1.41700    1.10100  # cp,cp,c1,hc
dihedral_coeff	20 bb13   53.00000    1.41700    1.41700  # cp,cp,cp,cp
dihedral_coeff	21 bb13   -6.27410    1.41700    1.09820  # cp,cp,cp,hc
dihedral_coeff	22 bb13    0.00000    1.10100    1.10100  # hc,c,c,hc
dihedral_coeff	23 bb13    0.00000    1.10100    1.10100  # hc,c,c1,hc
dihedral_coeff	24 bb13   -1.70770    1.09820    1.09820  # hc,cp,cp,hc

# Improper Coeffs

improper_coeff	 1    0.00000    0.00000  # c,c,cp,hc
improper_coeff	 2    0.00000    0.00000  # c,c,hc,c1
improper_coeff	 3    0.00000    0.00000  # c,c,hc,cp
improper_coeff	 4    0.00000    0.00000  # c,c,hc,hc
improper_coeff	 5    0.00000    0.00000  # c,c1,c1,hc
improper_coeff	 6    0.00000    0.00000  # c,c1,hc,hc
improper_coeff	 7    0.00000    0.00000  # c,cp,hc,hc
improper_coeff	 8    0.00000    0.00000  # c,hc,hc,hc
improper_coeff	 9    0.00000    0.00000  # c1,c,c,cp
improper_coeff	10    0.00000    0.00000  # c1,c,c,hc
improper_coeff	11    0.00000    0.00000  # c1,c,cp,hc
improper_coeff	12    7.81530    0.00000  # cp,c,cp,cp
improper_coeff	13    7.81530    0.00000  # cp,c1,cp,cp
improper_coeff	14    4.89120    0.00000  # cp,cp,cp,hc

# AngleAngle Coeffs

improper_coeff	 1 aa    2.04030   -1.82020    1.08270  108.40000  110.77000  111.00000  # c,c,cp,hc
improper_coeff	 2 aa    0.11840   -1.31990   -1.31990  110.77000  112.67000  110.77000  # c,c,hc,c1
improper_coeff	 3 aa    1.08270   -1.82020    2.04030  110.77000  108.40000  111.00000  # c,c,hc,cp
improper_coeff	 4 aa    0.27380   -0.48250    0.27380  110.77000  110.77000  107.66000  # c,c,hc,hc
improper_coeff	 5 aa   -1.31990   -1.31990    0.11840  112.67000  110.77000  110.77000  # c,c1,c1,hc
improper_coeff	 6 aa    0.27380   -0.48250    0.27380  110.77000  110.77000  107.66000  # c,c1,hc,hc
improper_coeff	 7 aa    2.37940    3.01180    2.37940  111.00000  111.00000  107.66000  # c,cp,hc,hc
improper_coeff	 8 aa   -0.31570   -0.31570   -0.31570  107.66000  107.66000  107.66000  # c,hc,hc,hc
improper_coeff	 9 aa    0.00000    0.00000    0.00000  112.67000  108.40000  108.40000  # c1,c,c,cp
improper_coeff	10 aa   -1.31990   -1.31990    0.11840  112.67000  110.77000  110.77000  # c1,c,c,hc
improper_coeff	11 aa    2.04030   -1.82020    1.08270  108.40000  110.77000  111.00000  # c1,c,cp,hc
improper_coeff	12 aa    0.00000    0.00000    0.00000  120.05000  120.05000  118.90000  # cp,c,cp,cp
improper_coeff	13 aa    0.00000    0.00000    0.00000  120.05000  120.05000  118.90000  # cp,c1,cp,cp
improper_coeff	14 aa    0.00000    0.00000    0.00000  118.90000  117.94000  117.94000  # cp,cp,cp,hc


# --- Thermo Output ---
thermo_style custom step time temp press enthalpy etotal ke pe ebond eangle edihed eimp evdwl ecoul elong etail vol lx ly lz density pxx pyy pzz
thermo_modify flush yes
thermo 500

# --- Velocity initialization at T_START (once only — Rule A) ---
velocity all create 600.0 105525 mom yes rot yes dist gaussian

# --- Temperature staircase (inherits momenta across steps — Rule A) ---
variable temps index 600 580 560 540 520 500 480 460 440 420 400 380 360 340 320 300 280 260 240 220 200
label TEMP_LOOP
  timestep 1
  fix npt_tg all npt temp ${temps} ${temps} 100 iso 1.0 1.0 1000
  fix npt_tg all npt temp 600 ${temps} 100 iso 1.0 1.0 1000
  fix npt_tg all npt temp 600 600 100 iso 1.0 1.0 1000
  run 50000
PPPM Kokkos initialization ...
  using 12-bit tables for long-range coulomb
  G vector (1/distance) = 0.30017842
  grid = 30 30 30
  stencil order = 5
  estimated absolute RMS force accuracy = 0.0002967605
  estimated relative force accuracy = 8.9368544e-07
  using double precision cuFFT
  3d grid and FFT values/proc = 50653 27000
Generated 6 of 6 mixed pair_coeff terms from sixthpower/sixthpower mixing rule
Neighbor list info ...
  update: every = 1 steps, delay = 0 steps, check = yes
  max neighbors/atom: 4000, page size: 100000
  master list distance cutoff = 11.5
  ghost atom cutoff = 11.5
  binsize = 11.5, bins = 4 4 4
  1 neighbor lists, perpetual/occasional/extra = 1 0 0
  (1) pair lj/class2/coul/long/kk, perpetual
      attributes: full, newton off, kokkos_device
      pair build: full/bin/kk/device
      stencil: full/bin/3d
      bin: kk/device
Per MPI rank memory allocation (min/avg/max) = 41.12 | 41.12 | 41.12 Mbytes
   Step          Time           Temp          Press         Enthalpy        TotEng         KinEng         PotEng         E_bond        E_angle        E_dihed        E_impro         E_vdwl         E_coul         E_long         E_tail         Volume           Lx             Ly             Lz          Density          Pxx            Pyy            Pzz      
         0   0              600            354.54595      20675.878      20279.234      11480.292      8798.9421      4698.0246      4030.7083     -1060.9093      363.62795      843.06383      3831.7909     -3907.3642     -374.9481       76710.074      42.489746      42.489746      42.489746      0.90227384     401.44158      442.69209      219.50417    
       500   500            612.10808     -1712.7788      19726.951      21673.881      11711.966      9961.9148      5095.4318      4518.6149     -797.82033      400.06629      799.56188      3846.7928     -3900.7324     -369.02046      77942.281      42.716045      42.716045      42.716045      0.88800959    -2222.8048     -1803.8691     -1111.6626    
      1000   1000           597.22754      449.90257      22282.378      21767.113      11427.244      10339.869      5228.3559      4623.2342     -844.64484      415.70245      991.88375      3827.4875     -3902.15       -366.25829      78530.089      42.823159      42.823159      42.823159      0.88136272     1056.4016     -792.35537      1085.6615    
      1500   1500           599.75593      689.64419      22173.729      21388.739      11475.622      9913.1168      5185.5424      4467.248      -991.39614      386.92129      940.82592      3828.4469     -3904.4715     -368.51915      78048.308      42.735406      42.735406      42.735406      0.88680325     1345.7336      593.48228      129.71669    
      2000   2000           601.6417      -1610.0612      19770.505      21600.634      11511.704      10088.931      5091.0153      4575.1315     -802.88896      420.87114      873.32119      3834.3589     -3902.8785     -369.02864      77940.554      42.71573       42.71573       42.71573       0.88802927    -2370.7532     -1283.0506     -1176.3799    
      2500   2500           601.27124      1109.2521      22748.394      21483.869      11504.615      9979.2538      5255.1797      4481.9224     -993.69987      388.51131      918.71102      3828.7511     -3900.1219     -367.96143      78166.607      42.756986      42.756986      42.756986      0.88546114    -1418.4592      2806.0122      1940.2032    
      3000   3000           603.29218     -830.77325      20490.378      21436.435      11543.284      9893.1507      4995.2429      4534.1952     -857.61742      401.66035      888.94941      3829.2393     -3898.519      -368.3536       78083.386      42.741807      42.741807      42.741807      0.88640486    -2120.3999      496.11851     -868.03835    
      3500   3500           599.67934      240.35155      21650.928      21378.401      11474.156      9904.2448      5085.7394      4485.1996     -888.51918      410.31244      861.22976      3851.4292     -3901.1464     -369.94429      77747.642      42.680458      42.680458      42.680458      0.89023269    -2748.4432      2166.9093      1302.5885    
      4000   4000           593.55771      501.14499      22044.536      21477.905      11357.026      10120.879      5193.6035      4564.2165     -850.00221      395.51102      892.39724      3830.3599     -3905.2069     -370.99037      77528.417      42.640305      42.640305      42.640305      0.89274998     898.58548      1597.0928     -992.2433     
      4500   4500           601.48        -999.37417      20414.741      21541.748      11508.61       10033.138      5023.7404      4597.8628     -821.60927      392.40263      903.60504      3840.2964     -3903.1602     -371.96407      77325.47       42.603066      42.603066      42.603066      0.89509307     113.35157     -2008.9179     -1102.5562    
      5000   5000           589.62182     -347.08085      20870.625      21265.686      11281.718      9983.9685      5138.7666      4613.021      -1001.0874      380.42472      909.71868      3842.3531     -3899.2282     -368.5245       78047.176      42.735199      42.735199      42.735199      0.88681611    -1671.4021      142.45619      487.70341    
      5500   5500           603.49977      395.71193      21641.951      21192.262      11547.256      9645.0064      4953.4876      4377.7827     -910.33067      405.35589      884.19795      3840.0271     -3905.5142     -369.11933      77921.405      42.712231      42.712231      42.712231      0.8882475      1981.4057      235.58195     -1029.8519    
      6000   6000           590.6198       129.43267      21569.544      21421.008      11300.813      10120.195      5076.2593      4573.9048     -836.99166      408.21437      954.3098       3839.6891     -3895.1908     -365.51944      78688.828      42.851993      42.851993      42.851993      0.87958475     691.68126     -517.25769      213.87445    
      6500   6500           608.53102     -189.20717      21377.642      21597.541      11643.523      9954.0181      5052.0299      4540.4148     -935.36322      396.93189      953.40344      3837.0577     -3890.4564     -360.92289      79690.974      43.033141      43.033141      43.033141      0.86852362     962.81179     -1158.8127     -371.62061    
      7000   7000           603.50297      676.58575      22513.685      21725.169      11547.317      10177.852      5209.6462      4509.4275     -854.59827      400.91277      963.65245      3841.3754     -3892.5637     -359.92519      79911.875      43.072866      43.072866      43.072866      0.86612275     1414.9147     -908.81628      1523.6588    
      7500   7500           596.23995      64.989981      21535.98       21461.734      11408.348      10053.387      5043.3289      4600.1533     -872.82056      413.56232      933.47234      3833.7013     -3898.0109     -367.17554      78333.912      42.78747       42.78747       42.78747       0.88356998     486.95674     -1007.8958      715.90897    
      8000   8000           601.67522     -329.48467      20950.114      21324.379      11512.345      9812.0342      5041.9013      4352.0696     -837.13222      402.41783      910.03513      3844.6241     -3901.8816     -369.27949      77887.609      42.706055      42.706055      42.706055      0.88863291    -190.13472     -481.89423     -316.42507    
      8500   8500           597.92154     -740.90706      20602.752      21448.054      11440.523      10007.531      4959.563       4617.8344     -827.74994      405.66013      915.26192      3828.5657     -3891.604      -367.66424      78229.791      42.768504      42.768504      42.768504      0.88474597    -1264.815      -1150.2003      192.2941     
      9000   9000           600.68586     -806.73702      20657.466      21586.113      11493.415      10092.698      5096.5051      4547.9572     -799.92769      378.34233      919.43347      3839.5779     -3889.1906     -364.40227      78930.071      42.89574       42.89574       42.89574       0.87689638    -320.04986     -297.68992     -1802.4713    
      9500   9500           603.34638      2040.7461      23917.504      21572.369      11544.321      10028.048      5134.1042      4562.3782     -948.86929      393.06718      941.44935      3838.0438     -3892.1252     -365.02323      78795.797      42.871402      42.871402      42.871402      0.87839067     2219.9318      2232.9207      1669.3858    
     10000   10000          601.46603     -486.80854      20770.355      21335.788      11508.343      9827.4456      5259.9194      4370.8226     -1022.2804      373.94701      909.33214      3827.6469     -3891.942      -361.14081      79642.886      43.024483      43.024483      43.024483      0.86904803     674.89289     -1008.5677     -1126.7508    
     10500   10500          594.13188      510.84116      21826.117      21234.406      11368.012      9866.394       4962.9         4527.2164     -935.65447      391.19625      989.53929      3826.6746     -3895.4781     -362.13965      79423.218      42.984891      42.984891      42.984891      0.87145163     1275.9617      499.4477      -242.88587    
     11000   11000          590.05738     -720.99814      20602.185      21421.58       11290.052      10131.529      5130.5714      4606.3865     -848.00637      406.88989      895.8746       3838.923      -3899.1105     -369.09667      77926.188      42.713105      42.713105      42.713105      0.88819298    -517.12165     -1358.1914     -287.6814     
     11500   11500          605.55789     -647.48149      20792.598      21527.734      11586.636      9941.0987      5019.5328      4513.7791     -834.14944      389.51195      906.70148      3845.9983     -3900.2756     -369.45303      77851.024      42.699368      42.699368      42.699368      0.88905052    -252.18696     -1883.993       193.73553    
     12000   12000          600.749       -1769.2577      19424.882      21459.997      11494.623      9965.3744      5054.2483      4511.988      -899.75109      379.61243      969.66966      3841.3137     -3891.7066     -364.6713       78871.84       42.885189      42.885189      42.885189      0.87754379    -121.89103      4.3450196     -5190.227     
     12500   12500          605.60048     -30.060122      21710.353      21745.226      11587.45       10157.776      5184.9953      4501.9461     -831.55472      399.69753      961.55819      3835.941      -3894.8077     -361.57422      79547.42       43.007286      43.007286      43.007286      0.87009099    -684.06612     -67.143324      661.02908    
     13000   13000          598.22417      859.61859      22677.082      21675.869      11446.313      10229.556      5166.1899      4489.5256     -854.60847      407.18506      1065.5088      3845.3225     -3889.5679     -360.14632      79862.808      43.064049      43.064049      43.064049      0.86665488     1457.7844      275.45176      845.61966    
     13500   13500          589.33179      1832.2446      23199.29       21068.118      11276.168      9791.9493      5008.4735      4368.2105     -926.73877      397.68617      1003.198       3831.9255     -3890.8056     -360.63203      79755.246      43.044707      43.044707      43.044707      0.8678237      2046.0793      2035.1545      1415.5       
     14000   14000          611.64558     -1178.5045      20354.689      21721.994      11703.116      10018.877      5018.7939      4555.0942     -860.73517      393.30653      975.48109      3831.558      -3894.6212     -361.54743      79553.315      43.008348      43.008348      43.008348      0.87002651    -1648.3012      610.2004      -2497.4126    
     14500   14500          607.69851     -604.28708      21126.08       21817.363      11627.594      10189.769      5252.7416      4563.6725     -922.98844      404.54424      957.6668       3833.4528     -3899.3207     -366.67986      78439.804      42.806741      42.806741      42.806741      0.88237718    -200.25185     -149.22171     -1463.3877    
     15000   15000          593.01919      1175.0857      22695.035      21363.024      11346.722      10016.302      5172.1422      4458.8581     -854.26044      393.57902      917.71087      3830.6169     -3902.3451     -370.05057      77725.313      42.676372      42.676372      42.676372      0.89048844     1533.7453      830.78494      1160.7269    
     15500   15500          595.84037     -232.3759       21206.661      21471.361      11400.702      10070.659      5167.1002      4489.444      -804.14725      403.14203      881.49957      3832.8133     -3899.1927     -368.2438       78106.668      42.746055      42.746055      42.746055      0.88614064    -1159.5991      1285.8429     -823.37143    
     16000   16000          597.389       -2869.0825      18606.393      21911.5        11430.334      10481.166      5266.9889      4696.3251     -715.19903      414.14337      870.12234      3840.6859     -3891.9002     -364.13038      78989.004      42.906413      42.906413      42.906413      0.87624212    -3232.2207     -3423.0884     -1951.9383    
     16500   16500          605.54062     -916.88972      20417.972      21490.03       11586.305      9903.725       4924.2084      4567.159      -850.04406      392.01464      908.67478      3847.9574     -3886.245      -358.75533      80172.458      43.119634      43.119634      43.119634      0.86330761    -1567.8978     -1166.3918     -16.37958     
     17000   17000          597.28979     -912.82021      20329.429      21401.652      11428.435      9973.2172      5073.9699      4461.7347     -886.94295      386.39609      979.73177      3842.8104     -3884.4828     -357.10798      80542.296      43.185836      43.185836      43.185836      0.85934343    -952.89513     -59.558419     -1726.0071    
     17500   17500          596.99106      301.21587      21655.628      21304.686      11422.719      9881.9666      5083.1074      4387.5134     -925.9752       406.90833      972.83131      3843.1818     -3885.6005     -360.03272      79888.007      43.068578      43.068578      43.068578      0.86638152     210.13851     -516.01718      1209.5263    
     18000   18000          603.32424      427.08348      22169.956      21677.358      11543.897      10133.461      5105.6794      4529.9802     -872.9026       404.31927      1012.4464      3845.1481     -3891.21       -363.67994      79086.838      42.92412       42.92412       42.92412       0.87515818     321.36728      2127.0293     -1167.1461    
     18500   18500          603.53355     -1987.3065      19263.865      21555.522      11547.902      10007.62       5078.589       4554.6562     -864.53153      389.11723      896.47093      3842.768      -3889.4502     -363.75976      79069.484      42.920981      42.920981      42.920981      0.87535026    -2956.4752     -593.60594     -2411.8384    
     19000   19000          592.37789      1536.2912      23171.931      21397.227      11334.452      10062.776      4971.4874      4600.043      -890.75841      407.49525      1028.4002      3836.3853     -3890.2773     -363.1174       79209.358      42.946275      42.946275      42.946275      0.87380449     2262.192       802.21035      1544.4711    
     19500   19500          589.11944      1269.1749      22797.674      21317.113      11272.105      10045.007      5076.1829      4634.7614     -1004.1962      381.95664      1002.906       3845.0428     -3891.6462     -359.57925      79988.755      43.086675      43.086675      43.086675      0.86529029     1751.1648      373.8321       1682.5279    
     20000   20000          595.79966     -559.01687      20874.702      21527.227      11399.923      10127.303      5158.1369      4589.1527     -897.13275      399.11097      922.44471      3844.0781     -3888.4872     -359.35787      80038.032      43.095521      43.095521      43.095521      0.86475756     217.45505     -871.81068     -1022.695     
     20500   20500          597.85413     -1559.5223      19899.787      21703.769      11439.233      10264.535      5111.828       4634.9654     -817.76038      409.77169      977.30476      3845.6835     -3897.2576     -362.62595      79316.707      42.965667      42.965667      42.965667      0.87262187     647.30354     -720.97252     -4604.898     
     21000   21000          603.59882      705.64975      22405.473      21598.526      11549.151      10049.375      4990.794       4538.7849     -802.27265      393.00006      994.06294      3834.9862     -3899.9801     -366.81239      78411.464      42.801585      42.801585      42.801585      0.88269609     1250.2084      1.2406587      865.50023    
     21500   21500          605.24291      848.35164      22647.386      21668.288      11580.609      10087.679      5091.1626      4463.897      -857.98036      398.2267       1045.4246      3841.8436     -3894.8949     -363.4538       79136.047      42.933021      42.933021      42.933021      0.87461398     944.21274      457.75198      1143.0902    
     22000   22000          598.89768     -1321.5583      19938.969      21471.106      11459.2        10011.906      5133.1633      4448.5755     -843.87094      400.76011      919.47562      3847.4062     -3893.604      -361.8163       79494.198      42.997692      42.997692      42.997692      0.87067352    -2592.7331     -1181.0396     -190.90234    
     22500   22500          596.01554     -174.89964      21239.562      21442.438      11404.054      10038.384      4966.1206      4595.7595     -871.96244      398.39822      1003.0055      3842.645      -3895.5823     -361.62533      79536.177      43.005259      43.005259      43.005259      0.87021398     377.95356      741.86043     -1644.5129    
     23000   23000          598.61966      352.54593      21898.226      21490.328      11453.881      10036.448      5164.7851      4431.8537     -847.80354      404.90991      959.3303       3823.5263     -3900.1543     -362.54645      79334.1        42.968807      42.968807      42.968807      0.87243055    -772.76848      1051.8821      778.5242     
     23500   23500          607.87612     -200.62272      21451.349      21684.823      11630.992      10053.831      5210.2106      4467.7251     -909.49954      394.33358      946.15409      3841.3735     -3896.4667     -360.4471       79796.167      43.052067      43.052067      43.052067      0.86737867     401.67426      565.0132      -1568.5556    
     24000   24000          595.76006     -211.51776      21526.412      21773.509      11399.166      10374.343      5188.3908      4630.4518     -787.35679      414.05109      975.04388      3839.6674     -3885.9052     -359.07035      80102.12       43.10702       43.10702       43.10702       0.86406569    -1296.9042      1043.3077     -380.95674    
     24500   24500          600.04973      104.90887      21668.363      21545.927      11481.243      10064.684      5070.1217      4532.1679     -838.27012      393.80403      952.2156       3841.5734     -3886.9286     -359.42128      80023.91       43.092986      43.092986      43.092986      0.86491016     1477.9204     -140.12154     -1023.0723    
     25000   25000          600.37683      1.6262418      21529.825      21527.923      11487.502      10040.421      5162.7613      4380.2893     -857.27108      415.27401      982.75047      3848.8716     -3892.2545     -358.77104      80168.948      43.119005      43.119005      43.119005      0.86334541     569.8092      -342.82424     -222.10624    
     25500   25500          595.93942     -776.95896      20597.884      21500.841      11402.597      10098.243      5132.9953      4541.2903     -853.25349      393.7309       952.14011      3827.4835     -3896.1431     -360.93624      79688.027      43.03261       43.03261       43.03261       0.86855573    -504.36322     -77.859802     -1748.6539    
     26000   26000          614.01473      883.47486      22797.884      21786.646      11748.447      10038.199      5116.5208      4577.5747     -951.67544      384.68355      960.56044      3846.4213     -3895.8864     -366.47163      78484.374      42.814847      42.814847      42.814847      0.88187609     71.653052      2254.0571      324.71441    
     26500   26500          612.37441      1801.0069      23816.608      21751.47       11717.062      10034.408      5034.2809      4457.7762     -881.10285      395.74321      1072.1507      3848.3853     -3892.8254     -365.81846      78624.508      42.840314      42.840314      42.840314      0.88030431     1413.9501      1430.2726      2558.7979    
     27000   27000          602.70655      1091.3046      22909.018      21654.282      11532.078      10122.204      5184.7169      4512.1601     -888.20196      386.60325      949.66253      3866.5183     -3889.2552     -364.83211      78837.076      42.878887      42.878887      42.878887      0.87793075     1881.2579      1826.0611     -433.40539    
     27500   27500          603.80142      1442.544       23261.726      21594.613      11553.028      10041.586      5140.5954      4534.1073     -930.13621      401.24088      932.07418      3854.8408     -3891.1368     -362.96398      79242.839      42.952325      42.952325      42.952325      0.8734353      179.38953      833.47561      3314.7668    
     28000   28000          590.45046      2107.0206      23681.278      21275.252      11297.573      9977.6792      4900.9155      4595.9502     -856.02362      394.68016      980.43937      3859.5686     -3897.8511     -367.33974      78298.897      42.781094      42.781094      42.781094      0.8839651      2377.0079      562.37125      3381.6826    
     28500   28500          612.9432       1492.6776      23600.199      21896.119      11727.945      10168.175      5185.8514      4505.9723     -843.85389      412.494        962.7774       3840.2993     -3895.3658     -367.43075      78279.503      42.777561      42.777561      42.777561      0.88418411     1060.0634      1155.0547      2262.9147    
     29000   29000          601.93873      736.91539      22336.742      21490.936      11517.387      9973.5484      5107.7202      4520.9942     -947.9776       392.54661      953.08755      3846.2809     -3899.1035     -365.46506      78700.538      42.854119      42.854119      42.854119      0.87945387     1616.0519      946.08337     -351.38911    
     29500   29500          594.24767      607.58327      22233.144      21529.427      11370.228      10159.199      5207.6501      4513.0902     -868.907        402.38078      960.96164      3838.9907     -3894.9677     -362.16525      79417.604      42.983878      42.983878      42.983878      0.87151324     1127.1594      214.69749      480.89295    
     30000   30000          598.19232      585.4666       22500.477      21813.296      11445.704      10367.592      5203.6525      4570.2078     -875.63002      414.36366      1103.0968      3840.7303     -3888.8289     -357.38005      80480.98       43.174875      43.174875      43.174875      0.85999814     406.23958      1643.432      -293.27178    
     30500   30500          602.77718     -1049.3834      20515.959      21737.805      11533.43       10204.375      5131.0896      4547.9429     -791.58062      411.62777      949.92251      3846.2725     -3890.8996     -360.26084      79837.421      43.059485      43.059485      43.059485      0.86693047    -2668.7525     -183.32456     -296.07318    
     31000   31000          603.7315      -192.00906      21302.097      21521.996      11551.69       9970.3062      5023.6572      4579.1743     -879.80936      397.82076      910.88197      3835.3469     -3896.7655     -366.26769      78528.075      42.822792      42.822792      42.822792      0.88138533     1500.2864     -1352.0468     -724.2668     
     31500   31500          595.66433     -704.90834      20642.922      21448.398      11397.334      10051.064      4910.577       4666.611      -795.00018      400.20016      909.07197      3851.4674     -3891.8629     -367.09563      78350.965      42.790574      42.790574      42.790574      0.88337767    -242.18189     -1569.683      -302.86008    
     32000   32000          595.54225      871.11103      22596.091      21594.449      11394.998      10199.451      5183.2239      4557.3582     -841.19792      411.35438      928.59422      3851.5281     -3891.41       -364.80487      78842.962      42.879954      42.879954      42.879954      0.87786521     66.576508      2495.3653      51.39132     
     32500   32500          606.45377     -2317.8539      19135.498      21806.764      11603.777      10202.987      5079.2501      4510.0767     -687.7051       402.35106      963.81846      3833.8693     -3898.6735     -363.97233      79023.306      42.912623      42.912623      42.912623      0.87586178    -2450.0238     -1823.9679     -2679.5698    
     33000   33000          612.39805      824.49062      22602.456      21662.374      11717.514      9944.8602      5085.2463      4472.9432     -858.19218      401.1778       890.13947      3850.5142     -3896.9687     -367.89142      78181.481      42.759698      42.759698      42.759698      0.88529268     2492.3733      396.83776     -415.73924    
     33500   33500          604.68282      404.06674      21985.95       21526.206      11569.892      9956.3142      4988.1923      4613.6649     -926.21156      399.17358      954.01367      3833.0447     -3905.5634     -368.66908      78016.568      42.729612      42.729612      42.729612      0.88716403     784.79817      1546.8302     -1119.4281    
     34000   34000          604.43454      630.90163      22359.545      21637.987      11565.142      10072.845      5063.0678      4586.4387     -880.44238      399.22655      945.2405       3855.2457     -3895.9319     -366.76643      78421.289      42.803373      42.803373      42.803373      0.8825855      1775.1918     -572.17862      689.69167    
     34500   34500          602.21681      680.79151      22541.862      21761.913      11522.708      10239.205      5158.9075      4662.8862     -880.48782      401.57674      956.11534      3838.3272     -3898.1196     -366.14012      78555.435      42.827765      42.827765      42.827765      0.88107834     429.20497      1176.4312      436.73837    
     35000   35000          601.70326      934.45931      22629.409      21547.941      11512.882      10035.059      5048.7517      4509.1656     -863.20756      409.82822      986.84219      3840.6026     -3896.9235     -362.44829      79355.587      42.972686      42.972686      42.972686      0.87219433     307.89093      1672.3654      823.12163    
     35500   35500          596.96275      799.49557      22535.483      21608.44       11422.178      10186.262      5030.7381      4583.5097     -764.73723      422.14985      984.85674      3829.1361     -3899.391      -361.75583      79507.486      43.000088      43.000088      43.000088      0.870528       651.91614      1878.0157     -131.44513    
     36000   36000          592.53744     -114.14558      21240.238      21372.983      11337.505      10035.478      4904.034       4675.2704     -814.62872      401.71246      931.46357      3830.3354     -3892.7089     -360.69579      79741.149      43.04217       43.04217       43.04217       0.86797713     511.75744     -1241.0675      386.87331    
     36500   36500          595.40025     -359.23128      20740.678      21154.201      11392.281      9761.9199      4863.7301      4535.2032     -922.07909      409.40667      926.07623      3842.0803     -3892.4974     -364.39605      78931.416      42.895984      42.895984      42.895984      0.87688143    -1306.9216      665.97148     -436.74376    
     37000   37000          599.24026      1478.7823      23414.012      21704.888      11465.755      10239.132      5241.483       4658.8579     -990.6446       402.13683      982.09776      3840.83       -3895.6286     -362.93592      79248.967      42.953432      42.953432      42.953432      0.87336776     2672.1671      682.96148      1081.2184    
     37500   37500          601.37973     -372.96677      21103.347      21537.697      11506.691      10031.006      5031.9484      4441.3303     -771.48672      402.17423      982.3114       3838.5982     -3893.8699     -360.18833      79853.494      43.062375      43.062375      43.062375      0.86675598     1260.9448     -1097.1119     -1282.7333    
     38000   38000          603.20112      73.378663      21573.14       21488.169      11541.541      9946.628       4917.89        4570.2469     -808.34368      393.50083      930.89252      3840.829      -3898.3876     -362.24218      79400.738      42.980835      42.980835      42.980835      0.87169836     552.59598     -201.33342     -131.12656    
     38500   38500          598.40082      946.29532      22614.824      21527.868      11449.693      10078.175      4994.7585      4637.8436     -838.19752      398.971        944.08146      3836.9209     -3896.2029     -365.18613      78760.648      42.865026      42.865026      42.865026      0.87878268     319.28701      1758.2295      761.36946    
     39000   39000          608.0598      -1419.1236      20031.083      21677.158      11634.507      10042.652      5052.7074      4524.7825     -803.11875      408.0436       922.81297      3833.5849     -3896.1607     -361.63445      79534.171      43.004898      43.004898      43.004898      0.87023592    -2293.8463     -950.18438     -1013.3401    
     39500   39500          610.05819      632.82744      22476.906      21737.982      11672.743      10065.239      5155.0499      4404.1532     -864.11044      393.83204      1027.6367      3845.8057     -3897.1284     -359.24013      80064.263      43.100228      43.100228      43.100228      0.86447424     1205.5707      561.397        131.51461    
     40000   40000          600.13048      115.93565      21810.467      21676.776      11482.788      10193.988      5026.2836      4649.4421     -801.77125      391.61104      989.19717      3839.1266     -3899.9018     -363.76019      79069.39       42.920964      42.920964      42.920964      0.8753513      74.194927      420.62302     -147.01099    
     40500   40500          600.38321      165.64412      21762.211      21572.631      11487.624      10085.006      5073.8376      4594.1714     -856.98561      398.85889      935.82483      3843.181      -3903.8817     -366.50658      78476.891      42.813486      42.813486      42.813486      0.88196019    -1090.1262      1745.427      -158.36837    
     41000   41000          599.11285      1479.2693      23000.349      21276.855      11463.317      9813.5378      4998.2786      4406.6137     -986.06318      396.63845      1063.1107      3834.9282     -3899.9687     -360.02848      79888.947      43.068747      43.068747      43.068747      0.86637133     3081.5181      938.95553      417.33415    
     41500   41500          591.57746     -286.7909       21046.423      21381.589      11319.137      10062.453      5091.1814      4489.4901     -825.33536      393.76056      971.80237      3834.8475     -3893.2937     -358.92548      80134.451      43.112819      43.112819      43.112819      0.86371706    -388.40124     -1334.4716      862.5001     
     42000   42000          607.61313     -210.26221      21381.358      21624.858      11625.96       9998.8976      5081.8104      4511.0807     -885.44742      386.83957      959.01947      3842.8711     -3897.2762     -362.21125      79407.517      42.982058      42.982058      42.982058      0.87162394    -1335.5946      1318.2369     -613.4289     
     42500   42500          599.20233     -1875.1583      19509.525      21665.312      11465.029      10200.283      5058.4431      4601.4051     -764.09688      400.29174      953.31472      3845.2641     -3894.3392     -364.86447      78830.083      42.877619      42.877619      42.877619      0.87800863    -1059.237      -3633.9176     -932.32036    
     43000   43000          599.25082      1097.9751      22858.531      21594.02       11465.957      10128.063      5148.4706      4580.911      -935.14748      404.78681      995.78942      3832.7547     -3899.5018     -364.22465      78968.56       42.902711      42.902711      42.902711      0.87646897     175.71282      2314.1289      804.08352    
     43500   43500          597.73753      189.34591      21702.782      21484.259      11437.002      10047.257      5136.0302      4501.3075     -885.4486       401.58596      948.95039      3839.6546     -3894.8229     -363.46123      79134.429      42.932729      42.932729      42.932729      0.87463186     1703.4333     -1039.1036     -96.291974    
     44000   44000          598.11203      1319.8483      22878.656      21373.05       11444.168      9928.8822      4939.2733      4477.8185     -810.84783      386.84672      1004.6028      3826.6098     -3895.4211     -367.7157       78218.843      42.766509      42.766509      42.766509      0.88486981     92.638855      1005.8184      2861.0876    
     44500   44500          607.48697      2702.1185      24735.689      21633.519      11623.546      10009.973      5000.2665      4523.0116     -929.99756      406.06469      1080.0608      3828.0996     -3897.5327     -365.37446      78720.053      42.85766       42.85766       42.85766       0.87923586     2115.4926      3936.9499      2053.9129    
     45000   45000          604.33886     -336.25283      21141.418      21529.785      11563.311      9966.474       5011.5476      4509.7665     -874.60378      404.31479      971.79212      3841.6063     -3897.9495     -363.18106      79195.474      42.943765      42.943765      42.943765      0.87395768     411.51912     -435.58993     -984.68769    
     45500   45500          597.38043     -1004.5965      20293.372      21458.757      11430.17       10028.588      4978.8973      4425.4004     -727.51555      406.17346      1015.6245      3824.1778     -3894.1699     -361.59421      79543.023      43.006493      43.006493      43.006493      0.87013908    -2277.3702     -53.947286     -682.47195    
     46000   46000          592.4183      -545.26078      20904.659      21536.603      11335.225      10201.378      4947.433       4716.2886     -775.07728      399.64601      975.17899      3832.8658     -3894.9574     -361.93076      79469.058      42.993159      42.993159      42.993159      0.87094895    -1239.8426     -6.2557179     -389.68402    
     46500   46500          594.67445      72.887529      21400.733      21316.764      11378.394      9938.3707      5086.9987      4372.0344     -776.72351      379.32951      967.26703      3808.5747     -3899.11       -364.11418      78992.519      42.90705       42.90705       42.90705       0.87620314     1293.4974      103.78502     -1178.6199    
     47000   47000          601.81457     -460.24273      21010.661      21543.604      11515.012      10028.592      5038.3477      4548.5194     -850.32934      395.99279      968.19489      3825.4173     -3897.5506     -362.24785      79399.496      42.980611      42.980611      42.980611      0.871712      -1433.4745      44.328729      8.4175275    
     47500   47500          600.13087     -1201.3872      20234.741      21642.881      11482.796      10160.086      5084.529       4582.5595     -854.73897      392.76031      1024.6588      3822.0998     -3891.7828     -357.87913      80368.745      43.154795      43.154795      43.154795      0.86119913     189.45059     -2311.9868     -1481.6255    
     48000   48000          605.0136       382.87532      22229.908      21783.439      11576.221      10207.218      5056.7238      4522.6705     -786.86861      423.66621      1045.0283      3842.615      -3896.6175     -359.72065      79957.313      43.081029      43.081029      43.081029      0.86563056     32.559226      1670.7278     -554.6611     
     48500   48500          614.33169     -998.43951      20761.673      21902.86       11754.512      10148.348      5103.7646      4626.0049     -805.17382      388.65732      905.14412      3833.8791     -3903.9278     -366.99838      78371.725      42.794353      42.794353      42.794353      0.88314367    -302.9108      -1476.2203     -1216.1875    
     49000   49000          603.05444     -1182.7487      20363.289      21729.979      11538.735      10191.244      5092.7973      4525.4809     -744.53988      408.72695      976.4301       3828.6179     -3896.2694     -363.01289      79232.164      42.950396      42.950396      42.950396      0.87355298    -585.24636     -304.96655     -2658.0331    
     49500   49500          597.40658     -3156.5667      17893.029      21601.97       11430.67       10171.3        5039.7078      4376.2332     -618.39121      418.58488      1028.9352      3815.1681     -3888.938      -356.997        80567.333      43.190311      43.190311      43.190311      0.85907638    -4525.7224     -2466.6104     -2477.3673    
     50000   50000          594.26219     -1174.6505      19946.443      21319.667      11370.506      9949.1609      4996.8342      4432.8717     -799.29304      403.04782      986.24604      3823.5396     -3894.0853     -358.81182      80159.836      43.117371      43.117371      43.117371      0.86344354     800.58457     -2249.1633     -2075.3728    
Loop time of 110.872 on 1 procs for 50000 steps with 6420 atoms

Performance: 38.964 ns/day, 0.616 hours/ns, 450.971 timesteps/s, 2.895 Matom-step/s
100.0% CPU use with 1 MPI tasks x 1 OpenMP threads

MPI task timing breakdown:
Section |  min time  |  avg time  |  max time  |%varavg| %total
---------------------------------------------------------------
Pair    | 10.187     | 10.187     | 10.187     |   0.0 |  9.19
Bond    | 14.203     | 14.203     | 14.203     |   0.0 | 12.81
Kspace  | 48.526     | 48.526     | 48.526     |   0.0 | 43.77
Neigh   | 16.959     | 16.959     | 16.959     |   0.0 | 15.30
Comm    | 2.8382     | 2.8382     | 2.8382     |   0.0 |  2.56
Output  | 0.012704   | 0.012704   | 0.012704   |   0.0 |  0.01
Modify  | 15.852     | 15.852     | 15.852     |   0.0 | 14.30
Other   |            | 2.294      |            |       |  2.07

Nlocal:           6420 ave        6420 max        6420 min
Histogram: 1 0 0 0 0 0 0 0 0 0
Nghost:          16664 ave       16664 max       16664 min
Histogram: 1 0 0 0 0 0 0 0 0 0
Neighs:              0 ave           0 max           0 min
Histogram: 1 0 0 0 0 0 0 0 0 0
FullNghs:  3.26894e+06 ave 3.26894e+06 max 3.26894e+06 min
Histogram: 1 0 0 0 0 0 0 0 0 0

Total # of neighbors = 3268938
Ave neighs/atom = 509.18037
Ave special neighs/atom = 5.8598131
Neighbor list builds = 3264
Dangerous builds = 0
  unfix npt_tg
  shell echo '{"stage":"T${temps}","status":"done"}' >> tg_progress.jsonl
  dump per_t_snap all atom 1 per_t_structs.dump
  dump_modify per_t_snap append yes
  run 0
WARNING: No fixes with time integration, atoms won't move
For more information see https://docs.lammps.org/err0028 (src/verlet.cpp:60)
PPPM Kokkos initialization ...
  using 12-bit tables for long-range coulomb
  G vector (1/distance) = 0.29896057
  grid = 30 30 30
  stencil order = 5
  estimated absolute RMS force accuracy = 0.0003101471
  estimated relative force accuracy = 9.3399878e-07
  using double precision cuFFT
  3d grid and FFT values/proc = 50653 27000
Generated 6 of 6 mixed pair_coeff terms from sixthpower/sixthpower mixing rule
Per MPI rank memory allocation (min/avg/max) = 41.46 | 41.46 | 41.46 Mbytes
   Step          Time           Temp          Press         Enthalpy        TotEng         KinEng         PotEng         E_bond        E_angle        E_dihed        E_impro         E_vdwl         E_coul         E_long         E_tail         Volume           Lx             Ly             Lz          Density          Pxx            Pyy            Pzz      
     50000   50000          594.26219     -1174.6509      19946.442      21319.666      11370.506      9949.1608      4996.8342      4432.8717     -799.29304      403.04782      986.24604      3810.9504     -3881.4962     -358.81182      80159.836      43.117371      43.117371      43.117371      0.86344354     800.58447     -2249.1641     -2075.373     
Loop time of 6.5012e-05 on 1 procs for 0 steps with 6420 atoms

103.1% CPU use with 1 MPI tasks x 1 OpenMP threads

MPI task timing breakdown:
Section |  min time  |  avg time  |  max time  |%varavg| %total
---------------------------------------------------------------
Pair    | 0          | 0          | 0          |   0.0 |  0.00
Bond    | 0          | 0          | 0          |   0.0 |  0.00
Kspace  | 0          | 0          | 0          |   0.0 |  0.00
Neigh   | 0          | 0          | 0          |   0.0 |  0.00
Comm    | 0          | 0          | 0          |   0.0 |  0.00
Output  | 0          | 0          | 0          |   0.0 |  0.00
Modify  | 0          | 0          | 0          |   0.0 |  0.00
Other   |            | 6.501e-05  |            |       |100.00

Nlocal:           6420 ave        6420 max        6420 min
Histogram: 1 0 0 0 0 0 0 0 0 0
Nghost:          16672 ave       16672 max       16672 min
Histogram: 1 0 0 0 0 0 0 0 0 0
Neighs:              0 ave           0 max           0 min
Histogram: 1 0 0 0 0 0 0 0 0 0
FullNghs:  3.26855e+06 ave 3.26855e+06 max 3.26855e+06 min
Histogram: 1 0 0 0 0 0 0 0 0 0

Total # of neighbors = 3268552
Ave neighs/atom = 509.12025
Ave special neighs/atom = 5.8598131
Neighbor list builds = 0
Dangerous builds = 0
  undump per_t_snap
  print "STAGE COMPLETE: Tg step T=${temps}K P=1.0atm steps=50000"
STAGE COMPLETE: Tg step T=600K P=1.0atm steps=50000
  next temps
  jump SELF TEMP_LOOP
  timestep 1
  fix npt_tg all npt temp ${temps} ${temps} 100 iso 1.0 1.0 1000
  fix npt_tg all npt temp 580 ${temps} 100 iso 1.0 1.0 1000
  fix npt_tg all npt temp 580 580 100 iso 1.0 1.0 1000
  run 50000
PPPM Kokkos initialization ...
  using 12-bit tables for long-range coulomb
  G vector (1/distance) = 0.29896057
  grid = 30 30 30
  stencil order = 5
  estimated absolute RMS force accuracy = 0.0003101471
  estimated relative force accuracy = 9.3399878e-07
  using double precision cuFFT
  3d grid and FFT values/proc = 50653 27000
Generated 6 of 6 mixed pair_coeff terms from sixthpower/sixthpower mixing rule
Per MPI rank memory allocation (min/avg/max) = 41.46 | 41.46 | 41.46 Mbytes
   Step          Time           Temp          Press         Enthalpy        TotEng         KinEng         PotEng         E_bond        E_angle        E_dihed        E_impro         E_vdwl         E_coul         E_long         E_tail         Volume           Lx             Ly             Lz          Density          Pxx            Pyy            Pzz      
     50000   50000          594.26219     -1174.6509      19946.442      21319.666      11370.506      9949.1608      4996.8342      4432.8717     -799.29304      403.04782      986.24604      3810.9504     -3881.4962     -358.81182      80159.836      43.117371      43.117371      43.117371      0.86344354     800.58447     -2249.1641     -2075.373     
     50500   50500          581.26105     -1457.1192      19033.905      20732.106      11121.744      9610.3619      4918.425       4337.1264     -889.81883      390.38185      912.69346      3818.8733     -3877.3194     -359.91962      79913.11       43.073088      43.073088      43.073088      0.86610937    -1766.4884     -128.67794     -2476.1913    
     51000   51000          584.53505      1.2811496      20989.086      20987.59       11184.388      9803.2021      4969.0113      4412.1019     -905.62004      384.50003      1016.8149      3805.6939     -3879.2999     -359.32524      80045.299      43.096825      43.096825      43.096825      0.86467905    -87.019004      1793.0939     -1702.2314    
     51500   51500          583.42389     -264.84432      20641.125      20950.274      11163.127      9787.147       5033.257       4393.3251     -959.71497      379.42897      1004.6266      3815.6317     -3879.4073     -359.35279      80039.163      43.095724      43.095724      43.095724      0.86474533     569.04279      589.97852     -1953.5543    
     52000   52000          581.13245      17.370123      20756.233      20736.054      11119.284      9616.7702      4832.4209      4381.7063     -895.09892      402.71159      948.16597      3826.5234     -3879.659      -361.07034      79658.43       43.027282      43.027282      43.027282      0.86887845    -1083.5213      133.6243       1002.0074    
     52500   52500          575.26122      693.96292      21381.179      20582.189      11006.944      9575.2445      4824.9441      4340.0523     -893.03273      393.12448      963.29313      3829.7214     -3882.8581     -364.32956      78945.822      42.898593      42.898593      42.898593      0.87672141     1327.5127      1678.2691     -923.89298    
     53000   53000          587.43505     -1050.9986      19641.07       20848.962      11239.876      9609.0855      4840.1906      4368.4163     -873.19016      398.33134      937.84385      3819.9618     -3882.4682     -364.98358      78804.357      42.872954      42.872954      42.872954      0.87829526    -342.51286     -2296.5186     -513.96437    
     53500   53500          584.90161      1202.2998      22334.211      20938.219      11191.402      9746.8171      5015.8734      4422.7068     -1020.9995      365.71634      1019.2038      3826.9852     -3882.6689     -361.26773      79614.907      43.019444      43.019444      43.019444      0.86935343    -283.56928      2851.0918      1039.3768    
     54000   54000          593.34126     -509.05269      20820.673      21416.325      11352.885      10063.44       5059.2542      4485.8555     -870.0139       411.49578      1016.8412      3831.8737     -3871.8664     -358.48363      80233.221      43.130525      43.130525      43.130525      0.8626538     -1079.0568     -319.50096     -128.60028    
     54500   54500          575.47327     -285.49615      20400.789      20734.711      11011.002      9723.7097      4909.2495      4432.1019     -962.65909      385.10253      1021.6932      3822.0064     -3883.7846     -358.63593      80199.149      43.124419      43.124419      43.124419      0.8630203      1149.0846     -921.17488     -1084.3981    
     55000   55000          575.56988      1012.6079      21830.271      20659.862      11012.85       9647.012       4926.4679      4411.7983     -985.08612      380.92994      991.13233      3805.3421     -3883.5724     -362.91345      79253.872      42.954318      42.954318      42.954318      0.87331371     892.53614      2331.6011     -186.31347    
     55500   55500          579.49122      917.4674       21649.131      20590.714      11087.88       9502.8335      4887.2922      4363.5793     -1026.3176      384.68152      967.9288       3809.1472     -3883.478      -363.60781      79102.527      42.926959      42.926959      42.926959      0.8749846      1285.2428      1153.4123      313.74715    
     56000   56000          582.13189      732.22678      21763.842      20909.002      11138.407      9770.5956      4991.0397      4393.1115     -938.13008      374.91016      1000.1093      3828.3704     -3878.8153     -359.30277      80050.305      43.097723      43.097723      43.097723      0.86462498     1866.584      -561.0572       891.15356    
     56500   56500          585.94935      256.24316      21148.945      20847.172      11211.449      9635.7223      4924.1859      4342.0329     -1011.1107      370.35745      1077.516       3811.9713     -3879.2306     -356.18094      80751.925      43.223271      43.223271      43.223271      0.8571126      623.97768      716.21651     -571.46471    
     57000   57000          568.37039     -766.90124      19765.578      20667.223      10875.097      9792.1265      4982.4477      4473.0686     -902.1687       388.07244      911.90823      3818.2284     -3879.4302     -356.78241      80615.793      43.198968      43.198968      43.198968      0.85855998     532.47834     -3454.9487      621.76663    
     57500   57500          570.30839      1367.3646      22176.363      20603.597      10912.178      9691.419       4958.6684      4373.4946     -910.35183      385.32041      951.44679      3818.3314     -3885.4909     -364.6864       78868.574      42.884597      42.884597      42.884597      0.87758013     799.53488      862.05217      2440.5067    
     58000   58000          575.08318     -1216.2767      19243.338      20636.965      11003.538      9633.4274      4811.4222      4448.5409     -823.18195      387.37771      879.68369      3819.6558     -3890.071      -366.08767      78566.69       42.82981       42.82981       42.82981       0.88095213     642.88708     -1321.3894     -2970.3279    
     58500   58500          581.01759      292.54929      21182.262      20848.129      11117.086      9731.0431      4956.1651      4329.9717     -860.98813      407.83803      969.40729      3817.9983     -3889.3492     -367.26438      78314.963      42.784019      42.784019      42.784019      0.88378377     1308.8646      1088.1456     -1519.3623    
     59000   59000          581.77814      457.56671      21403.881      20884.193      11131.638      9752.5546      5118.3597      4405.9927     -983.16693      371.34186      913.19034      3814.9176     -3888.0807     -369.32697      77877.596      42.704225      42.704225      42.704225      0.88874717     288.9309       1084.9912     -1.2219177    
     59500   59500          586.398       -100.42823      20906.327      21021.715      11220.034      9801.6813      4961.333       4479.1        -835.62885      385.8963       883.28929      3814.2605     -3886.569      -365.08744      78781.938      42.868888      42.868888      42.868888      0.87854519     539.98388     -1363.7872      522.51867    
     60000   60000          580.23423      525.84279      21391.529      20785.949      11102.097      9683.8514      4844.6442      4402.7678     -865.48534      388.19735      1006.1803      3804.3125     -3896.7653     -364.23657      78965.977      42.902244      42.902244      42.902244      0.87649765     932.46987      10.840278      634.21821    
     60500   60500          579.81932     -16.851066      20788.831      20808.216      11094.158      9714.0573      4900.9353      4472.9073     -911.92079      379.27184      949.11835      3810.6883     -3886.943      -364.64843      78876.786      42.886085      42.886085      42.886085      0.87748876     1154.9198     -1599.7271      394.25417    
     61000   61000          589.70251     -160.30551      20812.962      20996.457      11283.262      9713.1955      4879.6149      4440.8071     -846.16469      408.99435      899.42189      3818.1922     -3887.6702     -366.4569       78487.529      42.815421      42.815421      42.815421      0.88184064     201.49972      1094.3919     -1776.8082    
     61500   61500          587.12125     -549.92883      20174.745      20794.459      11233.872      9560.5867      4902.2786      4451.6482     -979.47766      382.49988      871.76906      3825.3711     -3893.5025     -372.23265      77269.677      42.592817      42.592817      42.592817      0.89573939    -387.43609     -716.23168     -546.11873    
     62000   62000          585.70643      1532.5038      22358.548      20626.264      11206.801      9419.4629      4853.7012      4365.2099     -1038.8022      375.97948      930.33165      3827.6525     -3894.6096     -371.09241      77507.1        42.636397      42.636397      42.636397      0.89299552     2448.1366     -524.55609      2673.9309    
     62500   62500          574.14059      1237.4579      22013.586      20594.05       10985.503      9608.5476      4945.0038      4438.7326     -1027.2981      404.74732      923.70817      3820.6425     -3896.9887     -365.66512      78657.48       42.846302      42.846302      42.846302      0.8799353      2429.8688      369.97392      912.53097    
     63000   63000          578.24963     -591.88129      19877.769      20557.007      11064.124      9492.883       4971.0723      4269.7956     -973.04351      383.59665      907.75915      3818.9668     -3885.264      -365.52082      78688.53       42.851939      42.851939      42.851939      0.87958808    -392.86301      464.34493     -1847.1258    
     63500   63500          580.36575     -1354.1509      19267.326      20828.148      11104.614      9723.5344      4875.8375      4430.8236     -810.25006      401.02054      904.25941      3812.7251     -3890.8817     -363.92595      79033.377      42.914446      42.914446      42.914446      0.87575017    -1964.7436     -2098.3255      0.61639095   
     64000   64000          579.61739      741.01625      21736.513      20877.533      11090.295      9787.2381      5008.0338      4446.7432     -983.86877      391.42717      996.39972      3817.0019     -3888.4988     -361.86301      79483.936      42.995842      42.995842      42.995842      0.87078593    -68.676944      3042.4236     -750.69787    
     64500   64500          581.95231     -2247.0765      18246.605      20820.726      11134.971      9685.7553      4893.9414      4428.5435     -855.3285       387.51371      895.65842      3821.3032     -3885.8764     -366.17473      78548.011      42.826416      42.826416      42.826416      0.88116163    -5499.5351     -1645.2207      403.52628    
     65000   65000          585.81504      953.90744      21820.892      20741.435      11208.879      9532.5561      4866.1713      4403.3912     -978.77444      380.02925      941.97794      3812.3349     -3892.5741     -370.68104      77593.114      42.652163      42.652163      42.652163      0.89200561     196.0496       1433.1475      1232.5252    
     65500   65500          576.76207      1212.8182      21860.933      20458.295      11035.661      9422.6334      4891.3913      4354.1978     -1063.4648      380.76059      939.62024      3807.5646     -3887.4363     -362.70158      79300.17       42.962681      42.962681      42.962681      0.87280384     1183.0572      2199.8308      255.56652    
     66000   66000          582.73899      399.67237      21294.826      20824.342      11150.023      9674.3191      4868.7368      4400.3994     -899.8129       387.81262      984.72624      3814.721      -3882.2641     -356.33518      80716.97       43.217033      43.217033      43.217033      0.85748378     719.39317     -1352.1125      1831.7364    
     66500   66500          581.93283     -854.80022      19935.866      20934.134      11134.598      9799.5362      4888.0921      4410.3253     -858.34032      397.56101      1028.2816      3813.7295     -3880.1129     -359.18386      80076.807      43.102479      43.102479      43.102479      0.86433883    -106.34005     -1240.2701     -1217.7905    
     67000   67000          565.08967      528.55907      21103.745      20488.484      10812.324      9676.1603      4889.4898      4388.033      -921.89214      393.21902      1002.3428      3811.5313     -3886.5634     -360.35761      79815.983      43.055631      43.055631      43.055631      0.86716333     1272.8771      529.17483     -216.3747     
[...]
   1029500   1029500        202.01227      340.54237      5961.498       5618.3284      3865.2663      1753.062       2163.3113      2005.6183     -2353.7531      141.28221     -73.926266      3846.9454     -3976.4158     -416.25717      69097.419      41.034953      41.034953      41.034953      1.0016799     -490.39466      1215.3229      296.69886    
   1030000   1030000        204.0988       870.97848      6537.7079      5668.825       3905.1896      1763.6355      2178.0839      2059.982      -2408.7558      139.52218     -91.255392      3863.9746     -3977.916      -420.48028      68403.438      40.897112      40.897112      40.897112      1.0118423      1699.3097      885.99425      27.631465    
   1030500   1030500        200.52146     -1446.8615      4108.4901      5565.1978      3836.7414      1728.4564      2207.1099      1982.8979     -2396.6461      137.03357     -83.94859       3857.5891     -3975.5794     -416.6333       69035.041      41.022601      41.022601      41.022601      1.002585      -2991.4785     -1211.751      -137.35488    
   1031000   1031000        197.90336      792.08982      6348.6074      5555.9661      3786.6472      1769.3188      2159.8567      1987.0089     -2336.5123      141.83443     -68.844066      3863.5007     -3977.5256     -419.17673      68616.158      40.939462      40.939462      40.939462      1.0087055      755.8647       669.49217      950.9126     
   1031500   1031500        201.48905     -493.76137      5058.5242      5555.0205      3855.2551      1699.7654      2148.3145      1993.1617     -2383.7833      139.33414     -80.754405      3860.2106     -3976.7179     -417.15791      68948.223      41.005398      41.005398      41.005398      1.0038474     -645.4199      -1030.641       194.77677    
   1032000   1032000        200.36262     -369.961        5262.8771      5636.7486      3833.7022      1803.0464      2184.9404      2002.2538     -2383.2396      139.07568     -30.653348      3861.0566     -3970.3872     -415.08124      69293.174      41.073668      41.073668      41.073668      0.9988501     -89.190166     -222.65012     -798.0427     
   1032500   1032500        200.93405      1182.8961      6783.8524      5604.2514      3844.6358      1759.6155      2156.5587      2013.0505     -2373.3204      141.80027     -52.53852       3852.787      -3978.7221     -420.64034      68377.408      40.891924      40.891924      40.891924      1.0122275      1089.5014      1778.3664      680.82062    
   1033000   1033000        199.96607     -209.1931       5339.1656      5549.438       3826.1148      1723.3231      2136.8832      2026.498      -2394.323       140.03609     -72.13434       3861.336      -3974.9728     -417.31561      68922.168      41.000232      41.000232      41.000232      1.0042269     -502.48336     -196.07862      70.98267     
   1033500   1033500        196.94425      556.08438      6073.2101      5514.2202      3768.2958      1745.9244      2162.6435      1977.5523     -2363.2698      147.45047     -57.213517      3853.9208     -3975.1594     -417.28824      68926.688      41.001128      41.001128      41.001128      1.004161       1115.8443     -156.03467      708.44352    
   1034000   1034000        199.68618      150.2147       5725.273       5574.4684      3820.7593      1753.7091      2154.333       2000.8894     -2371.2745      142.82426     -62.527671      3861.1498     -3971.6851     -417.82763      68837.708      40.983477      40.983477      40.983477      1.005459      -215.16589      534.46367      131.34631    
   1034500   1034500        201.51684     -458.64935      5119.5705      5579.1798      3855.7868      1723.3929      2135.0108      1972.2935     -2344.1099      142.51985     -75.609514      3867.4975     -3974.2093     -418.59251      68711.924      40.958499      40.958499      40.958499      1.0072996     -345.92103     -618.79644     -411.23058    
   1035000   1035000        197.33918      436.13215      5919.3716      5483.4799      3775.8522      1707.6276      2117.922       2019.722      -2356.0169      137.91601     -100.54493      3866.0776     -3977.4482     -419.6999       68530.625      40.922444      40.922444      40.922444      1.0099644      1285.8442      279.54505     -256.99286    
   1035500   1035500        202.05975     -5.6199583      5562.0443      5567.7067      3866.1749      1701.5318      2114.4041      1998.3258     -2380.8566      138.44058     -40.719831      3847.5269     -3975.589      -416.32267      69086.549      41.032801      41.032801      41.032801      1.0018375     -74.826013      330.58932     -272.62318    
   1036000   1036000        200.43129      474.01987      6075.3058      5599.5416      3835.0161      1764.5255      2210.5989      2004.3313     -2410.3638      142.01065     -66.897929      3859.4352     -3974.5887     -417.93066      68820.738      40.980109      40.980109      40.980109      1.0057069      693.22763      358.40602      370.42597    
   1036500   1036500        199.89931      115.13886      5728.2753      5613.1276      3824.8374      1788.2902      2122.5675      2038.352      -2337.9804      142.97998     -52.64038       3853.0213     -3978.0098     -419.43604      68573.736      40.931023      40.931023      40.931023      1.0093295      801.35949     -1078.8529      622.90998    
   1037000   1037000        202.2724      -409.8737       5242.1023      5656.3762      3870.2436      1786.1326      2215.2576      2002.023      -2388.5122      137.4276      -71.534496      3862.9746     -3971.5035     -415.01319      69304.536      41.075912      41.075912      41.075912      0.99868634     716.93818     -1185.8867     -760.67258    
   1037500   1037500        201.92357      110.63396      5657.4722      5546.9189      3863.5692      1683.3497      2195.5051      1973.8392     -2408.152       139.25937     -92.244797      3851.8917     -3976.7489     -419.77483      68518.392      40.920009      40.920009      40.920009      1.0101447     -833.81215      839.54298      326.17104    
   1038000   1038000        198.87056     -369.23127      5198.503       5567.8445      3805.1534      1762.6911      2133.0016      2035.8088     -2339.4485      148.968       -85.108527      3846.8246     -3977.355      -419.34345      68588.877      40.934036      40.934036      40.934036      1.0091067      228.06099     -1548.169       212.4142     
   1038500   1038500        202.19338     -563.19329      5089.8785      5655.2492      3868.7318      1786.5174      2167.5808      2022.7829     -2334.7827      138.21243     -87.666543      3857.2659     -3976.8754     -417.85313      68833.508      40.982643      40.982643      40.982643      1.0055203     -984.92301     -941.35654      236.69967    
   1039000   1039000        198.30137     -900.37684      4747.6638      5650.6618      3794.2627      1856.3991      2160.9656      2009.6822     -2266.4287      152.00595     -74.253726      3851.6426     -3977.2149     -418.251        68768.028      40.969644      40.969644      40.969644      1.0064778     -364.59575     -735.40227     -1601.1325    
   1039500   1039500        199.04961     -785.38957      4761.9329      5549.1863      3808.5794      1740.6069      2160.8105      2031.6505     -2382.3596      140.25649     -93.756766      3858.7253     -3974.7195     -418.4755       68731.135      40.962316      40.962316      40.962316      1.007018      -1414.4002     -299.00389     -642.76464    
   1040000   1040000        198.31589      254.83287      5752.4457      5497.2232      3794.5405      1702.6827      2184.5215      1984.5487     -2403.5261      140.05945     -88.024239      3860.5594     -3975.4561     -418.82828      68673.244      40.950812      40.950812      40.950812      1.0078669      1002.1695      467.17011     -704.84099    
   1040500   1040500        198.15304     -183.08653      5347.7136      5530.8331      3791.4246      1739.4085      2174.9475      1994.9413     -2351.5906      144.8194      -111.81753      3864.8291     -3976.7206     -419.39306      68580.764      40.932422      40.932422      40.932422      1.009226       429.39328     -642.90267     -335.7502     
   1041000   1041000        202.64402      503.89737      6136.9113      5630.9515      3877.3542      1753.5972      2175.4844      2017.561      -2372.096       145.19518     -92.130004      3857.7428     -3978.1601     -417.75868      68849.071      40.985732      40.985732      40.985732      1.0052931     -58.567224      1266.4758      303.78353    
   1041500   1041500        200.67921     -71.676579      5516.6022      5588.5131      3839.7599      1748.7533      2183.7095      2021.7576     -2396.5066      140.75672     -92.137564      3867.1308     -3975.9571     -418.10128      68792.654      40.974534      40.974534      40.974534      1.0061175     -881.24715     -344.57504      1010.7925    
   1042000   1042000        199.60245      118.99415      5612.7953      5493.5628      3819.1572      1674.4056      2109.2091      2011.69       -2372.868       149.14932     -99.731139      3854.449      -3977.4927     -418.62997      68705.775      40.957278      40.957278      40.957278      1.0073897     -741.34253      1060.8915      37.433507    
   1042500   1042500        199.7954      -103.52585      5499.8524      5603.719       3822.8492      1780.8698      2228.9643      1990.6574     -2370.7477      145.38427     -88.677969      3851.1986     -3975.9091     -418.09239      68794.117      40.974824      40.974824      40.974824      1.0060961      278.25403     -79.913731     -508.91785    
   1043000   1043000        200.523       -383.8807       5212.348       5598.0425      3836.771       1761.2715      2175.2031      1976.4296     -2344.6031      152.94194     -76.96379       3855.6404     -3977.3767     -417.49599      68892.39       40.994326      40.994326      40.994326      1.0046609     -349.82958     -44.421054     -757.39145    
   1043500   1043500        198.52304     -215.63748      5352.1076      5568.7577      3798.504       1770.2537      2147.0211      2028.7318     -2334.2983      144.81423     -99.939649      3859.5463     -3975.6218     -417.50786      68890.431      40.993937      40.993937      40.993937      1.0046895     -998.81966      949.01469     -597.10746    
   1044000   1044000        198.74807     -366.24821      5145.7602      5512.1369      3802.8098      1709.3271      2090.3917      2039.8761     -2355.3176      142.98717     -96.11842       3861.7125     -3974.2044     -419.32149      68592.47       40.93475       40.93475       40.93475       1.0090538     -486.94135     -749.08667      137.2834     
   1044500   1044500        199.805       -313.56018      5306.6966      5620.0133      3823.0328      1796.9805      2166.6039      2038.2925     -2349.5954      143.3734      -87.248615      3861.825      -3976.2702     -419.79456      68515.172      40.919368      40.919368      40.919368      1.0101922     -408.34746      358.10659     -890.43968    
   1045000   1045000        202.86115     -556.92045      5106.356       5663.251       3881.5086      1781.7424      2177.8907      2006.3089     -2313.4002      148.9193      -110.29834      3851.021      -3978.699      -419.48777      68565.28       40.929341      40.929341      40.929341      1.009454       186.57316     -940.32102     -917.01348    
   1045500   1045500        201.89168      942.80575      6495.4815      5551.2503      3862.959       1688.2913      2163.5243      2006.6697     -2415.3302      141.49345     -82.023995      3852.8263     -3978.8681     -418.83535      68672.085      40.950582      40.950582      40.950582      1.007884       148.02989      1176.3434      1504.0439    
   1046000   1046000        198.4714       671.79474      6151.2869      5481.1179      3797.5161      1683.6018      2163.1366      1952.7874     -2392.7322      140.61247     -68.852492      3863.7128     -3975.0628     -420.4862       68402.474      40.89692       40.89692       40.89692       1.0118566      1301.286       1100.6438     -386.54555    
   1046500   1046500        200.33239      250.92035      5809.0786      5557.9269      3833.1239      1724.803       2176.2094      1963.5193     -2374.9737      141.58252     -74.643719      3868.9471     -3975.8379     -419.08209      68631.653      40.942544      40.942544      40.942544      1.0084777     -269.20126     -1096.7877      2118.75      
   1047000   1047000        201.17826      432.76226      5970.8818      5539.3003      3849.3085      1689.9918      2122.2592      2033.0339     -2372.1504      141.78786     -119.51765      3863.4843     -3978.9054     -420.61624      68381.326      40.892705      40.892705      40.892705      1.0121695      516.27482      1528.7266     -746.7146     
   1047500   1047500        198.40153     -1234.7948      4291.3485      5526.7381      3796.179       1730.5591      2174.3555      1988.4028     -2339.8814      143.71174     -109.95049      3852.1129     -3978.1918     -419.26664      68601.442      40.936535      40.936535      40.936535      1.0089218     -2625.5618     -845.31451     -233.50811    
   1048000   1048000        195.24046     -951.62912      4514.7359      5464.7517      3735.6957      1729.056       2123.1422      1996.0968     -2326.7749      141.47435     -89.500278      3861.1258     -3976.5081     -420.18093      68452.169      40.906822      40.906822      40.906822      1.011122      -1820.6565     -41.037723     -993.19316    
   1048500   1048500        199.65766     -799.3448       4727.1485      5530.8423      3820.2136      1710.6286      2102.6258      1968.2131     -2333.1784      141.81319     -56.490669      3864.0415     -3976.3959     -417.19874      68941.475      41.00406       41.00406       41.00406       1.0039456     -1198.7851     -1153.5846     -45.664764    
   1049000   1049000        198.52963      599.526        6128.0832      5530.2526      3798.6301      1731.6225      2169.9266      1991.0928     -2366.8336      137.8519      -84.550294      3861.4736     -3977.3385     -420.65822      68374.503      40.891345      40.891345      40.891345      1.0122705      1265.9349      1179.1452     -646.50216    
   1049500   1049500        199.41613     -208.63066      5365.1889      5575.187       3815.5922      1759.5948      2158.6958      2021.7121     -2367.8531      150.95335     -93.974897      3865.4056     -3975.344      -416.73707      69017.851      41.019196      41.019196      41.019196      1.0028347      876.36852     -467.84665     -1034.4138    
   1050000   1050000        201.44292     -295.34598      5275.5532      5570.0659      3854.3725      1715.6934      2143.597       1999.7123     -2334.9694      141.42055     -125.07376      3864.6368     -3973.6301     -420.65537      68374.966      40.891437      40.891437      40.891437      1.0122636     -739.54042     -388.12749      241.62997    
Loop time of 100.6 on 1 procs for 50000 steps with 6420 atoms

Performance: 42.943 ns/day, 0.559 hours/ns, 497.020 timesteps/s, 3.191 Matom-step/s
100.0% CPU use with 1 MPI tasks x 1 OpenMP threads

MPI task timing breakdown:
Section |  min time  |  avg time  |  max time  |%varavg| %total
---------------------------------------------------------------
Pair    | 11.217     | 11.217     | 11.217     |   0.0 | 11.15
Bond    | 14.515     | 14.515     | 14.515     |   0.0 | 14.43
Kspace  | 50.51      | 50.51      | 50.51      |   0.0 | 50.21
Neigh   | 4.589      | 4.589      | 4.589      |   0.0 |  4.56
Comm    | 0.99838    | 0.99838    | 0.99838    |   0.0 |  0.99
Output  | 0.012448   | 0.012448   | 0.012448   |   0.0 |  0.01
Modify  | 16.439     | 16.439     | 16.439     |   0.0 | 16.34
Other   |            | 2.318      |            |       |  2.30

Nlocal:           6420 ave        6420 max        6420 min
Histogram: 1 0 0 0 0 0 0 0 0 0
Nghost:          18096 ave       18096 max       18096 min
Histogram: 1 0 0 0 0 0 0 0 0 0
Neighs:              0 ave           0 max           0 min
Histogram: 1 0 0 0 0 0 0 0 0 0
FullNghs:  3.83553e+06 ave 3.83553e+06 max 3.83553e+06 min
Histogram: 1 0 0 0 0 0 0 0 0 0

Total # of neighbors = 3835532
Ave neighs/atom = 597.43489
Ave special neighs/atom = 5.8598131
Neighbor list builds = 820
Dangerous builds = 0
  unfix npt_tg
  shell echo '{"stage":"T${temps}","status":"done"}' >> tg_progress.jsonl
  dump per_t_snap all atom 1 per_t_structs.dump
  dump_modify per_t_snap append yes
  run 0
WARNING: No fixes with time integration, atoms won't move
For more information see https://docs.lammps.org/err0028 (src/verlet.cpp:60)
PPPM Kokkos initialization ...
  using 12-bit tables for long-range coulomb
  G vector (1/distance) = 0.30332576
  grid = 30 30 30
  stencil order = 5
  estimated absolute RMS force accuracy = 0.00026449162
  estimated relative force accuracy = 7.9650865e-07
  using double precision cuFFT
  3d grid and FFT values/proc = 50653 27000
Generated 6 of 6 mixed pair_coeff terms from sixthpower/sixthpower mixing rule
Per MPI rank memory allocation (min/avg/max) = 42.96 | 42.96 | 42.96 Mbytes
   Step          Time           Temp          Press         Enthalpy        TotEng         KinEng         PotEng         E_bond        E_angle        E_dihed        E_impro         E_vdwl         E_coul         E_long         E_tail         Volume           Lx             Ly             Lz          Density          Pxx            Pyy            Pzz      
   1050000   1050000        201.44292     -295.34535      5275.5539      5570.066       3854.3725      1715.6935      2143.597       1999.7123     -2334.9694      141.42055     -125.07376      3867.4909     -3976.4841     -420.65537      68374.966      40.891437      40.891437      40.891437      1.0122636     -739.54025     -388.1252       241.62939    
Loop time of 5.1938e-05 on 1 procs for 0 steps with 6420 atoms

104.0% CPU use with 1 MPI tasks x 1 OpenMP threads

MPI task timing breakdown:
Section |  min time  |  avg time  |  max time  |%varavg| %total
---------------------------------------------------------------
Pair    | 0          | 0          | 0          |   0.0 |  0.00
Bond    | 0          | 0          | 0          |   0.0 |  0.00
Kspace  | 0          | 0          | 0          |   0.0 |  0.00
Neigh   | 0          | 0          | 0          |   0.0 |  0.00
Comm    | 0          | 0          | 0          |   0.0 |  0.00
Output  | 0          | 0          | 0          |   0.0 |  0.00
Modify  | 0          | 0          | 0          |   0.0 |  0.00
Other   |            | 5.194e-05  |            |       |100.00

Nlocal:           6420 ave        6420 max        6420 min
Histogram: 1 0 0 0 0 0 0 0 0 0
Nghost:          18093 ave       18093 max       18093 min
Histogram: 1 0 0 0 0 0 0 0 0 0
Neighs:              0 ave           0 max           0 min
Histogram: 1 0 0 0 0 0 0 0 0 0
FullNghs:  3.83671e+06 ave 3.83671e+06 max 3.83671e+06 min
Histogram: 1 0 0 0 0 0 0 0 0 0

Total # of neighbors = 3836708
Ave neighs/atom = 597.61807
Ave special neighs/atom = 5.8598131
Neighbor list builds = 0
Dangerous builds = 0
  undump per_t_snap
  print "STAGE COMPLETE: Tg step T=${temps}K P=1.0atm steps=50000"
STAGE COMPLETE: Tg step T=200K P=1.0atm steps=50000
  next temps
  jump SELF TEMP_LOOP

write_data tg_step_out.data
System init for write_data ...
PPPM Kokkos initialization ...
  using 12-bit tables for long-range coulomb
  G vector (1/distance) = 0.30332576
  grid = 30 30 30
  stencil order = 5
  estimated absolute RMS force accuracy = 0.00026449162
  estimated relative force accuracy = 7.9650865e-07
  using double precision cuFFT
  3d grid and FFT values/proc = 50653 27000
Generated 6 of 6 mixed pair_coeff terms from sixthpower/sixthpower mixing rule
Total wall time: 0:37:39
