units real
atom_style full
boundary p p p

# --- Force Field Styles ---
pair_style lj/class2/coul/long 9.5 9.5
kspace_style pppm 1e-6
dielectric 1.000000
bond_style class2
angle_style class2
dihedral_style class2
improper_style class2
special_bonds lj/coul 0 0 1
pair_modify mix sixthpower tail yes
neighbor 2.0 bin
neigh_modify delay 0 every 1 check yes
neigh_modify one 4000
# KOKKOS: package loaded via -pk kokkos on the command line

read_data /home/alexzhao/PolyJarvis/data/PVC4/lammps/equil/npt_extend/npt_extend_out.data
Reading data file ...
  orthogonal box = (6.2939221 6.2939221 6.2939221) to (42.091573 42.091573 42.091573)
  1 by 1 by 1 MPI processor grid
  reading atoms ...
  3620 atoms
  reading velocities ...
  3620 velocities
  scanning bonds ...
  4 = max bonds/atom
  scanning angles ...
  12 = max angles/atom
  scanning dihedrals ...
  24 = max dihedrals/atom
  scanning impropers ...
  10 = max impropers/atom
  orthogonal box = (6.2939221 6.2939221 6.2939221) to (42.091573 42.091573 42.091573)
  1 by 1 by 1 MPI processor grid
  reading bonds ...
  3610 bonds
  reading angles ...
  7200 angles
  reading dihedrals ...
  10710 dihedrals
  reading impropers ...
  4800 impropers
Finding 1-2 1-3 1-4 neighbors ...
  special bond factors lj:    0        0        1       
  special bond factors coul:  0        0        1       
     4 = max # of 1-2 neighbors
     6 = max # of 1-3 neighbors
    10 = max # of special neighbors
  special bonds CPU = 0.003 seconds
  read_data CPU = 0.254 seconds


# --- Thermo Output ---
thermo_style custom step time temp press enthalpy etotal ke pe ebond eangle edihed eimp evdwl ecoul elong etail vol lx ly lz density pxx pyy pzz
thermo_modify flush yes
thermo 100

# --- Trajectory ---
dump dump_npt all custom 1000 /home/alexzhao/PolyJarvis/data/PVC4/lammps/mechanical/bm_series/bm_P3000/bm_P3000.dump id type mol x y z ix iy iz vx vy vz

# --- Restart Checkpointing ---
restart 10000 npt_1.rst npt_2.rst

# --- Initial Velocities (optional) ---
# Velocities read from data file

# --- SHAKE Constraints ---
fix shake_fix all shake 1e-4 1000 0 m 1.008
Finding SHAKE clusters ...
     590 = # of size 2 clusters
     600 = # of size 3 clusters
      10 = # of size 4 clusters
       0 = # of frozen angles
  find clusters CPU = 0.002 seconds

# --- NPT Thermostat + Barostat (Nose-Hoover) ---
# T_damp = 100.0 fs  (heat bath coupling)
# P_damp = 1000.0 fs  (pressure bath coupling, ~10x T_damp typical)
# Ramp: T=300.0->300.0K  P=3000.0->3000.0atm
timestep 1.0
fix npt_fix all npt temp 300.0 300.0 100.0 iso 3000.0 3000.0 1000.0

run 500000
PPPM Kokkos initialization ...
  using 12-bit tables for long-range coulomb
  G vector (1/distance) = 0.29557389
  grid = 24 24 24
  stencil order = 5
  estimated absolute RMS force accuracy = 0.00037432903
  estimated relative force accuracy = 1.1272808e-06
  using double precision cuFFT
  3d grid and FFT values/proc = 29791 13824
Generated 6 of 6 mixed pair_coeff terms from sixthpower/sixthpower mixing rule
Neighbor list info ...
  update: every = 1 steps, delay = 0 steps, check = yes
  max neighbors/atom: 4000, page size: 100000
  master list distance cutoff = 11.5
  ghost atom cutoff = 11.5
  binsize = 11.5, bins = 4 4 4
  1 neighbor lists, perpetual/occasional/extra = 1 0 0
  (1) pair lj/class2/coul/long/kk, perpetual
      attributes: full, newton off, kokkos_device
      pair build: full/bin/kk/device
      stencil: full/bin/3d
      bin: kk/device
Per MPI rank memory allocation (min/avg/max) = 24.92 | 24.92 | 24.92 Mbytes
   Step          Time           Temp          Press         Enthalpy        TotEng         KinEng         PotEng         E_bond        E_angle        E_dihed        E_impro         E_vdwl         E_coul         E_long         E_tail         Volume           Lx             Ly             Lz          Density          Pxx            Pyy            Pzz      
         0   0              362.80872      3846.6667      1620.577      -952.92218      3257.7297     -4210.6519      698.31932      1980.4154     -2051.9186      15.628194     -987.16908     -1613.2514     -2252.6758     -275.86528      45873.68       35.797651      35.797651      35.797651      1.3581404      6626.5947      3109.5616      1803.8437    
       100   100            306.94243      990.47015     -889.45508     -1545.8482      2756.0954     -4301.9437      685.82327      1928.4897     -2058.5691      13.863019     -1003.6381     -1613.9515     -2253.961      -278.49274      45440.882      35.684717      35.684717      35.684717      1.3710759      500.22056     -593.23971      3064.4296    
       200   200            305.07228      3173.2247      459.96803     -1596.0057      2739.3031     -4335.3087      639.73412      1933.9953     -2065.513       13.903906     -977.91316     -1623.6088     -2255.9071     -284.85234      44426.371      35.41715       35.41715       35.41715       1.4023855      2908.8766      3238.7921      3372.0055    
       300   300            311.12126      3247.0488      459.12161     -1612.0253      2793.618      -4405.6433      609.7995       1884.8932     -2038.5242      14.360877     -994.23802     -1622.7138     -2259.2208     -289.34397      43736.719      35.232928      35.232928      35.232928      1.4244987      1855.7534      3849.7033      4035.6897    
       400   400            299.99045      3799.2758      738.75273     -1663.5582      2693.6723     -4357.2305      633.01858      1931.7758     -2052.1387      14.55635      -995.35849     -1628.9121     -2260.172      -291.88254      43356.329      35.130487      35.130487      35.130487      1.4369966      3296.7733      3847.3369      4253.7172    
       500   500            301.47484      3121.9036      270.14725     -1698.1377      2707.0009     -4405.1386      638.24271      1877.1524     -2038.7186      14.565978     -1009.5761     -1628.4267     -2258.3783     -292.73054      43230.733      35.096532      35.096532      35.096532      1.4411715      3552.3576      1828.7687      3984.5847    
       600   600            297.87388      2553.6712     -85.258758     -1697.7221      2674.6672     -4372.3893      654.05767      1900.8074     -2041.4307      14.786958     -1016.6925     -1624.8622     -2259.0559     -292.28845      43296.12       35.114217      35.114217      35.114217      1.438995       2300.9111      3496.195       1863.9077    
       700   700            306.46734      1979.5823     -395.48989     -1648.2301      2751.8295     -4400.0596      647.39531      1887.4223     -2040.6778      14.77442      -1031.4012     -1621.4166     -2256.1561     -291.64132      43392.19       35.14017       35.14017       35.14017       1.435809       3103.6271      1119.9651      1715.1546    
       800   800            309.96896      3740.227       808.69327     -1560.6002      2783.2713     -4343.8714      655.45323      1881.7619     -2037.9121      13.466476     -971.77038     -1627.4038     -2257.4668     -291.3504       43435.519      35.151862      35.151862      35.151862      1.4343768      2067.0189      5121.5317      4032.1303    
       900   900            300.67935      3041.4876      326.0146      -1604.8092      2699.858      -4304.6672      650.3709       1958.7203     -2053.5581      15.237114     -996.29012     -1622.6303     -2256.5169     -290.72336      43529.202      35.177116      35.177116      35.177116      1.4312897      2632.1599      2573.0712      3919.2316    
      1000   1000           295.37695      2994.6112      235.34617     -1665.2706      2652.2468     -4317.5174      648.99899      1951.8455     -2048.9331      15.582983     -1010.6007     -1621.3944     -2253.0167     -290.79196      43518.933      35.17435       35.17435       35.17435       1.4316274      4125.2103      3583.1599      1275.4634    
      1100   1100           305.59351      3205.6628      357.23134     -1670.8944      2743.9833     -4414.8777      620.61581      1932.7672     -2069.9166      15.67936      -1036.0323     -1624.595      -2253.3962     -291.71549      43381.158      35.137192      35.137192      35.137192      1.4361741      2926.3293      2531.0426      4159.6166    
      1200   1200           306.25069      4053.8959      915.90128     -1636.0408      2749.8842     -4385.925       644.79417      1873.1056     -2063.4427      14.311374     -976.12897     -1625.1347     -2253.4297     -293.18268      43164.064      35.078481      35.078481      35.078481      1.4433974      3231.8441      4228.762       4701.0815    
      1300   1300           302.21227      2161.9987     -219.62199     -1580.4757      2713.6224     -4294.0981      707.24172      1936.0429     -2075.0708      15.361595     -1003.8308     -1619.9108     -2253.9319     -293.21118      43159.867      35.077344      35.077344      35.077344      1.4435378      2064.3399      2043.4181      2378.2382    
      1400   1400           306.53747      2327.5586     -127.82334     -1594.7512      2752.4592     -4347.2104      657.92932      1928.5415     -2055.9996      14.766175     -1016.6751     -1620.8564     -2254.9163     -292.83865      43214.773      35.092212      35.092212      35.092212      1.4417037      1999.2887      2598.9447      2384.4425    
      1500   1500           294.10289      2792.8412      78.631718     -1687.4543      2640.8068     -4328.261       651.45047      1934.9782     -2059.4296      15.477682     -993.63821     -1623.0228     -2254.0768     -291.85754      43360.044      35.13149       35.13149       35.13149       1.4368735      1503.9786      2746.4954      4128.0496    
      1600   1600           296.55191      3455.4429      471.85993     -1718.6657      2662.797      -4381.4627      626.67632      1931.2175     -2072.4286      15.21539      -1011.868      -1616.8731     -2253.4023     -291.13331      43467.907      35.160597      35.160597      35.160597      1.433308       3175.5172      2180.6441      5010.1674    
      1700   1700           305.30637      3233.601       318.09507     -1733.2298      2741.4049     -4474.6348      639.36521      1856.8123     -2053.9596      14.765856     -1063.0195     -1614.7884     -2253.8107     -290.93         43498.285      35.168786      35.168786      35.168786      1.432307       2087.5376      3718.7721      3894.4934    
      1800   1800           302.74064      4036.4442      822.58058     -1735.1314      2718.3668     -4453.4982      607.681        1878.8976     -2035.2703      14.08156      -1044.2937     -1617.4092     -2257.1852     -291.26201      43448.701      35.155418      35.155418      35.155418      1.4339416      3607.0316      4727.4346      3774.8664    
      1900   1900           303.73054      2650.1932      21.713604     -1656.5222      2727.2553     -4383.7775      634.49033      1885.1709     -2054.2906      13.274438     -995.10785     -1613.8459     -2253.4688     -291.44799      43420.974      35.147938      35.147938      35.147938      1.4348572      4614.6653      1479.2562      1856.6581    
      2000   2000           303.43374      3727.6673      768.60049     -1595.2576      2724.5903     -4319.8478      676.8024       1903.2723     -2040.2729      14.665165     -992.63865     -1623.239      -2258.4371     -291.03972      43481.885      35.164366      35.164366      35.164366      1.4328472      1798.2987      5686.2672      3698.436     
      2100   2100           301.08448      2568.7703      8.5337681     -1625.5189      2703.4958     -4329.0147      664.30467      1940.7869     -2041.1382      14.586204     -1019.6578     -1627.1303     -2260.7661     -290.13207      43617.914      35.200997      35.200997      35.200997      1.4283787      3189.5306      1312.3223      3204.4579    
      2200   2200           297.91348      3050.5906      257.35312     -1683.044       2675.0228     -4358.0668      639.76421      1923.0431     -2050.816       15.31154      -1001.5806     -1623.2452     -2260.5439     -290.15485      43614.49       35.200076      35.200076      35.200076      1.4284908      2848.2335      3015.4094      3288.1289    
      2300   2300           295.24041      2877.0911      112.56339     -1713.5259      2651.0208     -4364.5467      611.75324      1936.9981     -2040.5588      14.298967     -1003.1816     -1626.3752     -2257.4815     -290.7824       43520.363      35.174735      35.174735      35.174735      1.4315804      2005.5497      2652.0349      3973.6887    
      2400   2400           289.65951      3082.4083      174.38296     -1777.0537      2600.9088     -4377.9625      631.4652       1916.6134     -2028.1993      14.31501      -1032.7199     -1623.4284     -2256.0085     -291.5226       43409.862      35.14494       35.14494       35.14494       1.4352245      2019.8555      3950.2884      3277.0811    
      2500   2500           296.35657      3833.7017      655.57261     -1764.1621      2661.043      -4425.2051      595.36852      1909.2359     -2034.201       15.432329     -1036.8297     -1619.9142     -2254.297      -292.40654      43278.634      35.109489      35.109489      35.109489      1.4395764      2864.7903      4775.0479      3861.267     
      2600   2600           297.49933      2836.6999      126.01157     -1657.4072      2671.3041     -4328.7112      629.41284      1958.7414     -2036.1849      14.993836     -1018.9502     -1621.8863     -2254.838      -293.5598       43108.613      35.063453      35.063453      35.063453      1.4452541      1615.6773      3506.8452      3387.5772    
      2700   2700           305.60541      3862.2453      808.10578     -1613.6709      2744.0901     -4357.761       607.54844      1920.8389     -2058.6132      14.659192     -958.82413     -1626.4926     -2256.8777     -294.33525      42995.04       35.032633      35.032633      35.032633      1.4490718      4652.1974      4500.1275      2434.4111    
      2800   2800           308.46341      2491.2965     -57.099149     -1625.5339      2769.7526     -4395.2865      651.10135      1928.7587     -2062.5515      15.538387     -1053.7492     -1616.2083     -2258.176      -293.15377      43168.32       35.079634      35.079634      35.079634      1.4432551      2021.7023      2578.9399      2873.2472    
      2900   2900           302.07966      2945.8721      173.00827     -1689.7935      2712.4317     -4402.2252      637.73728      1936.1724     -2062.3496      15.052783     -1041.5416     -1626.9715     -2260.325      -291.86618      43358.761      35.131144      35.131144      35.131144      1.436916       349.1967       4709.0762      3779.3434    
      3000   3000           293.62117      2746.828      -36.141966     -1780.1291      2636.4813     -4416.6103      640.86696      1891.0996     -2046.3155      14.311814     -1026.5241     -1630.8942     -2259.1549     -290.6864       43534.736      35.178607      35.178607      35.178607      1.4311077      3168.8345      2229.6498      2841.9996    
      3100   3100           294.23237      1180.0703     -993.80937     -1744.3012      2641.9694     -4386.2705      656.64349      1931.9629     -2066.2108      15.530749     -1049.1256     -1618.7702     -2256.301      -290.20069      43607.601      35.198222      35.198222      35.198222      1.4287165      139.19574      1727.0591      1673.956     
      3200   3200           295.03642      3644.5421      621.70121     -1683.2235      2649.1891     -4332.4126      624.482        1956.6925     -2074.1978      14.474922     -973.06905     -1624.8915     -2255.9038     -291.82517      43364.853      35.132789      35.132789      35.132789      1.4367141      4680.6589      3164.2123      3088.7552    
      3300   3300           304.67591      2781.7944      98.062708     -1654.003       2735.744      -4389.747       648.37367      1919.1046     -2050.371       16.031023     -1050.441      -1617.5769     -2254.8673     -293.02937      43186.646      35.084597      35.084597      35.084597      1.4426427      4206.6436      1575.3638      2563.3758    
      3400   3400           301.53388      2183.444      -263.51476     -1633.9255      2707.5311     -4341.4566      666.17129      1934.1291     -2054.8684      15.218407     -1028.7756     -1618.6741     -2254.6573     -294.05449      43036.091      35.04378       35.04378       35.04378       1.4476895      145.36884      3395.039       3009.9241    
      3500   3500           302.35254      3033.0312      305.00955     -1597.5637      2714.8819     -4312.4456      646.17148      1965.7543     -2046.488       14.781043     -1014.5705     -1621.5641     -2256.5298     -294.21988      43011.899      35.037212      35.037212      35.037212      1.4485038      2964.4257      4229.0289      1905.639     
      3600   3600           304.85674      3174.0014      453.86804     -1546.675       2737.3677     -4284.0427      665.94408      1945.0228     -2038.5034      13.763255     -991.61175     -1622.9944     -2255.6633     -292.81663      43218.023      35.093092      35.093092      35.093092      1.4415953      2644.5119      2555.5548      4321.9375    
      3700   3700           304.99103      3468.606       627.18339     -1570.2919      2738.5734     -4308.8653      645.27999      2009.4163     -2054.0837      16.443626     -1040.5471     -1627.255      -2258.1194     -291.31812      43440.332      35.153161      35.153161      35.153161      1.4342178      3820.2883      3100.467       3485.0626    
      3800   3800           294.40711      4131.8072      959.82242     -1659.9493      2643.5384     -4303.4877      629.15398      2009.9678     -2061.4435      16.35075      -1017.178      -1621.9572     -2258.3815     -291.0805       43475.794      35.162724      35.162724      35.162724      1.433048       4552.7015      3110.8254      4731.8946    
      3900   3900           300.04586      5074.6947      1543.0128     -1672.1436      2694.1698     -4366.3135      599.00618      1912.9682     -2049.0566      14.164792     -957.75299     -1627.9747     -2257.6684     -291.30257      43442.65       35.153786      35.153786      35.153786      1.4341413      3800.9341      5951.8535      5471.2964    
      4000   4000           304.03213      2524.9779     -45.774199     -1649.0123      2729.9633     -4378.9756      655.06892      1910.5569     -2048.4344      14.681717     -1037.1411     -1618.1011     -2255.6066     -290.66724      43537.607      35.17938       35.17938       35.17938       1.4310134      2984.5121      2986.9528      1603.4687    
      4100   4100           311.6415       2936.7424      262.9923      -1598.0564      2798.2893     -4396.3457      673.60985      1893.4422     -2053.2268      15.769704     -1047.3915     -1622.5213     -2256.0279     -291.23572      43452.623      35.156476      35.156476      35.156476      1.4338121      1450.389       3074.9644      4284.8737    
      4200   4200           306.17307      3064.0393      382.84472     -1548.7638      2749.1873     -4297.9511      656.10808      1967.5431     -2061.4667      14.828879     -990.25032     -1628.0665     -2256.6477     -292.75999      43226.384      35.095355      35.095355      35.095355      1.4413165      2557.655       3653.6721      2980.7907    
      4300   4300           301.89472      2654.6839      73.466653     -1594.5549      2710.7711     -4305.3259      673.284        1935.3893     -2031.6544      15.026007     -1008.1728     -1630.4554     -2258.7427     -293.72958      43083.696      35.056696      35.056696      35.056696      1.4460899      3635.9559      2053.221       2274.8747    
      4400   4400           299.08875      3520.6674      533.70309     -1674.943       2685.5758     -4360.5187      671.62011      1900.8952     -2058.6093      14.719296     -1003.9041     -1626.5618     -2258.6781     -294.19507      43015.527      35.038197      35.038197      35.038197      1.4483816      3498.7682      3331.6137      3731.6202    
      4500   4500           298.87247      2538.3872     -104.48062     -1701.3246      2683.6337     -4384.9583      659.41251      1930.3298     -2031.2102      15.225954     -1080.3521     -1621.3178     -2257.0465     -293.38094      43134.894      35.070577      35.070577      35.070577      1.4443735      1027.0646      2867.1118      3720.9851    
      4600   4600           297.7264       3111.3736      259.03158     -1698.3267      2673.3429     -4371.6696      645.25849      1947.8414     -2061.3405      14.890774     -1027.5156     -1631.8009     -2259.0032     -293.3718       43136.238      35.070941      35.070941      35.070941      1.4443285      2779.6498      3071.6255      3482.8454    
      4700   4700           306.07614      2513.9705     -63.00744      -1645.5883      2748.3169     -4393.9052      632.38533      1918.8256     -2066.9551      15.117933     -1008.3827     -1625.3606     -2259.5357     -293.1776       43164.811      35.078683      35.078683      35.078683      1.4433724      2407.9553      2099.2937      3034.6626    
      4800   4800           305.97977      3229.056       459.08821     -1576.492       2747.4516     -4323.9436      651.61424      1960.371      -2057.0853      14.506069     -1010.2454     -1624.8815     -2258.2228     -292.76817      43225.176      35.095028      35.095028      35.095028      1.4413567      1592.619       3748.8436      4345.7054    
      4900   4900           305.95546      2745.2976      122.67772     -1609.0393      2747.2332     -4356.2725      628.13187      1926.4627     -2035.2623      14.293937     -1011.9082     -1621.592      -2256.3986     -292.58296      43252.539      35.102432      35.102432      35.102432      1.4404449      3770.6593      2631.1         1834.1334    
      5000   5000           299.39405      2838.6602      103.64829     -1689.5128      2688.3171     -4377.8298      638.12716      1959.7701     -2058.2454      15.216881     -1053.4741     -1621.8516     -2257.373      -292.16665      43314.17       35.119096      35.119096      35.119096      1.4383953      2114.362       3254.9287      3146.6901    
      5100   5100           296.49243      2670.2819     -11.801785     -1695.4209      2662.2629     -4357.6838      626.50631      1918.2269     -2020.2364      14.524923     -1016.9967     -1624.9632     -2254.7456     -292.71825      43232.548      35.097023      35.097023      35.097023      1.4411109      2352.1285      2435.4176      3223.2996    
      5200   5200           294.35695      2407.7006     -167.4176      -1680.3487      2643.088      -4323.4367      657.54792      1945.5971     -2045.3477      14.491593     -1025.8124     -1617.9839     -2251.9294     -293.71076      43086.456      35.057445      35.057445      35.057445      1.4459973      2129.2386      2327.9919      2765.8714    
      5300   5300           298.22154      3464.189       513.85315     -1663.1589      2677.7889     -4340.9477      666.36461      1911.9381     -2050.5741      15.069146     -1001.4093     -1626.4817     -2255.8544     -293.68196      43090.681      35.058591      35.058591      35.058591      1.4458555      2934.0531      4538.4588      2920.055     
      5400   5400           296.47895      3059.5988      249.43471     -1678.4237      2662.1418     -4340.5656      651.36272      1938.5572     -2037.791       14.479401     -1025.8287     -1625.3994     -2255.9457     -292.90438      43205.076      35.089587      35.089587      35.089587      1.4420273      3826.3765      2344.4574      3007.9625    
      5500   5500           295.15124      3080.5093      185.87798     -1760.041       2650.2201     -4410.2612      625.49313      1932.7013     -2050.5316      14.664645     -1055.7327     -1620.0795     -2256.7764     -292.1691       43313.806      35.118998      35.118998      35.118998      1.4384074      1711.2304      3219.4341      4310.8634    
      5600   5600           293.99288      3896.2436      695.7818      -1767.43        2639.819      -4407.2489      620.42841      1885.4776     -2047.0426      13.799819     -994.94619     -1629.0639     -2255.9021     -291.93144      43349.068      35.128525      35.128525      35.128525      1.4372373      3043.1723      4475.9234      4169.6351    
      5700   5700           299.73337      2258.7976     -242.34988     -1674.0401      2691.3639     -4365.404       654.85254      1938.2839     -2043.2472      15.248659     -1050.1916     -1620.2213     -2260.1291     -291.18217      43460.614      35.158631      35.158631      35.158631      1.4335485      2036.0789      2470.1889      2270.1249    
      5800   5800           300.41299      3674.7674      697.34176     -1629.2052      2697.4663     -4326.6716      628.51715      1939.1342     -2038.0918      13.839102     -990.16704     -1624.0958     -2255.8074     -291.51073      43411.629      35.145416      35.145416      35.145416      1.4351661      3837.3092      3977.9857      3209.0075    
      5900   5900           303.93648      2164.7159     -254.43004     -1624.7499      2729.1045     -4353.8544      666.95719      1879.9731     -2013.1789      14.068954     -1029.0054     -1618.6496     -2254.0197     -291.55163      43405.54       35.143773      35.143773      35.143773      1.4353674      1691.4159      3298.1444      1504.5874    
      6000   6000           293.88104      1951.9087     -438.21674     -1671.9356      2638.8147     -4310.7503      676.01868      1958.4395     -2046.4713      14.052733     -1036.3979     -1620.625      -2255.767      -291.99797      43339.191      35.125857      35.125857      35.125857      1.4375648      3357.7966      2002.3592      495.57045    
      6100   6100           293.14913      3074.8726      204.92748     -1734.3568      2632.2428     -4366.5996      643.52934      1904.8551     -2029.693       14.649541     -1025.5296     -1618.763      -2255.6479     -292.63223      43245.256      35.100461      35.100461      35.100461      1.4406875      2951.293       3356.44        2916.8848    
      6200   6200           294.89522      2649.0101     -70.013163     -1737.7126      2647.9212     -4385.6338      632.71856      1914.7424     -2035.3235      13.932942     -1043.5325     -1614.654      -2253.5177     -293.1584       43167.638      35.079449      35.079449      35.079449      1.4432779      2740.1311      3134.4384      2072.4607    
      6300   6300           302.81575      1672.3882     -608.55542     -1661.0399      2719.0412     -4380.0811      662.90774      1889.0581     -2023.7374      13.596615     -1052.6983     -1615.4677     -2253.7401     -293.26344      43152.177      35.07526       35.07526       35.07526       1.443795       1697.2251      1232.7184      2087.2213    
      6400   6400           308.05044      3736.1178      750.29258     -1599.4569      2766.0445     -4365.5013      623.91092      1957.9232     -2049.9244      15.560934     -1043.2749     -1617.4725     -2252.2246     -293.45095      43124.603      35.067788      35.067788      35.067788      1.4447182      3233.4252      4062.6673      3912.2607    
      6500   6500           303.94038      3105.4003      380.02716     -1575.3044      2729.1395     -4304.4439      658.63695      1947.894      -2029.9149      15.368238     -1018.798      -1624.066      -2253.5642     -293.11207      43174.462      35.081297      35.081297      35.081297      1.4430498      2806.9555      2635.7889      3873.4566    
      6600   6600           303.8256       3168.5814      386.6791      -1611.3909      2728.1089     -4339.4998      660.17091      1924.7915     -2034.5108      14.03042      -1027.7689     -1622.5145     -2253.6984     -292.67842      43238.431      35.098615      35.098615      35.098615      1.4409148      3170.2487      2452.5689      3882.9266    
      6700   6700           296.42118      3007.0711      172.16301     -1724.3624      2661.6231     -4385.9854      628.62966      1907.6002     -2026.6257      14.538579     -1038.7307     -1619.0479     -2252.3496     -292.63183      43245.315      35.100477      35.100477      35.100477      1.4406855      2937.2935      1825.7432      4258.1766    
      6800   6800           293.3113       2365.4328     -234.52813     -1724.2593      2633.6989     -4357.9582      663.90456      1906.1821     -2033.3385      14.289447     -1034.4311     -1620.5773     -2253.9873     -293.04831      43183.855      35.083841      35.083841      35.083841      1.4427359      2566.8901      1530.6833      2998.7251    
      6900   6900           296.50932      2702.9647      28.201409     -1671.6461      2662.4146     -4334.0607      701.77917      1903.3038     -2036.3972      13.987524     -1039.7954     -1620.8656     -2256.0729     -293.47217      43121.485      35.066943      35.066943      35.066943      1.4448226      3120.5395      2020.9404      2967.414     
      7000   7000           303.64951      3287.6051      457.62575     -1608.1832      2726.5277     -4334.7108      635.79282      1961.4339     -2044.2675      14.933002     -1027.1619     -1620.7632     -2254.678      -293.71493      43085.845      35.057279      35.057279      35.057279      1.4460178      3305.13        3193.225       3364.4602    
      7100   7100           304.65644      3030.7468      327.51432     -1578.204       2735.5691     -4313.773       671.70484      1949.7017     -2041.1346      14.593065     -1036.8484     -1617.3207     -2254.469      -293.5131       43115.472      35.065313      35.065313      35.065313      1.4450241      2453.8         3348.4148      3290.0257    
      7200   7200           296.98965      2764.0529      71.401617     -1669.0243      2666.7276     -4335.7518      662.76881      1898.0374     -2023.0558      14.21362      -1016.8079     -1615.3913     -2255.5167     -293.10777      43175.095      35.081469      35.081469      35.081469      1.4430286      2549.0388      2895.0818      2848.0379    
      7300   7300           292.50731      2546.6982     -128.53815     -1736.0783      2626.4798     -4362.5581      647.27259      1918.8413     -2053.7163      14.742794     -1018.0922     -1616.0196     -2255.5866     -292.38304      43282.113      35.11043       35.11043       35.11043       1.4394606      3158.7251      329.76169      4151.6079    
      7400   7400           299.254        2409.285      -162.97805     -1686.881       2687.0596     -4373.9406      640.13082      1906.9983     -2040.2351      14.50611      -1019.8304     -1620.2814     -2255.2289     -291.78797      43370.382      35.134282      35.134282      35.134282      1.436531       1718.3223      2239.4304      3270.1023    
      7500   7500           303.97785      1942.0886     -389.13647     -1620.6065      2729.4759     -4350.0824      651.15033      1936.666      -2040.7412      14.685356     -1034.9655     -1620.8388     -2256.0386     -291.05947      43478.935      35.16357       35.16357       35.16357       1.4329444     -83.858033      3141.3097      2768.8142    
      7600   7600           307.77931      1780.6704     -484.66958     -1614.1366      2763.61       -4377.7466      676.34248      1909.0951     -2022.8129      15.431396     -1084.4655     -1616.0679     -2255.2693     -290.96885      43492.475      35.16722       35.16722       35.16722       1.4324983     -464.63311      1925.9349      3880.7096    
      7700   7700           298.07037      3685.7064      662.6555      -1660.9633      2676.4315     -4337.3949      669.16997      1897.3064     -2034.0065      14.443322     -1001.3823     -1627.684      -2255.2418     -292.74694      43228.311      35.095876      35.095876      35.095876      1.4412522      4035.8544      3603.8771      3417.3877    
      7800   7800           298.16826      4227.231       952.46239     -1698.7697      2677.3105     -4376.0802      618.82083      1923.3458     -2031.0829      15.817453     -1022.6649     -1623.4469     -2256.8697     -294.26916      43004.696      35.035256      35.035256      35.035256      1.4487464      3536.0442      3688.0718      5457.5769    
      7900   7900           301.29841      2788.0308      68.160706     -1678.7424      2705.4167     -4384.1591      630.68615      1918.5051     -2028.4547      14.616277     -1040.6381     -1621.6043     -2257.2696     -294.55424      42963.075      35.023949      35.023949      35.023949      1.4501499      2409.1829      4231.0868      1723.8227    
      8000   8000           303.22982      2620.7245      54.55023      -1589.3506      2722.7592     -4312.1098      661.62215      1947.0253     -2015.8736      15.479793     -1032.9892     -1629.746      -2257.6282     -294.22683      43010.883      35.036936      35.036936      35.036936      1.448538       3014.016       2156.4831      2691.6743    
      8100   8100           302.87878      2708.7709      125.28539     -1576.0199      2719.6072     -4295.6271      681.38983      1960.0525     -2030.5216      15.371241     -1042.3651     -1623.6966     -2255.8573     -293.85057      43065.956      35.051884      35.051884      35.051884      1.4466856      1657.8001      3883.9248      2584.5877    
      8200   8200           299.48969      1636.367      -620.99952     -1649.2968      2689.1758     -4338.4726      693.3978       1911.5385     -2033.6402      15.313966     -1050.2653     -1620.9039     -2253.9134     -293.69636      43088.569      35.058018      35.058018      35.058018      1.4459264      439.85791      1723.7395      2745.5036    
      8300   8300           295.43396      2249.7096     -294.39535     -1706.5164      2652.7586     -4359.2751      646.03627      1908.9577     -2049.3733      14.324194     -1005.6313     -1620.6846     -2252.9039     -294.0296       43039.734      35.044768      35.044768      35.044768      1.447567       2440.7581      2312.1582      1996.2125    
      8400   8400           298.89912      1948.4264     -475.00377     -1699.0275      2683.8731     -4382.9005      648.54269      1936.1435     -2034.6187      15.063207     -1064.8444     -1626.3386     -2256.8483     -293.78573      43075.461      35.054462      35.054462      35.054462      1.4463664      2412.5279      28.615455      3404.1357    
      8500   8500           295.82842      2840.8717      127.9494      -1656.6133      2656.3007     -4312.9139      651.21907      1928.5605     -2012.9175      14.1684       -1009.9587     -1625.5659     -2258.4199     -293.80307      43072.919      35.053773      35.053773      35.053773      1.4464517      2954.9681      3977.192       1590.455     
      8600   8600           298.41477      3507.7514      583.69881     -1620.8747      2679.524      -4300.3986      637.82669      1959.0049     -2022.6144      15.08549      -1012.0196     -1622.1064     -2255.5753     -293.65727      43094.305      35.059573      35.059573      35.059573      1.4457339      3854.0225      2536.8388      4132.3929    
      8700   8700           302.76625      2774.8636      124.59711     -1623.1235      2718.5967     -4341.7202      645.71179      1944.7416     -2022.9424      14.349958     -1051.4468     -1618.1125     -2254.0219     -293.02601      43187.142      35.084731      35.084731      35.084731      1.4426261      2925.6539      1017.1408      4381.7962    
      8800   8800           298.34674      3448.4384      523.1876      -1650.4676      2678.9131     -4329.3807      637.0045       1920.9371     -2026.5804      14.238551     -999.92942     -1620.1629     -2254.888      -292.79816      43220.749      35.09383       35.09383       35.09383       1.4415044      3798.9048      2204.0395      4342.371     
      8900   8900           295.11581      3298.0464      405.69365     -1675.238       2649.902      -4325.14        654.04925      1923.3432     -2025.9821      14.869375     -1019.8096     -1618.7238     -2252.8863     -292.50647      43263.85       35.105491      35.105491      35.105491      1.4400683      3081.088       2421.9144      4391.1368    
      9000   9000           301.68636      4060.0283      867.53785     -1692.2909      2708.9002     -4401.1911      651.90105      1940.2952     -2051.9992      15.664121     -1086.772      -1617.326      -2252.9543     -292.72154      43232.063      35.096891      35.096891      35.096891      1.4411271      4301.1655      4428.3026      3450.6168    
      9100   9100           298.02635      3540.2643      512.95599     -1711.6383      2676.0363     -4387.6746      637.8679       1907.0127     -2042.7638      14.340517     -1027.7637     -1621.2789     -2255.0893     -293.71179      43086.304      35.057404      35.057404      35.057404      1.4460024      3907.6489      3223.6064      3489.5378    
      9200   9200           297.65958      3533.155       497.57623     -1716.0126      2672.743      -4388.7556      642.22462      1897.9461     -2015.2479      14.773337     -1041.7166     -1630.2023     -2256.5328     -294.57932      42959.416      35.022955      35.022955      35.022955      1.4502734      3607.0173      2984.9868      4007.4609    
      9300   9300           297.74649      3710.5615      669.11083     -1650.0987      2673.5234     -4323.6221      674.23786      1920.6633     -2025.0853      14.830826     -1026.6156     -1624.4247     -2257.2285     -295.28145      42857.266      34.995174      34.995174      34.995174      1.4537301      3227.3211      3672.3402      4232.0233    
      9400   9400           305.10928      3803.6713      802.98807     -1576.1644      2739.6353     -4315.7996      668.65384      1928.8897     -2034.1767      14.961978     -1017.5644     -1621.8731     -2254.691      -295.06469      42888.75       35.003741      35.003741      35.003741      1.4526629      4100.9314      2659.8143      4650.2683    
      9500   9500           305.447        2308.2299     -135.62282     -1584.2286      2742.6677     -4326.8962      688.31874      1918.4282     -2043.1462      14.67867      -1020.0091     -1626.5316     -2258.6349     -294.07992      43032.369      35.042769      35.042769      35.042769      1.4478147      155.71414      3833.5561      2935.4195    
      9600   9600           299.83964      3936.4515      854.27033     -1623.1418      2692.3182     -4315.46        654.45193      1965.9181     -2042.1028      15.078414     -1018.3319     -1631.659      -2258.8147     -293.25347      43153.643      35.075658      35.075658      35.075658      1.4437459      3057.6853      4190.557       4561.1122    
      9700   9700           291.41065      2877.6005      88.816724     -1730.5138      2616.6326     -4347.1464      615.06253      1945.3955     -2023.2423      14.84755      -1013.5215     -1628.4219     -2257.2662     -291.91434      43351.607      35.129211      35.129211      35.129211      1.4371531      2255.8527      4855.3123      1521.6366    
      9800   9800           289.63687      1685.4744     -720.87441     -1789.8916      2600.7055     -4390.5971      626.62429      1936.8477     -2029.5753      14.478236     -1055.4426     -1623.1066     -2260.4228     -290.98726      43489.724      35.166479      35.166479      35.166479      1.432589       1572.8184      1340.3432      2143.2615    
      9900   9900           293.02078      3450.5669      454.8329      -1730.8044      2631.0903     -4361.8947      647.12409      1925.7141     -2040.5868      14.500795     -1023.6152     -1626.8263     -2258.2054     -291.37272      43432.192      35.150965      35.150965      35.150965      1.4344866      3107.8601      4500.1026      2743.7381    
     10000   10000          303.15436      1866.5686     -478.16732     -1657.9587      2722.0816     -4380.0403      673.58801      1890.98       -2023.5631      14.93338      -1050.715      -1625.1687     -2260.095      -291.9949       43339.647      35.12598       35.12598       35.12598       1.4375497      1592.1786      2310.4236      1697.1037    
     10100   10100          304.8009       3742.965       741.61683     -1609.9159      2736.8663     -4346.7821      661.85253      1902.1508     -2038.4338      13.605885     -989.19144     -1637.4314     -2259.3347     -293.76582      43078.38       35.055254      35.055254      35.055254      1.4462684      3751.7026      3392.8199      4084.3725    
     10200   10200          302.22414      2418.7319     -118.0258      -1634.9368      2713.729      -4348.6658      648.33765      1928.9499     -2025.4231      15.022859     -1034.4034     -1622.9294     -2258.2203     -294.28231      43002.774      35.034734      35.034734      35.034734      1.4488111      2530.7811      2608.3782      2117.0365    
     10300   10300          293.96586      3816.0859      688.7485      -1701.0337      2639.5764     -4340.6101      617.32283      1940.2315     -2034.6154      15.063729     -997.45365     -1624.0983     -2257.0609     -294.71099      42940.224      35.017739      35.017739      35.017739      1.4509216      4421.8639      2945.3959      4080.9978    
     10400   10400          287.83622      4187.6974      859.97635     -1770.918       2584.5371     -4355.4551      641.05039      1921.1612     -2029.2247      15.08491      -1018.7998     -1629.6157     -2255.1114     -293.77066      43077.671      35.055062      35.055062      35.055062      1.4462922      4285.2193      4042.5615      4235.3116    
     10500   10500          291.67032      1791.7699     -654.66584     -1786.313       2618.9643     -4405.2773      652.83753      1898.8959     -2013.2635      14.330815     -1084.0755     -1620.1542     -2253.8484     -292.21851      43306.482      35.117018      35.117018      35.117018      1.4386506      2750.4636      1014.6534      1610.1928    
     10600   10600          297.81439      1195.2924     -924.72655     -1681.3116      2674.133      -4355.4446      675.20671      1913.4997     -2010.8856      14.20822      -1069.7837     -1621.4585     -2256.2315     -291.57676      43401.798      35.142763      35.142763      35.142763      1.4354912      1903.4596      1204.7381      477.67937    
     10700   10700          298.82764      3586.4667      651.08224     -1612.6395      2683.2312     -4295.8707      654.61792      1965.5254     -2023.6148      15.309183     -1024.921      -1625.5366     -2257.2508     -292.40197      43279.312      35.109673      35.109673      35.109673      1.4395538      2852.2564      3498.7552      4408.3886    
     10800   10800          304.37915      5111.7341      1631.1745     -1584.4859      2733.0793     -4317.5652      639.52302      1936.353      -2034.3206      14.911414     -988.43649     -1629.1388     -2256.4567     -293.38277      43134.626      35.070504      35.070504      35.070504      1.4443825      5141.7251      4937.8146      5255.6627    
     10900   10900          298.20092      3128.0002      343.34278     -1625.3548      2677.6037     -4302.9585      664.30687      1960.8589     -2028.8848      14.816951     -1032.6596     -1624.6846     -2256.7123     -293.24073      43155.518      35.076166      35.076166      35.076166      1.4436832      2980.4403      3038.0366      3365.5237    
     11000   11000          296.69731      3995.0684      805.88065     -1711.4567      2664.1026     -4375.5593      628.59975      1919.7316     -2042.3781      13.925228     -1006.6856     -1632.1353     -2256.617      -292.89996      43205.727      35.089763      35.089763      35.089763      1.4420055      5932.9164      2929.673       3122.6157    
     11100   11100          291.88496      2804.5438      30.791319     -1743.6008      2620.8915     -4364.4923      658.46218      1956.7339     -2062.8329      15.253635     -1048.4804     -1628.1621     -2255.4665     -291.70854      43382.191      35.137471      35.137471      35.137471      1.43614        3920.4427      2304.2999      2188.8889    
     11200   11200          299.81443      4624.8049      1288.2444     -1636.1734      2692.0917     -4328.2651      626.73763      1942.2366     -2050.9566      15.79287      -979.09209     -1627.8564     -2255.1271     -291.87072      43358.086      35.130961      35.130961      35.130961      1.4369384      4446.5989      3397.4615      6030.3544    
     11300   11300          302.92649      3005.5989      310.80792     -1589.6315      2720.0355     -4309.667       675.90838      1928.0277     -2050.4782      15.25277      -1002.895      -1620.612      -2254.8708     -291.88617      43355.791      35.130341      35.130341      35.130341      1.4370144      2997.2633      3019.69        2999.8434    
     11400   11400          301.04855      2431.9625     -96.320057     -1631.871       2703.1732     -4335.0442      645.12407      1934.3464     -2030.1934      14.704491     -1027.3096     -1616.4704     -2255.2457     -292.30024      43294.373      35.113745      35.113745      35.113745      1.439053       1943.7377      2150.7369      3201.4129    
     11500   11500          296.40098      3382.6447      450.99618     -1681.6615      2661.4418     -4343.1033      664.08765      1904.1477     -2043.8011      14.98059      -1015.5899     -1613.8378     -2253.0903     -292.73305      43230.363      35.096431      35.096431      35.096431      1.4411838      2956.8467      4085.6195      3105.4679    
     11600   11600          292.47113      3115.1499      269.49599     -1693.2337      2626.1548     -4319.3886      661.44185      1929.9975     -2012.4927      14.737699     -1048.8509     -1612.7244     -2251.4976     -292.92401      43202.18       35.088803      35.088803      35.088803      1.4421239      3674.9404      2746.3812      2924.1281    
     11700   11700          297.52383      3832.3893      779.54717     -1635.0156      2671.524      -4306.5396      670.09031      1923.6206     -2040.2716      15.041056     -1001.8448     -1620.8947     -2252.2806     -292.93255      43200.92       35.088462      35.088462      35.088462      1.442166       4236.3989      4608.6098      2652.1592    
     11800   11800          303.87349      2754.4839      177.50364     -1559.8659      2728.5389     -4288.4048      665.36486      1989.6275     -2037.4665      15.020611     -1049.8318     -1616.9399     -2254.1795     -292.6069       43249          35.101474      35.101474      35.101474      1.4405627      3636.9888      1904.8811      2721.5819    
     11900   11900          306.60039      3625.5284      690.36459     -1592.8602      2753.0242     -4345.8844      648.93343      1905.7694     -2031.1456      14.325245     -1003.843      -1624.7976     -2255.1264     -293.06176      43181.873      35.083304      35.083304      35.083304      1.4428021      3745.8348      3697.9095      3432.8409    
     12000   12000          294.42065      3566.8029      613.14568     -1631.6507      2643.66       -4275.3107      683.46909      1959.5938     -2036.8701      15.255042     -1017.927      -1623.2939     -2255.5377     -293.25044      43154.089      35.075778      35.075778      35.075778      1.443731       2789.1008      4425.9137      3485.3943    
     12100   12100          299.71217      3671.8695      678.6711      -1629.5864      2691.1736     -4320.76        664.27999      1886.1634     -2002.3228      13.404804     -1001.6869     -1623.8478     -2256.7506     -293.58881      43104.353      35.062298      35.062298      35.062298      1.4453969      3312.3762      3349.2349      4353.9972    
     12200   12200          302.62082      2712.7018      81.054164     -1626.0048      2717.2909     -4343.2957      672.41978      1915.0524     -2031.2563      14.431188     -1034.3446     -1622.981      -2256.6171     -293.28514      43148.984      35.074395      35.074395      35.074395      1.4439018      3315.4165      2760.7461      2061.9428    
     12300   12300          295.87662      2912.8775      190.46421     -1643.5313      2656.7334     -4300.2646      657.46328      1947.7759     -2028.5811      15.051172     -1016.642      -1619.0487     -2256.2833     -293.13015      43171.799      35.080576      35.080576      35.080576      1.4431388      4156.6905      1382.0384      3199.9036    
     12400   12400          300.40166      3588.7126      596.81273     -1659.4884      2697.3646     -4356.853       638.34435      1917.667      -2039.1012      14.532737     -1012.3484     -1621.1799     -2254.7675     -293.54734      43110.443      35.063949      35.063949      35.063949      1.4451927      4391.1031      3602.4163      2772.6184    
     12500   12500          300.52534      3169.886       319.9411      -1672.2013      2698.4752     -4370.6765      637.87713      1917.6039     -2024.7615      14.977797     -1042.4681     -1617.8003     -2256.1054     -293.67013      43092.417      35.059061      35.059061      35.059061      1.4457972      2451.702       2976.9971      4080.9587    
     12600   12600          299.74156      2320.3891     -226.04961     -1682.6492      2691.4374     -4374.0866      660.4568       1891.0896     -2028.2977      14.069546     -1044.1085     -1613.1799     -2254.1165     -294.00666      43043.092      35.04568       35.04568       35.04568       1.447454       1146.0702      2314.5872      3500.5098    
     12700   12700          300.11099      3124.8703      293.49368     -1667.8703      2694.7546     -4362.6249      632.73255      1942.7032     -2053.9413      15.247547     -1032.5123     -1616.6862     -2250.1684     -294.04265      43037.824      35.04425       35.04425       35.04425       1.4476312      1232.396       4244.2301      3897.9848    
     12800   12800          301.34923      1693.3773     -532.86567     -1596.9578      2705.8731     -4302.8309      681.57604      1951.9743     -2051.0492      15.842958     -1035.2255     -1615.2655     -2250.684      -293.70478      43087.333      35.057682      35.057682      35.057682      1.4459679      2115.2696      1059.7306      1905.1317    
     12900   12900          304.92404      3154.379       411.18313     -1568.5896      2737.9719     -4306.5615      670.4797       1969.4507     -2041.9432      15.751705     -1055.4455     -1613.7095     -2251.1455     -294.0594       43035.373      35.043585      35.043585      35.043585      1.4477137      3413.0555      2546.0794      3504.0021    
     13000   13000          301.0871       3126.8928      322.09652     -1640.9983      2703.5193     -4344.5176      652.08569      1941.856      -2047.9931      15.717247     -1024.4117     -1626.7461     -2255.0256     -293.97354      43047.941      35.046996      35.046996      35.046996      1.447291       2465.1551      3004.045       3911.4784    
     13100   13100          295.2181       3253.6808      314.32616     -1731.351       2650.8205     -4382.1715      653.5526       1897.0891     -2037.4685      15.042819     -1028.5024     -1626.4997     -2255.3854     -293.54479      43110.817      35.064051      35.064051      35.064051      1.4451802      3837.9914      2888.5722      3034.4789    
     13200   13200          293.27194      3327.9098      382.9086      -1715.1339      2633.3455     -4348.4794      616.5209       1966.6104     -2047.4837      15.520034     -1015.8797     -1626.7185     -2257.0488     -292.7479       43228.169      35.095838      35.095838      35.095838      1.4412569      2592.8163      3867.3787      3523.5343    
     13300   13300          302.50546      2438.4079     -110.82907     -1652.9129      2716.255      -4369.168       645.55054      1925.1553     -2047.9927      14.992944     -1025.4235     -1626.0787     -2255.372      -291.83332      43363.642      35.132462      35.132462      35.132462      1.4367543      2258.813       2540.6467      2515.764     
     13400   13400          304.14576      2925.3119      223.31813     -1629.4206      2730.9836     -4360.4042      633.39382      1907.1324     -2033.1352      13.708291     -992.07235     -1633.0887     -2256.3423     -291.40335      43427.627      35.149733      35.149733      35.149733      1.4346374      2237.0532      2477.1356      4061.7471    
     13500   13500          300.2077       2753.085       111.20252     -1636.659       2695.623      -4332.282       621.11657      1971.8771     -2041.4451      15.196761     -1017.0503     -1623.6158     -2258.3612     -290.70273      43532.291      35.177948      35.177948      35.177948      1.4311881      3640.5064      2241.0594      2377.6892    
     13600   13600          304.22365      3326.9078      496.11453     -1614.3999      2731.683      -4346.0829      632.70917      1996.1872     -2060.1169      15.336763     -1054.7817     -1618.606      -2256.8115     -290.9303       43498.239      35.168774      35.168774      35.168774      1.4323085      4235.9045      1986.6896      3758.1291    
     13700   13700          299.27238      4298.9715      1101.7021     -1617.8401      2687.2246     -4305.0647      628.81497      1987.4484     -2064.4179      15.063441     -986.88262     -1626.7203     -2258.3707     -291.74625      43376.584      35.135957      35.135957      35.135957      1.4363256      5277.0989      3941.8048      3678.0107    
     13800   13800          298.14108      1845.1685     -500.33708     -1665.8779      2677.0664     -4342.9443      680.6142       1949.5468     -2053.9689      15.537914     -1063.5329     -1616.7445     -2254.3969     -292.17636      43312.73       35.118707      35.118707      35.118707      1.4384431      1146.9245      3227.4308      1161.1502    
     13900   13900          299.46772      4018.5885      834.4668      -1691.9215      2688.9786     -4380.9001      622.47839      1925.4221     -2054.4765      15.409553     -1011.7451     -1624.8019     -2253.1867     -293.56884      43107.286      35.063093      35.063093      35.063093      1.4452986      5131.1745      3485.8917      3438.6994    
     14000   14000          297.29251      3118.4211      278.03033     -1677.9791      2669.447      -4347.4261      653.15173      1921.4713     -2040.3405      15.060099     -1024.3333     -1620.071      -2252.3644     -294.23908      43009.093      35.03645       35.03645       35.03645       1.4485983      4131.097       3121.6843      2102.4821    
     14100   14100          304.18352      3313.7821      467.24541     -1609.9551      2731.3227     -4341.2778      624.88711      1953.6839     -2052.805       15.463037     -1005.0332     -1623.612      -2253.8617     -294.42999      42981.205      35.028876      35.028876      35.028876      1.4495382      2897.7725      2356.4891      4687.0848    
     14200   14200          303.97526      3636.0631      724.28047     -1558.8316      2729.4527     -4288.2843      685.71101      1955.7042     -2059.4578      14.532262     -1009.7565     -1621.9776     -2253.0397     -293.92783      43054.637      35.048813      35.048813      35.048813      1.4470659      2706.6016      5020.1882      3181.3995    
     14300   14300          304.92736      2377.8934     -112.37879     -1611.3468      2738.0018     -4349.3486      642.60844      1930.5252     -2030.8898      14.967553     -1040.2727     -1614.3423     -2251.945      -292.77672      43223.913      35.094686      35.094686      35.094686      1.4413988      3939.6213      917.06812      2276.9909    
     14400   14400          299.16403      3619.0337      576.10613     -1713.1163      2686.2517     -4399.3681      616.45103      1911.9103     -2041.2537      14.557295     -1027.6335     -1619.5612     -2253.8383     -291.77034      43373.002      35.134989      35.134989      35.134989      1.4364442      3067.7462      4563.7202      3225.6346    
     14500   14500          298.6179       2135.3371     -363.0297      -1716.0046      2681.3479     -4397.3525      634.69536      1961.2995     -2049.0214      15.725307     -1094.9644     -1611.6529     -2253.434      -291.28172      43445.761      35.154625      35.154625      35.154625      1.4340386      2441.0048      2227.9174      1737.0893    
     14600   14600          302.4224       2990.3792      216.69664     -1666.0462      2715.5093     -4381.5555      612.97382      1930.94       -2035.2932      14.388469     -1032.0208     -1617.1243     -2255.4195     -293.13776      43170.677      35.080272      35.080272      35.080272      1.4431763      3209.0974      2500.2854      3261.7548    
     14700   14700          294.92354      2820.6321      156.11361     -1615.026       2648.1755     -4263.2016      660.25488      1974.5651     -2037.5231      14.935753     -999.91644     -1622.156      -2253.3618     -293.92069      43055.682      35.049096      35.049096      35.049096      1.4470308      3018.1959      3574.9659      1868.7345    
     14800   14800          310.58925      3597.5551      715.02879     -1545.8458      2788.8409     -4334.6868      622.68239      1973.4368     -2038.957       14.976385     -1021.2686     -1630.8366     -2254.7201     -293.67536      43091.65       35.058853      35.058853      35.058853      1.445823       3007.4391      4171.8594      3613.3669    
     14900   14900          310.88626      1967.9051     -225.63473     -1464.933       2791.5079     -4256.4408      649.26458      2031.3125     -2032.0843      13.891302     -1043.6405     -1620.7419     -2254.4426     -293.0656       43181.308      35.083151      35.083151      35.083151      1.442821       2258.7238      2460.811       1184.1805    
     15000   15000          303.26398      2367.1404     -56.809751     -1548.491       2723.0659     -4271.5569      681.48384      1969.4151     -2043.4352      14.618547     -1019.4359     -1620.2365     -2253.9669     -292.87648      43209.192      35.090701      35.090701      35.090701      1.4418899      2604.9717      1506.7422      2989.7072    
     15100   15100          296.59825      3954.1402      852.1172      -1636.4636      2663.2131     -4299.6767      620.86475      1977.5842     -2048.5416      14.355968     -970.81038     -1636.2549     -2256.8748     -293.2492       43154.272      35.075828      35.075828      35.075828      1.4437249      4052.3416      3674.4635      4135.6156    
     15200   15200          294.52054      2841.8241      98.678998     -1691.3393      2644.5569     -4335.8962      650.89757      1962.0538     -2052.1279      14.325908     -1026.1503     -1628.6934     -2256.2018     -293.00583      43190.116      35.085537      35.085537      35.085537      1.4425267      3007.0672      2648.1259      2870.2793    
     15300   15300          292.70287      2493.0723     -165.97021     -1739.2547      2628.2357     -4367.4904      621.18378      1948.0775     -2050.7824      14.210612     -1025.9957     -1619.8248     -2254.3594     -292.45843      43270.956      35.107413      35.107413      35.107413      1.4398318      1045.995       2099.1311      4334.0909    
     15400   15400          300.34239      1992.2971     -457.44186     -1715.4671      2696.8324     -4412.2995      641.45574      1936.6521     -2037.1627      15.152549     -1095.0471     -1617.6237     -2255.7264     -292.28147      43297.154      35.114497      35.114497      35.114497      1.4389606      1314.4622      2627.4462      2034.983     
     15500   15500          298.63404      3998.5106      896.54706     -1618.7488      2681.4928     -4300.2417      653.87679      1984.0007     -2059.088       15.300007     -1011.8725     -1626.2689     -2256.1898     -293.39026      43133.524      35.070206      35.070206      35.070206      1.4444194      3079.8712      3316.0699      5599.5908    
     15600   15600          300.48184      3284.3908      462.57677     -1603.1987      2698.0846     -4301.2833      668.34562      1996.4565     -2064.1405      15.468871     -1040.2392     -1621.0469     -2256.1277     -293.43252      43127.312      35.068522      35.068522      35.068522      1.4446274      2001.4613      4248.1699      3603.5413    
     15700   15700          297.95052      4167.0822      987.86688     -1631.0775      2675.3554     -4306.4328      620.80978      1959.796      -2038.2354      13.975489     -978.83364     -1626.8115     -2257.1336     -293.65833      43094.149      35.059531      35.059531      35.059531      1.4457391      4149.3163      3882.8572      4469.0733    
     15800   15800          301.58024      2158.4929     -281.14368     -1643.2625      2707.9473     -4351.2098      659.45966      1919.178      -2028.8365      14.121039     -1047.8708     -1611.8027     -2255.4585     -292.46383      43270.157      35.107197      35.107197      35.107197      1.4398584      1517.0662      1592.5664      3365.8461    
     15900   15900          298.6713       1653.9723     -580.3901      -1626.5067      2681.8274     -4308.3341      639.57601      2004.1126     -2046.2772      15.029162     -1046.1154     -1618.6135     -2256.0459     -291.79958      43368.657      35.133816      35.133816      35.133816      1.4365881      1967.804       355.97386      2638.139     
     16000   16000          300.92296      1933.608      -385.90512     -1608.6306      2702.0455     -4310.6762      689.22587      1972.3368     -2058.2541      15.369872     -1048.927      -1623.8862     -2256.5414     -291.86093      43359.54       35.131354      35.131354      35.131354      1.4368902      405.13647      1509.8932      3885.7942    
     16100   16100          306.58825      3826.7686      745.43775     -1664.7485      2752.9152     -4417.6637      611.62934      1925.0944     -2059.3039      14.83045      -1020.5538     -1630.3462     -2259.014      -293.03407      43185.954      35.08441       35.08441       35.08441       1.4426658      4358.9464      4472.9713      2648.388     
     16200   16200          301.89077      4129.1358      872.22004     -1718.9261      2710.7356     -4429.6617      624.09995      1887.2351     -2054.5336      14.440122     -1006.3404     -1637.2706     -2257.2922     -294.10593      43028.564      35.041736      35.041736      35.041736      1.4479428      3615.561       4716.5148      4055.3315    
     16300   16300          294.35151      4120.0571      848.70404     -1734.319       2643.0391     -4377.3581      634.23498      1939.0054     -2046.4571      14.626734     -1020.2017     -1640.0332     -2258.5333     -294.38215      42988.189      35.030773      35.030773      35.030773      1.4493027      3484.9206      4654.2987      4220.952     
     16400   16400          297.23034      3521.7373      545.01149     -1662.5513      2668.8888     -4331.44        662.93376      1942.4565     -2050.3978      14.474833     -1002.1611     -1638.5033     -2260.243      -294.42888      42981.366      35.028919      35.028919      35.028919      1.4495327      1725.4887      4632.8035      4206.9197    
     16500   16500          305.01695      2322.6284     -137.89668     -1595.0918      2738.8062     -4333.898       665.9798       1917.5381     -2026.4569      14.266611     -1023.0054     -1624.7155     -2257.5046     -294.17011      43019.176      35.039188      35.039188      35.039188      1.4482588      3952.6575      1817.0993      1198.1283    
     16600   16600          300.37989      2679.9238      68.114198     -1617.1206      2697.1691     -4314.2897      684.25484      1935.0355     -2055.5246      14.539734     -1013.4171     -1623.7557     -2255.4223     -293.49355      43118.344      35.066091      35.066091      35.066091      1.4449279      2805.561       1351.879       3882.3315    
     16700   16700          296.6607       2472.6688     -140.30143     -1703.0451      2663.7738     -4366.8189      690.70839      1920.7261     -2064.9836      14.227543     -1052.3332     -1622.1834     -2252.9807     -292.02142      43335.71       35.124917      35.124917      35.124917      1.4376803      3125.477       1530.8089      2761.7203    
     16800   16800          298.05156      2282.5711     -267.05924     -1715.6854      2676.2627     -4391.9481      650.86783      1918.6556     -2054.562       14.534724     -1040.1575     -1625.5897     -2255.697      -290.80677      43516.716      35.173753      35.173753      35.173753      1.4317004      1983.3534      1815.7064      3048.6537    
     16900   16900          298.6883       2332.3339     -195.56483     -1675.6223      2681.98       -4357.6023      627.72884      1971.7453     -2055.1602      14.925699     -1037.4992     -1625.1177     -2254.2251     -290.83635      43512.291      35.17256       35.17256       35.17256       1.431846       1656.0997      1838.5229      3502.3792    
     17000   17000          301.97532      1348.158      -796.00068     -1648.0066      2711.4948     -4359.5014      694.52875      1891.556      -2054.3714      14.341778     -1025.2339     -1625.7917     -2254.531      -292.03485      43333.718      35.124379      35.124379      35.124379      1.4377464      970.34692      604.63592      2469.4912    
     17100   17100          301.33003      2602.6285     -11.59077      -1649.1437      2705.7007     -4354.8443      653.06002      1933.1127     -2064.5259      14.433197     -1011.3138     -1624.6253     -2254.9853     -293.32789      43142.695      35.072691      35.072691      35.072691      1.4441123      2083.7114      2991.6342      2732.5398    
     17200   17200          291.03826      4020.153       860.2678      -1665.063       2613.2888     -4278.3518      650.79952      1978.8485     -2041.1795      14.589099     -998.94117     -1625.1563     -2257.312      -293.80612      43072.472      35.053652      35.053652      35.053652      1.4464667      3816.364       4995.6801      3248.415     
     17300   17300          300.37525      3469.8658      544.95766     -1639.452       2697.1275     -4336.5795      652.67128      1969.1954     -2059.8716      15.296965     -1031.3176     -1625.1524     -2257.4016     -293.16702      43166.37       35.079105      35.079105      35.079105      1.4433203      4235.8456      2014.4526      4159.2992    
     17400   17400          309.44211      3290.5584      533.18629     -1541.456       2778.5406     -4319.9966      677.28347      1961.1329     -2062.7695      15.252001     -1022.0115     -1630.7918     -2258.092      -292.72708      43231.244      35.09667       35.09667       35.09667       1.4411544      2810.6837      4478.4985      2582.4929    
     17500   17500          302.23428      2533.6075      28.253768     -1570.2078      2713.8201     -4284.0279      653.96322      1999.6777     -2046.789       14.683687     -1028.3471     -1620.808      -2256.4084     -292.53218      43260.046      35.104462      35.104462      35.104462      1.4401949      1977.9858      3387.7258      2235.1109    
     17600   17600          289.56815      3157.3799      344.5004      -1648.7676      2600.0884     -4248.856       670.488        1995.1727     -2039.1455      15.808428     -1013.0823     -1621.4594     -2256.6379     -292.34634      43287.546      35.111899      35.111899      35.111899      1.43928        3627.417       3674.1236      2170.5991    
     17700   17700          302.97463      3297.9348      418.13659     -1659.8882      2720.4678     -4380.356       638.12011      1982.6984     -2054.4387      15.122005     -1079.2399     -1624.6508     -2257.9671     -292.90571      43204.878      35.089534      35.089534      35.089534      1.4420339      2731.2617      4583.1214      2579.4212    
     17800   17800          296.4668       3255.9039      374.90538     -1667.3757      2662.0328     -4329.4085      631.70404      1971.672      -2052.9937      14.763756     -1019.7635     -1620.2793     -2254.5119     -294.23382      43009.862      35.036659      35.036659      35.036659      1.4485724      729.96468      4721.5935      4316.1537    
     17900   17900          297.7073       3377.3374      421.10569     -1695.027       2673.1715     -4368.1985      639.49655      1912.2682     -2038.2918      14.44778      -1016.1132     -1625.009      -2254.997      -294.55614      42962.798      35.023874      35.023874      35.023874      1.4501592      2356.7071      4115.6809      3659.6242    
     18000   18000          293.19422      2976.9993      111.31696     -1757.3407      2632.6476     -4389.9883      629.53595      1890.7107     -2031.0566      14.730736     -1014.9764     -1625.0586     -2253.8741     -294.02584      43040.284      35.044917      35.044917      35.044917      1.4475485      3816.2112      2098.7297      3016.057     
     18100   18100          297.05125      2137.938      -389.30984     -1734.7421      2667.2807     -4402.0228      627.82311      1917.8762     -2030.5727      15.265748     -1058.4531     -1619.1122     -2254.8498     -293.27145      43150.999      35.074941      35.074941      35.074941      1.4438344      469.50079      3130.0225      2814.2908    
     18200   18200          305.53087      3263.6546      410.03543     -1644.8677      2743.4208     -4388.2884      648.63825      1934.1286     -2044.2181      14.890801     -1068.0976     -1618.3508     -2255.2795     -293.12263      43172.905      35.080876      35.080876      35.080876      1.4431018      3065.0361      4211.6898      2514.2377    
     18300   18300          296.51958      3588.6301      618.21304     -1640.7437      2662.5067     -4303.2504      689.20986      1927.0554     -2042.0807      15.152791     -1018.4754     -1618.5323     -2255.5801     -293.1955       43162.176      35.077969      35.077969      35.077969      1.4434605      3216.5932      3058.0049      4491.2922    
     18400   18400          303.84665      3153.8426      317.79492     -1672.8183      2728.2978     -4401.1161      639.45248      1922.1807     -2041.5321      14.422274     -1054.8004     -1623.4439     -2257.3951     -292.40828      43278.378      35.10942       35.10942       35.10942       1.4395849      3075.3204      3362.6401      3023.5673    
     18500   18500          295.36527      2136.8386     -398.59729     -1749.7322      2652.1419     -4401.8741      662.31048      1906.3443     -2052.2871      15.34598      -1057.3174     -1621.6652     -2254.6051     -291.88349      43356.189      35.130449      35.130449      35.130449      1.4370013      2323.3026      472.2433       3614.9699    
     18600   18600          292.99895      2390.6143     -303.01252     -1812.5067      2630.8942     -4443.401       646.68587      1882.3246     -2073.4098      14.458802     -1029.5255     -1630.4317     -2253.5033     -292.29041      43295.829      35.114139      35.114139      35.114139      1.4390046      3287.3725      2647.0827      1237.3875    
     18700   18700          297.62702      3149.8266      254.65293     -1732.3281      2672.4506     -4404.7786      643.46706      1927.838      -2068.369       14.92929      -1041.3177     -1625.262      -2256.0642     -292.56977      43254.488      35.102959      35.102959      35.102959      1.44038        4232.4415      3269.1899      1947.8483    
     18800   18800          299.93568      3984.8914      833.06156     -1673.8757      2693.1805     -4367.0562      656.86685      1945.8046     -2071.8794      15.438554     -1035.6369     -1621.1898     -2256.46       -293.36584      43137.114      35.071179      35.071179      35.071179      1.4442992      4408.7845      2047.2544      5498.6352    
     18900   18900          298.21341      2861.5182      141.79646     -1656.678       2677.7159     -4334.394       668.33916      1940.3928     -2044.5186      14.73425      -1041.6389     -1613.3331     -2258.3695     -293.64916      43095.495      35.059896      35.059896      35.059896      1.445694       1596.9729      3214.4356      3773.1463    
     19000   19000          299.55143      3764.9775      702.71391     -1662.2083      2689.7303     -4351.9385      649.94975      1913.8916     -2065.6034      14.843687     -989.49789     -1619.9606     -2255.5617     -293.82047      43070.368      35.053081      35.053081      35.053081      1.4465374      2206.6249      4300.1162      4788.1912    
     19100   19100          298.36491      3077.2907      263.68166     -1674.8611      2679.0763     -4353.9374      627.86007      1966.2145     -2064.8408      15.649736     -1016.0531     -1625.9393     -2256.8285     -292.97439      43194.75       35.086791      35.086791      35.086791      1.442372       3254.0425      2715.0444      3262.7852    
     19200   19200          298.06426      3111.3733      286.10171     -1680.5433      2676.3767     -4356.92        660.54781      1937.9029     -2059.1759      14.584026     -1033.6554     -1621.5542     -2255.5693     -291.98643      43340.904      35.12632       35.12632       35.12632       1.437508       2844.9931      2619.5818      3869.5451    
     19300   19300          299.95741      3038.6964      271.41118     -1652.0903      2693.3756     -4345.4659      637.20362      1924.1778     -2055.8339      14.696142     -983.08658     -1625.993      -2256.6301     -291.56225      43403.958      35.143346      35.143346      35.143346      1.4354197      2620.8039      4091.7928      2403.4924    
     19400   19400          303.16884      2135.6447     -244.96536     -1597.9556      2722.2117     -4320.1673      686.84097      1931.236      -2057.3217      14.964594     -1026.6522     -1616.6628     -2252.5721     -291.32038      43439.995      35.15307       35.15307       35.15307       1.4342289      3353.3191      618.13068      2435.4845    
     19500   19500          309.74078      2526.7099      20.92043      -1577.8406      2781.2224     -4359.063       674.37677      1898.5659     -2052.0763      14.257211     -1025.4598     -1615.4835     -2253.2433     -291.68114      43386.267      35.138571      35.138571      35.138571      1.436005       2264.423       2321.7575      2993.9492    
     19600   19600          299.44232      3072.7319      275.92187     -1667.4884      2688.7505     -4356.2389      641.28669      1968.1373     -2074.7852      15.457079     -1042.6803     -1611.3913     -2252.2632     -291.80765      43367.456      35.133492      35.133492      35.133492      1.4366279      2116.8995      2819.597       4281.699     
     19700   19700          297.99132      2462.1892     -164.71215     -1717.7545      2675.7217     -4393.4762      643.69998      1924.7435     -2058.8311      15.037291     -1045.589      -1620.1094     -2252.4276     -292.60023      43249.986      35.101741      35.101741      35.101741      1.4405299      2501.7249      2676.4017      2208.4411    
     19800   19800          298.84552      2542.6308     -101.19365     -1699.6108      2683.3918     -4383.0025      663.28691      1911.183      -2059.3242      14.169016     -1035.7657     -1623.494      -2253.0576     -293.58219      43105.326      35.062562      35.062562      35.062562      1.4453643      1806.7285      4160.9815      1660.1825    
     19900   19900          300.5219       2297.8946     -219.71987     -1661.0884      2698.4443     -4359.5327      648.81272      1946.4679     -2051.1109      14.954169     -1047.7084     -1616.8363     -2254.1119     -294.23313      43009.962      35.036686      35.036686      35.036686      1.448569       770.56725      3856.3493      2266.7671    
     20000   20000          305.34282      3940.4655      882.4691      -1584.7769      2741.7322     -4326.5092      670.81266      1944.8058     -2048.9093      14.576456     -1021.5095     -1627.214      -2259.0714     -294.76206      42932.783      35.015716      35.015716      35.015716      1.4511731      4174.4902      3968.7175      3678.1888    
     20100   20100          306.66627      4072.5545      1055.4453     -1500.0176      2753.6158     -4253.6334      643.51413      2023.78       -2026.9373      16.463066     -1022.8073     -1626.7313     -2260.9147     -294.12629      43025.585      35.040928      35.040928      35.040928      1.448043       3891.666       4679.1798      3646.8178    
     20200   20200          306.53076      3069.1948      422.79206     -1504.0727      2752.399      -4256.4717      661.48817      1971.1306     -2028.1235      14.51042      -981.38643     -1632.2657     -2261.8252     -293.97455      43047.793      35.046956      35.046956      35.046956      1.447296       2659.6315      1671.4934      4876.4595    
     20300   20300          302.00342      4089.2744      926.16309     -1642.0556      2711.7472     -4353.8027      655.30923      1948.2291     -2059.7621      14.376479     -1023.7829     -1628.1882     -2259.9842     -293.86698      43063.552      35.051232      35.051232      35.051232      1.4467664      4087.9884      1761.673       6418.1619    
     20400   20400          296.60518      2014.3313     -425.02665     -1694.0862      2663.2753     -4357.3615      645.58787      1962.6446     -2033.3989      14.564229     -1066.5667     -1623.841      -2256.3516     -292.94454      43199.152      35.087983      35.087983      35.087983      1.442225       2499.3278      1567.8925      1975.7735    
     20500   20500          301.92107      3018.0553      193.63887     -1710.6907      2711.0077     -4421.6985      604.47374      1933.8026     -2041.5191      14.892104     -1055.4792     -1625.1288     -2252.7398     -292.49712      43265.231      35.105865      35.105865      35.105865      1.4400223      3544.2965      2009.976       3499.8935    
     20600   20600          295.77296      2521.435      -63.200431     -1652.2934      2655.8026     -4308.0961      663.86015      1985.5411     -2059.4945      15.043702     -1040.9369     -1620.3892     -2251.7205     -292.84309      43214.118      35.092035      35.092035      35.092035      1.4417255      2260.4497      2661.4862      2642.369     
     20700   20700          305.52202      3329.2677      499.54301     -1593.4861      2743.3413     -4336.8274      643.38846      1957.1201     -2052.4639      14.726572     -1022.6299     -1620.95       -2256.0188     -293.56885      43107.284      35.063093      35.063093      35.063093      1.4452986      2039.6404      4160.2723      3787.8905    
     20800   20800          302.33001      4114.7033      948.62706     -1635.6996      2714.6796     -4350.3792      642.81174      1951.659      -2050.9262      14.695468     -1029.3639     -1620.859      -2258.3963     -293.85131      43065.847      35.051854      35.051854      35.051854      1.4466893      4417.639       3640.0592      4286.4117    
     20900   20900          297.8555       4094.341       842.91688     -1729.1266      2674.5021     -4403.6288      633.69257      1907.3543     -2037.8678      14.93417      -1048.6386     -1617.2358     -2255.8676     -293.79352      43074.318      35.054152      35.054152      35.054152      1.4464047      2225.0374      4358.1827      5699.8029    
     21000   21000          293.43797      2351.8768     -241.10828     -1718.348       2634.8363     -4353.1843      629.89241      1932.2787     -2026.445       15.466528     -1042.0585     -1610.7385     -2251.58       -293.83269      43068.577      35.052595      35.052595      35.052595      1.4465975      2297.3373      3198.9038      1559.3892    
     21100   21100          300.00038      3799.4649      738.39506     -1643.153       2693.7615     -4336.9144      621.77351      1949.2956     -2040.799       13.832161     -1010.128      -1618.0319     -2252.8567     -294.4419       42979.467      35.028403      35.028403      35.028403      1.4495968      4044.9268      5870.5719      1482.8959    
     21200   21200          294.90354      3071.9084      310.27217     -1616.7963      2647.996      -4264.7922      640.28907      2032.7718     -2055.0974      15.41658      -1023.2152     -1620.281      -2254.676      -294.20336      43014.313      35.037867      35.037867      35.037867      1.4484225      2461.1406      3563.519       3191.0655    
[...]
    495200   495200         300.31591      3889.5398      745.21138     -1675.3948      2696.5947     -4371.9895      633.4654       1965.4758     -2055.9688      14.502584     -1054.481      -1620.0649     -2254.9186     -296.55865      42672.691      34.944863      34.944863      34.944863      1.460018       3814.4848      4062.3172      3791.8173    
    495300   495300         301.62159      3867.2429      726.1841      -1681.784       2708.3187     -4390.1027      661.49761      1913.6982     -2033.7502      13.73411      -1064.4541     -1624.742      -2256.0862     -296.40617      42694.643      34.950854      34.950854      34.950854      1.4592673      3616.3532      3314.3382      4671.0374    
    495400   495400         305.21113      3880.9928      819.43066     -1602.911       2740.5498     -4343.4607      641.38005      1966.4297     -2029.6417      14.164596     -1054.6886     -1622.1925     -2258.9123     -295.69499      42797.329      34.978852      34.978852      34.978852      1.455766       5137.9055      3331.3882      3173.6847    
    495500   495500         301.86832      3572.3868      688.07704     -1551.3006      2710.534      -4261.8347      673.80963      2046.6494     -2046.1362      16.156466     -1059.8194     -1630.4499     -2262.0447     -294.42023      42982.63       35.029262      35.029262      35.029262      1.4494901      2391.4448      4337.1156      3988.6       
    495600   495600         307.83859      3885.1463      811.90999     -1626.269       2764.1423     -4390.4113      633.37045      1936.0307     -2032.3709      15.14568      -1056.6315     -1627.2872     -2258.6686     -294.08868      43031.087      35.042421      35.042421      35.042421      1.4478579      3765.1653      3661.77        4228.5035    
    495700   495700         298.52431      2337.8939     -225.61036     -1689.7118      2680.5075     -4370.2193      661.29142      1933.7254     -2043.4059      14.165903     -1060.903      -1620.3768     -2254.7163     -294.70681      42940.833      35.017905      35.017905      35.017905      1.450901       1862.0585      3178.1012      1973.522     
    495800   495800         296.04424      3373.5696      394.33402     -1712.0809      2658.2385     -4370.3194      669.83978      1935.6324     -2037.1768      14.650822     -1082.8721     -1614.2129     -2256.1805     -295.58492      42813.266      34.983194      34.983194      34.983194      1.4552241      3263.5488      1870.6126      4986.5474    
    495900   495900         303.96369      2142.8895     -375.70375     -1709.7914      2729.3488     -4439.1402      651.20361      1923.2558     -2034.4876      14.463985     -1119.4926     -1616.708      -2257.3754     -296.45033      42688.283      34.949119      34.949119      34.949119      1.4594847      1339.356       3352.9281      1736.3844    
    496000   496000         300.54336      3182.7176      281.88982     -1693.2497      2698.637      -4391.8867      637.37055      1968.4258     -2045.2933      15.69814      -1093.7725     -1616.8947     -2257.4207     -297.39718      42552.374      34.911989      34.911989      34.911989      1.4641462      4082.2342      3653.3681      1812.5504    
    496100   496100         310.64958      4008.0898      862.9768      -1615.8503      2789.3827     -4405.2331      655.92558      1915.9941     -2052.6772      14.282255     -1055.7847     -1625.6697     -2257.3034     -298.41986      42406.547      34.872063      34.872063      34.872063      1.4691811      3342.027       4190.826       4491.4164    
    496200   496200         305.14629      2216.9967     -234.22681     -1609.6567      2739.9676     -4349.6242      684.52828      1928.0392     -2025.0034      14.794497     -1074.4664     -1620.7096     -2256.8068     -297.48366      42540.003      34.908606      34.908606      34.908606      1.464572       2427.7638      1754.41        2468.8162    
    496300   496300         295.30792      3194.0484      284.74439     -1707.0255      2651.627      -4358.6525      648.84971      1967.4502     -2035.8182      15.013152     -1070.7605     -1626.3973     -2256.9895     -295.96397      42758.433      34.968252      34.968252      34.968252      1.4570903      3277.1568      4768.9973      1535.9913    
    496400   496400         292.83409      1197.0436     -996.2409      -1745.4186      2629.4139     -4374.8325      673.59363      1998.9868     -2049.4953      15.301193     -1137.578      -1620.8607     -2254.7801     -294.89111      42913.996      35.010608      35.010608      35.010608      1.4518084      1334.4989      1103.347       1153.285     
    496500   496500         301.84513      2884.0456      84.632499     -1717.3648      2710.3258     -4427.6906      645.38614      1944.6011     -2070.8637      14.790558     -1081.7741     -1625.1814     -2254.6492     -295.38233      42842.629      34.991189      34.991189      34.991189      1.4542268      3449.6573      1918.1792      3284.3002    
    496600   496600         300.19707      1833.3543     -539.11542     -1685.356       2695.5276     -4380.8836      693.14719      1942.0109     -2046.0376      15.199915     -1113.7206     -1617.4782     -2254.0051     -295.19374      42870          34.99864       34.99864       34.99864       1.4532983      1783.0109      1541.4281      2175.6238    
    496700   496700         304.50239      3834.1611      718.8598      -1671.2695      2734.1858     -4405.4553      651.38123      1921.4341     -2050.9148      14.776055     -1061.2732     -1625.5762     -2255.2825     -296.06392      42743.999      34.964317      34.964317      34.964317      1.4575823      3165.4298      3167.7259      5169.3276    
    496800   496800         299.38909      3631.0912      586.968       -1671.7512      2688.2725     -4360.0238      653.50979      1990.3424     -2052.1282      14.743938     -1080.8926     -1629.2276     -2256.3715     -296.69582      42652.963      34.939477      34.939477      34.939477      1.4606933      3209.2901      3686.2598      3997.7235    
    496900   496900         302.46565      3494.0221      481.37935     -1691.2454      2715.8976     -4407.1431      666.92978      1912.9014     -2062.146       14.232112     -1049.0604     -1632.1651     -2257.8348     -296.80926      42636.661      34.935025      34.935025      34.935025      1.4612518      4755.6964      2490.3624      3236.0076    
    497000   497000         302.03199      2499.9888     -160.58157     -1716.9371      2712.0037     -4428.9408      654.57999      1926.2925     -2049.4814      14.337331     -1083.0303     -1634.0955     -2257.5434     -296.45977      42686.924      34.948748      34.948748      34.948748      1.4595312      2463.1379      1380.8525      3655.9758    
    497100   497100         298.43553      4512.0906      1078.377      -1730.9558      2679.7103     -4410.6661      607.67704      1962.6776     -2065.7496      14.927132     -1042.2274     -1632.6534     -2255.3175     -296.42249      42692.293      34.950213      34.950213      34.950213      1.4593477      3682.832       5744.0057      4109.4341    
    497200   497200         299.39074      3690.4696      647.93797     -1650.1022      2688.2873     -4338.3896      672.28089      1983.4622     -2049.3913      15.208111     -1069.9773     -1632.3833     -2257.589      -296.38794      42697.27       34.951571      34.951571      34.951571      1.4591776      3376.6331      3632.9658      4061.8098    
    497300   497300         309.91647      3675.055       694.03102     -1590.9118      2782.7999     -4373.7118      652.81333      1969.708      -2051.9662      15.835156     -1073.2225     -1628.4594     -2258.4202     -296.84177      42631.991      34.93375       34.93375       34.93375       1.4614119      3097.8955      4151.8702      3775.3991    
    497400   497400         299.6555       3434.6744      492.62115     -1641.4007      2690.6647     -4332.0654      662.16991      1986.6674     -2035.5293      15.595029     -1074.571      -1629.5888     -2256.8086     -297.04568      42602.726      34.925754      34.925754      34.925754      1.4624158      3778.1455      3829.7674      2696.1104    
    497500   497500         305.34226      2541.5955     -117.93727     -1697.5502      2741.7272     -4439.2774      653.28546      1899.938      -2041.7399      14.594911     -1089.2589     -1621.6724     -2254.4245     -296.95611      42615.576      34.929265      34.929265      34.929265      1.4619748      2765.7182      2971.8502      1887.218     
    497600   497600         302.46973      2697.6448     -34.9739       -1718.2527      2715.9342     -4434.1869      640.9197       1970.1608     -2064.9375      15.204083     -1128.4349     -1612.7751     -2254.324      -295.77757      42785.38       34.975597      34.975597      34.975597      1.4561726      2712.2619      1167.407       4213.2653    
    497700   497700         296.71114      2269.6632     -300.40391     -1721.2775      2664.2267     -4385.5042      680.95618      1928.8043     -2048.016       14.450719     -1097.7668     -1612.5109     -2251.4219     -294.81019      42925.775      35.013811      35.013811      35.013811      1.45141        1750.6741      1878.0738      3180.2415    
    497800   497800         298.51838      1782.4535     -570.49112     -1686.0469      2680.4543     -4366.5012      639.82171      1981.8778     -2030.0792      15.370535     -1102.27       -1618.4232     -2252.7988     -294.8923       42913.823      35.010561      35.010561      35.010561      1.4518142      74.541886      3631.0293      1641.7893    
    497900   497900         305.05839      3083.2371      355.25911     -1567.6644      2739.1783     -4306.8427      675.83082      1937.6783     -2034.9526      14.408346     -1033.7771     -1615.2765     -2250.7539     -295.92484      42764.087      34.969794      34.969794      34.969794      1.4568977      3611.8976      2765.2771      2872.5365    
    498000   498000         312.94425      2788.0278      221.92513     -1517.6561      2809.987      -4327.643       645.36008      1967.7368     -2028.2219      14.359237     -1050.8733     -1620.1482     -2255.8557     -295.7937       42783.046      34.974961      34.974961      34.974961      1.456252       2286.6584      2908.3046      3169.1205    
    498100   498100         309.67416      2713.7487      104.48769     -1593.9336      2780.6242     -4374.5578      661.0358       1923.2156     -2020.3519      14.023318     -1077.1103     -1618.093      -2257.2773     -294.89046      42914.09       35.010633      35.010633      35.010633      1.4518052      3499.9841      1348.9538      3292.3082    
    498200   498200         300.05747      3113.9891      273.07192     -1678.9796      2694.2741     -4373.2536      660.65392      1956.1574     -2038.836       14.876087     -1099.3805     -1611.8539     -2254.8706     -294.41663      42983.156      35.029405      35.029405      35.029405      1.4494724      3983.1183      3264.3696      2094.4792    
    498300   498300         296.62131      3414.3758      413.75466     -1721.7967      2663.4201     -4385.2169      607.1898       1964.4031     -2040.5645      14.124861     -1049.5547     -1626.5604     -2254.2549     -295.07867      42886.718      35.003188      35.003188      35.003188      1.4527318      3597.7971      2547.1891      4098.1412    
    498400   498400         302.99798      4051.1017      825.09426     -1703.9658      2720.6775     -4424.6433      614.9857       1935.2608     -2055.7013      15.38205      -1049.1147     -1628.12       -2257.3358     -295.63138      42806.538      34.981361      34.981361      34.981361      1.4554529      4594.1017      2406.4046      5152.7989    
    498500   498500         304.6576       4299.4705      1045.4003     -1638.3191      2735.5795     -4373.8986      607.10352      2001.0925     -2050.1745      15.808647     -1071.4007     -1619.9977     -2256.3303     -295.67486      42800.243      34.979646      34.979646      34.979646      1.4556669      4661.7457      3561.3609      4675.305     
    498600   498600         302.73255      2829.5845      195.56301     -1572.1731      2718.2941     -4290.4673      672.79602      1997.5433     -2040.5445      14.377311     -1053.8156     -1623.3388     -2257.4851     -295.42126      42836.984      34.989652      34.989652      34.989652      1.4544184      3017.5399      3123.1566      2348.057     
    498700   498700         311.44704      3471.5661      605.05798     -1568.7486      2796.5432     -4365.2918      624.37077      1973.2083     -2022.8246      15.299275     -1075.9587     -1623.3742     -2256.0127     -294.74135      42935.801      35.016537      35.016537      35.016537      1.4510711      2739.6017      4334.2445      3340.8521    
    498800   498800         294.04563      3639.5905      577.38845     -1700.713       2640.2926     -4341.0056      643.5671       1974.8903     -2037.7507      14.852733     -1058.7893     -1623.2604     -2254.5153     -294.86008      42918.511      35.011836      35.011836      35.011836      1.4516556      4708.8716      3617.5166      2592.3834    
    498900   498900         293.65185      3847.1315      665.7192      -1739.3323      2636.7568     -4376.0891      656.17293      1937.1744     -2030.3541      14.05438      -1070.2804     -1625.558      -2257.2982     -295.22231      42865.851      34.99751       34.99751       34.99751       1.4534389      4324.1765      4696.7576      2520.4604    
    499000   499000         302.44979      2805.2652      31.040256     -1721.1783      2715.7552     -4436.9335      631.5168       1887.7347     -2037.9825      13.838829     -1050.1681     -1623.2132     -2258.66       -295.47597      42829.053      34.987493      34.987493      34.987493      1.4546877      756.90692      3768.0335      3890.8552    
    499100   499100         301.19822      3079.7638      270.38479     -1654.2882      2704.5171     -4358.8053      647.59876      1940.1325     -2017.6183      13.953946     -1056.6581     -1627.2231     -2258.991      -295.3228       42851.265      34.99354       34.99354       34.99354       1.4539337      3021.254       3000.9546      3217.0828    
    499200   499200         301.1116       2060.9057     -327.75724     -1619.7848      2703.7393     -4323.5241      691.65983      1963.3707     -2041.9562      14.924958     -1074.4595     -1620.5325     -2256.5315     -294.38986      42987.065      35.030467      35.030467      35.030467      1.4493406      1804.0922      1661.7889      2716.8359    
    499300   499300         303.11992      2534.3838     -5.269573      -1596.8702      2721.7724     -4318.6426      685.56139      1943.654      -2031.0729      14.268824     -1060.2263     -1616.6842     -2254.1434     -293.88323      43061.17       35.050585      35.050585      35.050585      1.4468464      1400.6923      4152.8224      2049.6368    
    499400   499400         299.70814      2034.6754     -354.91873     -1637.1973      2691.1373     -4328.3346      651.57271      1970.0133     -2038.1917      13.974895     -1065.4784     -1609.3331     -2250.8924     -292.85273      43212.696      35.09165       35.09165       35.09165       1.441773       1587.4837      2644.1123      1872.4301    
    499500   499500         291.27957      1199.6161     -961.95868     -1718.5036      2615.4556     -4333.9593      665.74432      2009.9426     -2051.0477      14.910231     -1101.9719     -1617.8925     -2253.6443     -292.647        43243.073      35.099871      35.099871      35.099871      1.4407602      2658.3164      1106.0707     -165.53871    
    499600   499600         302.07389      3279.8468      335.492       -1721.6463      2712.3799     -4434.0262      634.40168      1925.5822     -2048.4115      13.433483     -1075.2562     -1625.5186     -2258.2573     -294.25685      43006.494      35.035744      35.035744      35.035744      1.4486858      3614.3594      2755.4529      3469.7281    
    499700   499700         298.77582      3836.9312      737.88155     -1651.3788      2682.7659     -4334.1446      667.22263      1964.1833     -2023.5634      14.267486     -1078.095      -1621.5096     -2256.65       -296.38558      42697.61       34.951664      34.951664      34.951664      1.4591659      3931.015       3227.112       4352.6667    
    499800   499800         307.07282      3414.5174      521.79283     -1591.4943      2757.2663     -4348.7606      643.961        1988.8878     -2034.8169      14.890251     -1088.5668     -1618.3173     -2254.7987     -298.19979      42437.842      34.880639      34.880639      34.880639      1.4680977      3504.2214      3180.1734      3559.1575    
    499900   499900         300.00594      3652.4906      597.25183     -1656.1143      2693.8114     -4349.9257      642.02372      1948.6847     -2015.1611      13.973968     -1060.8601     -1624.3017     -2254.2852     -299.15334      42302.572      34.843539      34.843539      34.843539      1.4727922      3899.3041      3982.7798      3075.3879    
    500000   500000         297.7971       2876.0092      27.402065     -1755.0534      2673.9778     -4429.0312      638.80361      1913.3979     -2026.3875      14.432836     -1087.5508     -1626.24       -2255.4871     -297.78863      42496.438      34.896685      34.896685      34.896685      1.4660734      2146.5443      2965.8344      3515.6489    
Loop time of 1026.65 on 1 procs for 500000 steps with 3620 atoms

Performance: 42.079 ns/day, 0.570 hours/ns, 487.023 timesteps/s, 1.763 Matom-step/s
99.9% CPU use with 1 MPI tasks x 1 OpenMP threads

MPI task timing breakdown:
Section |  min time  |  avg time  |  max time  |%varavg| %total
---------------------------------------------------------------
Pair    | 67.63      | 67.63      | 67.63      |   0.0 |  6.59
Bond    | 112.2      | 112.2      | 112.2      |   0.0 | 10.93
Kspace  | 472.29     | 472.29     | 472.29     |   0.0 | 46.00
Neigh   | 40.292     | 40.292     | 40.292     |   0.0 |  3.92
Comm    | 11.181     | 11.181     | 11.181     |   0.0 |  1.09
Output  | 3.5669     | 3.5669     | 3.5669     |   0.0 |  0.35
Modify  | 290.33     | 290.33     | 290.33     |   0.0 | 28.28
Other   |            | 29.15      |            |       |  2.84

Nlocal:           3620 ave        3620 max        3620 min
Histogram: 1 0 0 0 0 0 0 0 0 0
Nghost:          12838 ave       12838 max       12838 min
Histogram: 1 0 0 0 0 0 0 0 0 0
Neighs:              0 ave           0 max           0 min
Histogram: 1 0 0 0 0 0 0 0 0 0
FullNghs:  1.95895e+06 ave 1.95895e+06 max 1.95895e+06 min
Histogram: 1 0 0 0 0 0 0 0 0 0

Total # of neighbors = 1958954
Ave neighs/atom = 541.14751
Ave special neighs/atom = 5.9723757
Neighbor list builds = 11303
Dangerous builds = 0

# --- Cleanup ---
unfix npt_fix
unfix shake_fix
undump dump_npt

# --- Write Output ---
write_dump all custom /home/alexzhao/PolyJarvis/data/PVC4/lammps/mechanical/bm_series/bm_P3000/bm_P3000_last.dump id type mol x y z xu yu zu vx vy vz modify sort id
write_data /home/alexzhao/PolyJarvis/data/PVC4/lammps/mechanical/bm_series/bm_P3000/bm_P3000_out.data
System init for write_data ...
PPPM Kokkos initialization ...
  using 12-bit tables for long-range coulomb
  G vector (1/distance) = 0.29749666
  grid = 24 24 24
  stencil order = 5
  estimated absolute RMS force accuracy = 0.00034793344
  estimated relative force accuracy = 1.0477912e-06
  using double precision cuFFT
  3d grid and FFT values/proc = 29791 13824
Generated 6 of 6 mixed pair_coeff terms from sixthpower/sixthpower mixing rule

print "STAGE COMPLETE: NPT T=300.0->300.0K P=3000.0->3000.0atm steps=500000"
STAGE COMPLETE: NPT T=300.0->300.0K P=3000.0->3000.0atm steps=500000
quit
