units real
atom_style full
boundary p p p

# --- Force Field Styles ---
pair_style lj/class2/coul/long 9.5 9.5
kspace_style pppm 1e-6
dielectric 1.000000
bond_style class2
angle_style class2
dihedral_style class2
improper_style class2
special_bonds lj/coul 0 0 1
pair_modify mix sixthpower tail yes
neighbor 2.0 bin
neigh_modify delay 0 every 1 check yes
neigh_modify one 4000
# KOKKOS: package loaded via -pk kokkos on the command line

read_data /home/arz2/PolyJarvis/data/PSU2/lammps/equil/npt_cool/npt_cool_out.data
Reading data file ...
  orthogonal box = (4.926194 4.926194 4.926194) to (56.967387 56.967387 56.967387)
  1 by 1 by 1 MPI processor grid
  reading atoms ...
  10820 atoms
  reading velocities ...
  10820 velocities
  scanning bonds ...
  4 = max bonds/atom
  scanning angles ...
  16 = max angles/atom
  scanning dihedrals ...
  38 = max dihedrals/atom
  scanning impropers ...
  12 = max impropers/atom
  orthogonal box = (4.926194 4.926194 4.926194) to (56.967387 56.967387 56.967387)
  1 by 1 by 1 MPI processor grid
  reading bonds ...
  11610 bonds
  reading angles ...
  19600 angles
  reading dihedrals ...
  29180 dihedrals
  reading impropers ...
  8000 impropers
Finding 1-2 1-3 1-4 neighbors ...
  special bond factors lj:    0        0        1       
  special bond factors coul:  0        0        1       
     4 = max # of 1-2 neighbors
    10 = max # of 1-3 neighbors
    14 = max # of special neighbors
  special bonds CPU = 0.006 seconds
  read_data CPU = 0.420 seconds
include /home/arz2/PolyJarvis/data/PSU2/lammps/equil/emc_build.params
# LAMMPS parameters created by EMC v9.4.4, build Jul 31 2025 20:33:44

# Variables

variable	seed		index	820419
variable	ntotal		index	10820
variable	fshape		index	1
variable	output		index	emc_build
variable	field		index	pcff/pcff
variable	location1	index	/home/arz2/emc/field/
variable	nav		index	0.6022141179
variable	temperature	index	300
variable	radius		index	5
variable	nrelax		index	100
variable	weight_nonbond	index	0.0001
variable	weight_bond	index	0.0001
variable	weight_focus	index	1
variable	cutoff		index	9.5
variable	charge_cutoff	index	9.5
variable	kappa		index	4
variable	density1	index	0.62
variable	lprevious	index	0
variable	lphase		index	61.8935814259
variable	f_poly		index	10
variable	chem_repeat	index	*Oc1ccc(C(C)(C)c2ccc(Oc3ccc(S(=O)(=O)c4ccc(*)cc4)cc3)cc2)cc1
variable	chem_cap	index	*[H]
variable	lg_repeat	index	54
variable	lg_cap		index	1
variable	norm_poly	index	100
variable	l_poly		index	1082
variable	mg_repeat	index	414.52744
variable	mg_cap		index	0
variable	m_poly		index	8290.5488
variable	n_poly		index	10
variable	mtotal		index	88527.7574
variable	nphase1		index	10820
variable	mphase1		index	88527.7574
variable	vphase1		index	237102.886232
variable	lbox		index	61.8935814259
variable	lphase1		index	61.8935814259
variable	lxx		index	61.8935814259
variable	lyy		index	61.8935814259
variable	lzz		index	61.8935814259
variable	lzy		index	0
variable	lzx		index	0
variable	lyx		index	0
variable	vtotal		index	237102.886232
variable	nl_poly		index	10

# Types

variable	type_c		index	1
variable	type_cp		index	2
variable	type_hc		index	3
variable	type_ho		index	4
variable	type_oe		index	5
variable	type_oc		index	6
variable	type_oh		index	7
variable	type_sf		index	8

variable	type_bond_c_c	index	1
variable	type_bond_c_cp	index	2
variable	type_bond_c_hc	index	3
variable	type_bond_cp_cp	index	4
variable	type_bond_cp_hc	index	5
variable	type_bond_cp_oc	index	6
variable	type_bond_cp_oh	index	7
variable	type_bond_cp_sf	index	8
variable	type_bond_ho_oh	index	9
variable	type_bond_oe_sf	index	10

variable	type_angle_c_c_c index	1
variable	type_angle_c_c_cp index	2
variable	type_angle_c_c_hc index	3
variable	type_angle_c_cp_cp index	4
variable	type_angle_cp_c_cp index	5
variable	type_angle_cp_cp_cp index	6
variable	type_angle_cp_cp_hc index	7
variable	type_angle_cp_cp_oc index	8
variable	type_angle_cp_cp_oh index	9
variable	type_angle_cp_cp_sf index	10
variable	type_angle_cp_oc_cp index	11
variable	type_angle_cp_oh_ho index	12
variable	type_angle_cp_sf_cp index	13
variable	type_angle_cp_sf_oe index	14
variable	type_angle_hc_c_hc index	15
variable	type_angle_oe_sf_oe index	16

# Clusters

variable	n0_poly		index	1
variable	n1_poly		index	10
variable	nl_poly		index	10

# Flags

variable	flag_charged	index	1

# Masses

mass		1    12.01115  # c
mass		2    12.01115  # cp
mass		3     1.00797  # hc
mass		4     1.00797  # ho
mass		5    15.99940  # o=
mass		6    15.99940  # oc
mass		7    15.99940  # oh
mass		8    32.06400  # sf

# Potentials

pair_modify	mix sixthpower tail yes
special_bonds	lj/coul 0 0 1

# Pair Coeffs

pair_coeff	 1  1    0.05400    4.01000  # c,c
pair_coeff	 2  2    0.06400    4.01000  # cp,cp
pair_coeff	 3  3    0.02000    2.99500  # hc,hc
pair_coeff	 4  4    0.01300    1.09800  # ho,ho
pair_coeff	 5  5    0.06000    3.53500  # o=,o=
pair_coeff	 6  6    0.24000    3.53500  # oc,oc
pair_coeff	 7  7    0.24000    3.53500  # oh,oh
pair_coeff	 8  8    0.25000    4.02700  # sf,sf

# Bond Coeffs

bond_coeff	 1    1.53000  299.67000 -501.77000  679.81000  # c,c
bond_coeff	 2    1.50100  321.90210 -521.82080  572.16280  # c,cp
bond_coeff	 3    1.10100  345.00000 -691.89000  844.60000  # c,hc
bond_coeff	 4    1.41700  470.83610 -627.61790 1327.63450  # cp,cp
bond_coeff	 5    1.09820  372.82510 -803.45260  894.31730  # cp,hc
bond_coeff	 6    1.37680  428.87980 -738.23510 1114.96550  # cp,oc
bond_coeff	 7    1.37680  428.87980 -738.23510 1114.96550  # cp,oh
bond_coeff	 8    1.72000  239.80240    0.00000    0.00000  # cp,sf
bond_coeff	 9    0.96500  532.50620 -1282.90500 2004.76580  # ho,oh
bond_coeff	10    1.43080  743.76000    0.00000    0.00000  # o=,sf

# Angle Coeffs

angle_coeff	 1  112.67000   39.51600   -7.44300   -9.55830  # c,c,c
angle_coeff	 2  108.40000   43.95940   -8.39240   -9.33790  # c,c,cp
angle_coeff	 3  110.77000   41.45300  -10.60400    5.12900  # c,c,hc
angle_coeff	 4  120.05000   44.71480  -22.73520    0.00000  # c,cp,cp
angle_coeff	 5  111.00000   44.32340   -9.44540    0.00000  # cp,c,cp
angle_coeff	 6  118.90000   61.02260  -34.99310    0.00000  # cp,cp,cp
angle_coeff	 7  117.94000   35.15580  -12.46820    0.00000  # cp,cp,hc
angle_coeff	 8  123.42000   73.67810  -21.67870    0.00000  # cp,cp,oc
angle_coeff	 9  123.42000   73.67810  -21.67870    0.00000  # cp,cp,oh
angle_coeff	10  120.00000   60.00000    0.00000    0.00000  # cp,cp,sf
angle_coeff	11  109.50000   60.00000    0.00000    0.00000  # cp,oc,cp
angle_coeff	12  108.19000   53.12500   -8.50160    0.00000  # cp,oh,ho
angle_coeff	13  102.00000   58.00000    0.00000    0.00000  # cp,sf,cp
angle_coeff	14  113.10000   42.30000    0.00000    0.00000  # cp,sf,o=
angle_coeff	15  107.66000   39.64100  -12.92100   -2.43180  # hc,c,hc
angle_coeff	16  119.32900  135.00000    0.00000    0.00000  # o=,sf,o=

# BondBond Coeffs

angle_coeff	 1 bb    0.00000    1.53000    1.53000  # c,c,c
angle_coeff	 2 bb    0.00000    1.53000    1.50100  # c,c,cp
angle_coeff	 3 bb    3.38720    1.53000    1.10100  # c,c,hc
angle_coeff	 4 bb   12.06760    1.50100    1.41700  # c,cp,cp
angle_coeff	 5 bb    0.00000    1.50100    1.50100  # cp,c,cp
angle_coeff	 6 bb   68.28560    1.41700    1.41700  # cp,cp,cp
angle_coeff	 7 bb    1.07950    1.41700    1.09820  # cp,cp,hc
angle_coeff	 8 bb   48.47540    1.41700    1.37680  # cp,cp,oc
angle_coeff	 9 bb   48.47540    1.41700    1.37680  # cp,cp,oh
angle_coeff	10 bb    0.00000    1.41700    1.72000  # cp,cp,sf
angle_coeff	11 bb    0.00000    1.37680    1.37680  # cp,oc,cp
angle_coeff	12 bb   20.65770    1.37680    0.96500  # cp,oh,ho
angle_coeff	13 bb    0.00000    1.72000    1.72000  # cp,sf,cp
angle_coeff	14 bb    0.00000    1.72000    1.43080  # cp,sf,o=
angle_coeff	15 bb    5.33160    1.10100    1.10100  # hc,c,hc
angle_coeff	16 bb   40.00000    1.43080    1.43080  # o=,sf,o=

# BondAngle Coeffs

angle_coeff	 1 ba    8.01600    8.01600    1.53000    1.53000  # c,c,c
angle_coeff	 2 ba    0.00000    0.00000    1.53000    1.50100  # c,c,cp
angle_coeff	 3 ba   20.75400   11.42100    1.53000    1.10100  # c,c,hc
angle_coeff	 4 ba   47.05790   31.07710    1.50100    1.41700  # c,cp,cp
angle_coeff	 5 ba    0.00000    0.00000    1.50100    1.50100  # cp,c,cp
angle_coeff	 6 ba   28.87080   28.87080    1.41700    1.41700  # cp,cp,cp
angle_coeff	 7 ba   20.00330   24.21830    1.41700    1.09820  # cp,cp,hc
angle_coeff	 8 ba   58.47900  107.68060    1.41700    1.37680  # cp,cp,oc
angle_coeff	 9 ba   58.47900  107.68060    1.41700    1.37680  # cp,cp,oh
angle_coeff	10 ba    0.00000    0.00000    1.41700    1.72000  # cp,cp,sf
angle_coeff	11 ba    0.00000    0.00000    1.37680    1.37680  # cp,oc,cp
angle_coeff	12 ba   53.86140   23.92240    1.37680    0.96500  # cp,oh,ho
angle_coeff	13 ba    0.00000    0.00000    1.72000    1.72000  # cp,sf,cp
angle_coeff	14 ba    0.00000    0.00000    1.72000    1.43080  # cp,sf,o=
angle_coeff	15 ba   18.10300   18.10300    1.10100    1.10100  # hc,c,hc
angle_coeff	16 ba    0.00000    0.00000    1.43080    1.43080  # o=,sf,o=

# Dihedral Coeffs

dihedral_coeff	 1    0.00000    0.00000    0.03160    0.00000   -0.16810    0.00000  # c,c,c,hc
dihedral_coeff	 2   -0.28020    0.00000   -0.06780    0.00000   -0.01220    0.00000  # c,c,cp,cp
dihedral_coeff	 3    0.00000    0.00000    4.40720    0.00000    0.00000    0.00000  # c,cp,cp,cp
dihedral_coeff	 4    0.00000    0.00000    1.55900    0.00000    0.00000    0.00000  # c,cp,cp,hc
dihedral_coeff	 5   -0.02280    0.00000    0.02800    0.00000   -0.18630    0.00000  # cp,c,c,hc
dihedral_coeff	 6   -0.28020    0.00000   -0.06780    0.00000   -0.01220    0.00000  # cp,c,cp,cp
dihedral_coeff	 7    8.36670    0.00000    1.19320    0.00000    0.00000    0.00000  # cp,cp,cp,cp
dihedral_coeff	 8    0.00000    0.00000    3.96610    0.00000    0.00000    0.00000  # cp,cp,cp,hc
dihedral_coeff	 9    0.00000    0.00000    4.84980    0.00000    0.00000    0.00000  # cp,cp,cp,oc
dihedral_coeff	10    0.00000    0.00000    4.84980    0.00000    0.00000    0.00000  # cp,cp,cp,oh
dihedral_coeff	11    0.00000    0.00000    3.00000    0.00000    0.00000    0.00000  # cp,cp,cp,sf
dihedral_coeff	12    0.00000    0.00000    1.80000    0.00000    0.00000    0.00000  # cp,cp,oc,cp
dihedral_coeff	13   -0.69000    0.00000    0.50970    0.00000    0.00950    0.00000  # cp,cp,oh,ho
dihedral_coeff	14    0.00000    0.00000    1.50000    0.00000    0.00000    0.00000  # cp,cp,sf,cp
dihedral_coeff	15    0.00000    0.00000    1.50000    0.00000    0.00000    0.00000  # cp,cp,sf,o=
dihedral_coeff	16    0.00000    0.00000    1.87690    0.00000    0.00000    0.00000  # hc,cp,cp,hc
dihedral_coeff	17    0.00000    0.00000    1.72340    0.00000    0.00000    0.00000  # hc,cp,cp,oc
dihedral_coeff	18    0.00000    0.00000    1.72340    0.00000    0.00000    0.00000  # hc,cp,cp,oh
dihedral_coeff	19    0.00000    0.00000    3.00000    0.00000    0.00000    0.00000  # hc,cp,cp,sf

# MiddleBondTorsion Coeffs

dihedral_coeff	 1 mbt  -14.87900   -3.65810   -0.31380    1.53000  # c,c,c,hc
dihedral_coeff	 2 mbt    0.00000    0.00000    0.00000    1.50100  # c,c,cp,cp
dihedral_coeff	 3 mbt    0.00000    9.17920    0.00000    1.41700  # c,cp,cp,cp
dihedral_coeff	 4 mbt    0.00000    3.94210    0.00000    1.41700  # c,cp,cp,hc
dihedral_coeff	 5 mbt    0.00000    0.00000    0.00000    1.53000  # cp,c,c,hc
dihedral_coeff	 6 mbt    0.00000    0.00000    0.00000    1.50100  # cp,c,cp,cp
dihedral_coeff	 7 mbt   27.59890   -2.31200    0.00000    1.41700  # cp,cp,cp,cp
dihedral_coeff	 8 mbt    0.00000   -1.15210    0.00000    1.41700  # cp,cp,cp,hc
dihedral_coeff	 9 mbt    0.00000    4.82550    0.00000    1.41700  # cp,cp,cp,oc
dihedral_coeff	10 mbt    0.00000    4.82550    0.00000    1.41700  # cp,cp,cp,oh
dihedral_coeff	11 mbt    0.00000    0.00000    0.00000    1.41700  # cp,cp,cp,sf
dihedral_coeff	12 mbt    0.00000    0.00000    0.00000    1.37680  # cp,cp,oc,cp
dihedral_coeff	13 mbt    1.15800    3.26970    3.51320    1.37680  # cp,cp,oh,ho
dihedral_coeff	14 mbt    0.00000    0.00000    0.00000    1.72000  # cp,cp,sf,cp
dihedral_coeff	15 mbt    0.00000    0.00000    0.00000    1.72000  # cp,cp,sf,o=
dihedral_coeff	16 mbt    0.00000    4.82280    0.00000    1.41700  # hc,cp,cp,hc
dihedral_coeff	17 mbt    0.00000    5.54320    0.00000    1.41700  # hc,cp,cp,oc
dihedral_coeff	18 mbt    0.00000    5.54320    0.00000    1.41700  # hc,cp,cp,oh
dihedral_coeff	19 mbt    0.00000    0.00000    0.00000    1.41700  # hc,cp,cp,sf

# EndBondTorsion Coeffs

dihedral_coeff	 1 ebt    0.24860    0.24220   -0.09250    0.08140    0.05910    0.22190    1.53000    1.10100  # c,c,c,hc
dihedral_coeff	 2 ebt    0.00000    0.00000    0.00000    0.00000    0.00000    0.00000    1.53000    1.41700  # c,c,cp,cp
dihedral_coeff	 3 ebt    0.00000    0.24210    0.00000    0.00000   -0.69180    0.00000    1.50100    1.41700  # c,cp,cp,cp
dihedral_coeff	 4 ebt    0.00000   -1.79700    0.00000    0.00000   -0.48790    0.00000    1.50100    1.09820  # c,cp,cp,hc
dihedral_coeff	 5 ebt    0.00000    0.00000    0.00000    0.00000    0.00000    0.00000    1.50100    1.10100  # cp,c,c,hc
dihedral_coeff	 6 ebt    0.00000    0.00000    0.00000    0.00000    0.00000    0.00000    1.50100    1.41700  # cp,c,cp,cp
dihedral_coeff	 7 ebt   -0.11850    6.32040    0.00000   -0.11850    6.32040    0.00000    1.41700    1.41700  # cp,cp,cp,cp
dihedral_coeff	 8 ebt    0.00000   -6.89580    0.00000    0.00000   -0.46690    0.00000    1.41700    1.09820  # cp,cp,cp,hc
dihedral_coeff	 9 ebt    0.00000    0.26550    0.00000    0.00000    4.89050    0.00000    1.41700    1.37680  # cp,cp,cp,oc
dihedral_coeff	10 ebt    0.00000    0.26550    0.00000    0.00000    4.89050    0.00000    1.41700    1.37680  # cp,cp,cp,oh
dihedral_coeff	11 ebt    0.00000    0.00000    0.00000    0.00000    0.00000    0.00000    1.41700    1.72000  # cp,cp,cp,sf
dihedral_coeff	12 ebt    0.00000    0.00000    0.00000    0.00000    0.00000    0.00000    1.41700    1.37680  # cp,cp,oc,cp
dihedral_coeff	13 ebt    0.90000   -1.34560    1.19000    3.41320    0.58730   -0.13230    1.41700    0.96500  # cp,cp,oh,ho
dihedral_coeff	14 ebt    0.00000    0.00000    0.00000    0.00000    0.00000    0.00000    1.41700    1.72000  # cp,cp,sf,cp
dihedral_coeff	15 ebt    0.00000    0.00000    0.00000    0.00000    0.00000    0.00000    1.41700    1.43080  # cp,cp,sf,o=
dihedral_coeff	16 ebt    0.00000   -0.68900    0.00000    0.00000   -0.68900    0.00000    1.09820    1.09820  # hc,cp,cp,hc
dihedral_coeff	17 ebt    0.00000   -1.58670    0.00000    0.00000    4.26410    0.00000    1.09820    1.37680  # hc,cp,cp,oc
dihedral_coeff	18 ebt    0.00000   -1.58670    0.00000    0.00000    4.26410    0.00000    1.09820    1.37680  # hc,cp,cp,oh
dihedral_coeff	19 ebt    0.00000    0.00000    0.00000    0.00000    0.00000    0.00000    1.09820    1.72000  # hc,cp,cp,sf

# AngleTorsion Coeffs

dihedral_coeff	 1 at   -0.24540    0.00000   -0.11360    0.31130    0.45160   -0.19880  112.67000  110.77000  # c,c,c,hc
dihedral_coeff	 2 at    0.00000    0.00000    0.00000    0.00000    0.00000    0.00000  108.40000  120.05000  # c,c,cp,cp
dihedral_coeff	 3 at    0.00000   -4.46830    0.00000    0.00000    3.89870    0.00000  120.05000  118.90000  # c,cp,cp,cp
dihedral_coeff	 4 at    0.00000   -0.12420    0.00000    0.00000    3.46010    0.00000  120.05000  117.94000  # c,cp,cp,hc
dihedral_coeff	 5 at    0.00000    0.00000    0.00000    0.00000    0.00000    0.00000  108.40000  110.77000  # cp,c,c,hc
dihedral_coeff	 6 at    0.00000    0.00000    0.00000    0.00000    0.00000    0.00000  111.00000  120.05000  # cp,c,cp,cp
dihedral_coeff	 7 at    1.97670    1.02390    0.00000    1.97670    1.02390    0.00000  118.90000  118.90000  # cp,cp,cp,cp
dihedral_coeff	 8 at    0.00000    2.50140    0.00000    0.00000    2.71470    0.00000  118.90000  117.94000  # cp,cp,cp,hc
dihedral_coeff	 9 at    0.00000   10.01550    0.00000    0.00000    1.74040    0.00000  118.90000  123.42000  # cp,cp,cp,oc
dihedral_coeff	10 at    0.00000   10.01550    0.00000    0.00000    1.74040    0.00000  118.90000  123.42000  # cp,cp,cp,oh
dihedral_coeff	11 at    0.00000    0.00000    0.00000    0.00000    0.00000    0.00000  118.90000  120.00000  # cp,cp,cp,sf
dihedral_coeff	12 at    0.00000    0.00000    0.00000    0.00000    0.00000    0.00000  123.42000  109.50000  # cp,cp,oc,cp
dihedral_coeff	13 at   -5.13600   -1.01220    0.00000    4.68520    0.02300   -0.59800  123.42000  108.19000  # cp,cp,oh,ho
dihedral_coeff	14 at    0.00000    0.00000    0.00000    0.00000    0.00000    0.00000  120.00000  102.00000  # cp,cp,sf,cp
dihedral_coeff	15 at    0.00000    0.00000    0.00000    0.00000    0.00000    0.00000  120.00000  113.10000  # cp,cp,sf,o=
dihedral_coeff	16 at    0.00000    2.45010    0.00000    0.00000    2.45010    0.00000  117.94000  117.94000  # hc,cp,cp,hc
dihedral_coeff	17 at    0.00000    1.87290    0.00000    0.00000    2.57060    0.00000  117.94000  123.42000  # hc,cp,cp,oc
dihedral_coeff	18 at    0.00000    1.87290    0.00000    0.00000    2.57060    0.00000  117.94000  123.42000  # hc,cp,cp,oh
dihedral_coeff	19 at    0.00000    0.00000    0.00000    0.00000    0.00000    0.00000  117.94000  120.00000  # hc,cp,cp,sf

# AngleAngleTorsion Coeffs

dihedral_coeff	 1 aat  -16.16400  112.67000  110.77000  # c,c,c,hc
dihedral_coeff	 2 aat    0.00000  108.40000  120.05000  # c,c,cp,cp
dihedral_coeff	 3 aat  -14.40970  120.05000  118.90000  # c,cp,cp,cp
dihedral_coeff	 4 aat    4.44440  120.05000  117.94000  # c,cp,cp,hc
dihedral_coeff	 5 aat    0.00000  108.40000  110.77000  # cp,c,c,hc
dihedral_coeff	 6 aat    0.00000  111.00000  120.05000  # cp,c,cp,cp
dihedral_coeff	 7 aat    0.00000  118.90000  118.90000  # cp,cp,cp,cp
dihedral_coeff	 8 aat   -4.81410  118.90000  117.94000  # cp,cp,cp,hc
dihedral_coeff	 9 aat  -21.02470  118.90000  123.42000  # cp,cp,cp,oc
dihedral_coeff	10 aat  -21.02470  118.90000  123.42000  # cp,cp,cp,oh
dihedral_coeff	11 aat    0.00000  118.90000  120.00000  # cp,cp,cp,sf
dihedral_coeff	12 aat    0.00000  123.42000  109.50000  # cp,cp,oc,cp
dihedral_coeff	13 aat   -4.60720  123.42000  108.19000  # cp,cp,oh,ho
dihedral_coeff	14 aat    0.00000  120.00000  102.00000  # cp,cp,sf,cp
dihedral_coeff	15 aat    0.00000  120.00000  113.10000  # cp,cp,sf,o=
dihedral_coeff	16 aat    0.35980  117.94000  117.94000  # hc,cp,cp,hc
dihedral_coeff	17 aat    4.22960  117.94000  123.42000  # hc,cp,cp,oc
dihedral_coeff	18 aat    4.22960  117.94000  123.42000  # hc,cp,cp,oh
dihedral_coeff	19 aat    0.00000  117.94000  120.00000  # hc,cp,cp,sf

# BondBond13 Coeffs

dihedral_coeff	 1 bb13    0.00000    1.53000    1.10100  # c,c,c,hc
dihedral_coeff	 2 bb13    0.00000    1.53000    1.41700  # c,c,cp,cp
dihedral_coeff	 3 bb13    2.50850    1.50100    1.41700  # c,cp,cp,cp
dihedral_coeff	 4 bb13    0.87430    1.50100    1.09820  # c,cp,cp,hc
dihedral_coeff	 5 bb13    0.00000    1.50100    1.10100  # cp,c,c,hc
dihedral_coeff	 6 bb13    0.00000    1.50100    1.41700  # cp,c,cp,cp
dihedral_coeff	 7 bb13   53.00000    1.41700    1.41700  # cp,cp,cp,cp
dihedral_coeff	 8 bb13   -6.27410    1.41700    1.09820  # cp,cp,cp,hc
dihedral_coeff	 9 bb13   -2.24360    1.41700    1.37680  # cp,cp,cp,oc
dihedral_coeff	10 bb13   -2.24360    1.41700    1.37680  # cp,cp,cp,oh
dihedral_coeff	11 bb13    0.00000    1.41700    1.72000  # cp,cp,cp,sf
dihedral_coeff	12 bb13    0.00000    1.41700    1.37680  # cp,cp,oc,cp
dihedral_coeff	13 bb13    1.15900    1.41700    0.96500  # cp,cp,oh,ho
dihedral_coeff	14 bb13    0.00000    1.41700    1.72000  # cp,cp,sf,cp
dihedral_coeff	15 bb13    0.00000    1.41700    1.43080  # cp,cp,sf,o=
dihedral_coeff	16 bb13   -1.70770    1.09820    1.09820  # hc,cp,cp,hc
dihedral_coeff	17 bb13    2.05170    1.09820    1.37680  # hc,cp,cp,oc
dihedral_coeff	18 bb13    2.05170    1.09820    1.37680  # hc,cp,cp,oh
dihedral_coeff	19 bb13    0.00000    1.09820    1.72000  # hc,cp,cp,sf

# Improper Coeffs

improper_coeff	 1    0.00000    0.00000  # c,c,c,cp
improper_coeff	 2    0.00000    0.00000  # c,c,cp,cp
improper_coeff	 3    0.00000    0.00000  # c,c,hc,hc
improper_coeff	 4    0.00000    0.00000  # c,hc,hc,hc
improper_coeff	 5    7.81530    0.00000  # cp,c,cp,cp
improper_coeff	 6    4.89120    0.00000  # cp,cp,cp,hc
improper_coeff	 7   13.04210    0.00000  # cp,cp,cp,oc
improper_coeff	 8   13.04210    0.00000  # cp,cp,cp,oh
improper_coeff	 9    0.00000    0.00000  # cp,cp,cp,sf
improper_coeff	10    0.00000    0.00000  # sf,cp,cp,o=
improper_coeff	11    0.00000    0.00000  # sf,cp,o=,o=

# AngleAngle Coeffs

improper_coeff	 1 aa    0.00000    0.00000    0.00000  112.67000  108.40000  108.40000  # c,c,c,cp
improper_coeff	 2 aa    0.00000    0.00000    0.00000  108.40000  108.40000  111.00000  # c,c,cp,cp
improper_coeff	 3 aa    0.27380   -0.48250    0.27380  110.77000  110.77000  107.66000  # c,c,hc,hc
improper_coeff	 4 aa   -0.31570   -0.31570   -0.31570  107.66000  107.66000  107.66000  # c,hc,hc,hc
improper_coeff	 5 aa    0.00000    0.00000    0.00000  120.05000  120.05000  118.90000  # cp,c,cp,cp
improper_coeff	 6 aa    0.00000    0.00000    0.00000  118.90000  117.94000  117.94000  # cp,cp,cp,hc
improper_coeff	 7 aa    0.00000    0.00000    0.00000  118.90000  123.42000  123.42000  # cp,cp,cp,oc
improper_coeff	 8 aa    0.00000    0.00000    0.00000  118.90000  123.42000  123.42000  # cp,cp,cp,oh
improper_coeff	 9 aa    0.00000    0.00000    0.00000  118.90000  120.00000  120.00000  # cp,cp,cp,sf
improper_coeff	10 aa    0.00000    0.00000    0.00000  102.00000  113.10000  113.10000  # sf,cp,cp,o=
improper_coeff	11 aa    0.00000    0.00000    0.00000  113.10000  113.10000  119.32900  # sf,cp,o=,o=


# --- Thermo Output ---
thermo_style custom step time temp press enthalpy etotal ke pe ebond eangle edihed eimp evdwl ecoul elong etail vol lx ly lz density pxx pyy pzz
thermo_modify flush yes
thermo 1000

# --- Trajectory ---
dump dump_nvt all custom 1000 nvt_production.dump id type mol x y z ix iy iz vx vy vz

# --- Restart Checkpointing ---
# No restart checkpointing

# --- Initial Velocities (optional) ---
# Velocities read from data file

# --- SHAKE Constraints ---
# Constrains H-X bonds to allow 2fs timestep
# SHAKE disabled

# --- NVT Thermostat (Nose-Hoover) ---
# T_damp = 100.0 fs  (coupling timescale for heat exchange)
# Ramp: 700.0 K -> 700.0 K over 2000000 steps
timestep 1.0
fix nvt_fix all nvt temp 700.0 700.0 100.0

run 2000000
PPPM Kokkos initialization ...
  using 12-bit tables for long-range coulomb
  G vector (1/distance) = 0.29848172
  grid = 36 36 36
  stencil order = 5
  estimated absolute RMS force accuracy = 0.00032898345
  estimated relative force accuracy = 9.9072389e-07
  using double precision cuFFT
  3d grid and FFT values/proc = 79507 46656
Generated 28 of 28 mixed pair_coeff terms from sixthpower/sixthpower mixing rule
Neighbor list info ...
  update: every = 1 steps, delay = 0 steps, check = yes
  max neighbors/atom: 4000, page size: 100000
  master list distance cutoff = 11.5
  ghost atom cutoff = 11.5
  binsize = 11.5, bins = 5 5 5
  1 neighbor lists, perpetual/occasional/extra = 1 0 0
  (1) pair lj/class2/coul/long/kk, perpetual
      attributes: full, newton off, kokkos_device
      pair build: full/bin/kk/device
      stencil: full/bin/3d
      bin: kk/device
Per MPI rank memory allocation (min/avg/max) = 61.43 | 61.43 | 61.43 Mbytes
   Step          Time           Temp          Press         Enthalpy        TotEng         KinEng         PotEng         E_bond        E_angle        E_dihed        E_impro         E_vdwl         E_coul         E_long         E_tail         Volume           Lx             Ly             Lz          Density          Pxx            Pyy            Pzz      
         0   0              699.69843      176.13876      51518.724      51156.67       22564.843      28591.827      9358.5494      8971.6318      6989.981       878.25573      1353.5681      8123.139      -7083.298      -775.87809      140942.43      52.041193      52.041193      52.041193      1.0430059     -173.11436     -48.537472      750.0681     
      1000   1000           697.93584     -335.96219      51099.159      51789.73       22508.001      29281.729      9878.7598      8916.9475      7113.6209      897.34222      1436.4025      8122.6893     -7084.0332     -775.87809      140942.43      52.041193      52.041193      52.041193      1.0430059     -1365.8511      135.53616      222.42832    
      2000   2000           707.18978      745.98969      53200.627      51667.245      22806.435      28860.81       9643.9715      8804.879       7112.2534      864.00971      1390.6257      8132.0656     -7086.995      -775.87809      140942.43      52.041193      52.041193      52.041193      1.0430059      529.83447      1056.1451      651.98947    
      3000   3000           699.95211      551.40985      52341.799      51208.376      22573.024      28635.352      9642.9074      8698.6346      7079.0019      893.12231      1271.1578      8140.048      -7089.5204     -775.87809      140942.43      52.041193      52.041193      52.041193      1.0430059      2049.0308      1451.0611     -1845.8623    
      4000   4000           701.27343     -732.83263      50012.954      51519.292      22615.636      28903.656      9642.9813      8911.0623      7111.778       896.46601      1325.0298      8108.3762     -7092.0378     -775.87809      140942.43      52.041193      52.041193      52.041193      1.0430059      228.52611     -1814.6323     -612.39173    
      5000   5000           697.01674      748.09685      52634.528      51096.815      22478.361      28618.454      9591.4592      8842.902       6949.6882      864.51116      1309.2503      8146.2055     -7085.5621     -775.87809      140942.43      52.041193      52.041193      52.041193      1.0430059     -663.36704      2286.1054      621.55221    
      6000   6000           697.29531      100.21902      51520.315      51314.314      22487.344      28826.97       9632.1225      8971.3479      6972.2331      875.62549      1344.4154      8125.2821     -7094.0563     -775.87809      140942.43      52.041193      52.041193      52.041193      1.0430059     -1408.3598      1.1856636      1707.8312    
      7000   7000           697.93355      779.01116      53128.505      51527.247      22507.927      29019.32       9719.3404      8814.1933      6998.8108      888.22932      1563.6125      8124.0571     -7088.9233     -775.87809      140942.43      52.041193      52.041193      52.041193      1.0430059      823.65549      496.22737      1017.1506    
      8000   8000           706.15384      1607.6483      54754.628      51450.106      22773.026      28677.079      9817.5286      8600.4875      6970.3234      864.40491      1386.2909      8127.1252     -7089.0812     -775.87809      140942.43      52.041193      52.041193      52.041193      1.0430059     -222.13599      2178.8558      2866.2249    
      9000   9000           705.52244      530.47955      53011.716      51921.314      22752.664      29168.65       9853.264       8831.5973      7122.2391      909.94044      1402.2165      8137.0338     -7087.6409     -775.87809      140942.43      52.041193      52.041193      52.041193      1.0430059      332.63101      1314.0498     -55.242103    
     10000   10000          697.30016     -1084.1599      49328.964      51557.455      22487.501      29069.955      9734.3093      8926.3557      7083.3683      895.58006      1378.1864      8139.9803     -7087.8256     -775.87809      140942.43      52.041193      52.041193      52.041193      1.0430059     -1587.1032     -1976.2507      310.87436    
     11000   11000          692.86639     -1150.0132      48993.258      51357.111      22344.514      29012.597      9800.9982      8979.2674      7009.1781      872.289        1308.9491      8136.8659     -7094.9506     -775.87809      140942.43      52.041193      52.041193      52.041193      1.0430059     -703.21417     -1869.1686     -877.65675    
     12000   12000          696.6133       886.93171      53114.595      51291.506      22465.35       28826.157      9639.3093      8887.822       7017.0305      912.04013      1333.3643      8122.6155     -7086.0252     -775.87809      140942.43      52.041193      52.041193      52.041193      1.0430059      555.25544      2038.6241      66.915641    
     13000   13000          696.04011     -1494.0122      48431.54       51502.484      22446.865      29055.619      9884.9342      8637.106       7248.2845      922.65666      1316.716       8129.7996     -7083.8782     -775.87809      140942.43      52.041193      52.041193      52.041193      1.0430059     -1121.2575     -1078.0055     -2282.7736    
     14000   14000          694.11952     -668.51847      49523.452      50897.592      22384.927      28512.665      9513.2181      8771.814       6997.8439      865.1986       1327.292       8120.669      -7083.3706     -775.87809      140942.43      52.041193      52.041193      52.041193      1.0430059     -1297.5388     -768.7078       60.691166    
     15000   15000          701.36048     -1128.0917      49180.191      51498.984      22618.443      28880.541      9635.2712      8825.173       7100.8262      878.34031      1423.9237      8104.2674     -7087.2613     -775.87809      140942.43      52.041193      52.041193      52.041193      1.0430059     -646.71819     -1304.2263     -1433.3304    
     16000   16000          698.7728       942.88668      52879.43       50941.326      22534.992      28406.333      9571.747       8742.3018      6890.679       847.25746      1326.3812      8116.4759     -7088.5089     -775.87809      140942.43      52.041193      52.041193      52.041193      1.0430059      1375.7543     -292.0552       1744.961     
     17000   17000          707.93824     -565.14011      50269.449      51431.095      22830.572      28600.523      9702.3517      8827.7164      6883.4964      868.94443      1290.5729      8111.097      -7083.6559     -775.87809      140942.43      52.041193      52.041193      52.041193      1.0430059      416.05164     -1853.0287     -258.44326    
     18000   18000          703.04188     -670.25805      50177.403      51555.118      22672.667      28882.451      9714.869       8975.4872      6950.9039      870.01721      1352.4407      8106.1554     -7087.4225     -775.87809      140942.43      52.041193      52.041193      52.041193      1.0430059     -845.80275     -1409.4325      244.46108    
     19000   19000          688.69117     -945.02051      49106.977      51049.467      22209.866      28839.601      9696.2808      8856.2977      7002.366       901.46431      1330.3758      8135.0556     -7082.239      -775.87809      140942.43      52.041193      52.041193      52.041193      1.0430059     -716.99767     -457.84102     -1660.2228    
     20000   20000          698.8075      -428.17073      50764.186      51644.291      22536.111      29108.18       9782.4636      9061.1527      7067.5966      888.11908      1272.8182      8121.1014     -7085.0719     -775.87809      140942.43      52.041193      52.041193      52.041193      1.0430059     -1146.7427      1114.7604     -1252.53      
     21000   21000          702.97807      2276.6676      55984.884      51305.192      22670.61       28634.582      9686.4352      9030.3159      6738.0869      862.32916      1271.3574      8129.1187     -7083.0607     -775.87809      140942.43      52.041193      52.041193      52.041193      1.0430059      2738.8209      1605.6697      2485.5124    
     22000   22000          697.9575      -680.3313       50066.196      51464.617      22508.699      28955.918      9620.1924      8994.59        7028.3903      887.45322      1368.0562      8135.1464     -7077.9107     -775.87809      140942.43      52.041193      52.041193      52.041193      1.0430059     -697.48746     -1144.0267     -199.47979    
     23000   23000          699.362        328.69277      52210.147      51534.518      22553.993      28980.525      9785.6588      8912.0474      7028.3881      881.09029      1343.4288      8117.2762     -7087.3646     -775.87809      140942.43      52.041193      52.041193      52.041193      1.0430059     -261.56724      482.22329      765.42226    
     24000   24000          701.61595     -483.13481      50675.874      51668.958      22626.682      29042.275      9777.1633      9001.0866      7002.1164      885.22761      1336.9504      8130.4946     -7090.7634     -775.87809      140942.43      52.041193      52.041193      52.041193      1.0430059     -1641.6148      525.20909     -332.99869    
     25000   25000          696.27421     -10.073164      51188.922      51209.627      22454.414      28755.213      9715.2582      8903.105       6966.7093      847.63017      1275.5865      8132.2182     -7085.2944     -775.87809      140942.43      52.041193      52.041193      52.041193      1.0430059      957.45569     -516.37805     -471.29714    
     26000   26000          698.47074     -559.98343      50205.454      51356.5        22525.251      28831.249      9507.7806      8954.1227      7140.1215      871.33304      1328.4257      8115.8453     -7086.3794     -775.87809      140942.43      52.041193      52.041193      52.041193      1.0430059     -1927.9537      1012.7593     -764.7559     
     27000   27000          707.53738      863.45294      53441.844      51667.016      22817.645      28849.371      9724.0971      8965.2087      6795.7942      886.39149      1445.2441      8122.0123     -7089.3766     -775.87809      140942.43      52.041193      52.041193      52.041193      1.0430059      1934.9164     -6.9864284      662.42888    
     28000   28000          703.41978     -742.24327      50206.599      51732.281      22684.855      29047.426      9803.618       9088.8596      6965.1412      874.44998      1278.3779      8124.1629     -7087.1835     -775.87809      140942.43      52.041193      52.041193      52.041193      1.0430059     -571.82329     -1211.7637     -443.14285    
     29000   29000          701.88392     -715.26335      49816.862      51287.086      22635.324      28651.762      9865.7445      8836.4654      6850.9964      844.86123      1195.5487      8140.9633     -7082.8174     -775.87809      140942.43      52.041193      52.041193      52.041193      1.0430059      107.1561      -1148.5549     -1104.3913    
     30000   30000          690.44297     -425.58873      50053.888      50928.686      22266.36       28662.325      9693.8694      8715.7007      7015.3928      835.20292      1385.6127      8104.1619     -7087.6152     -775.87809      140942.43      52.041193      52.041193      52.041193      1.0430059      724.40283     -2060.6313      59.462245    
     31000   31000          695.27482     -724.30765      49735.656      51224.47       22422.185      28802.286      9580.672       8978.0035      6975.6294      905.41502      1304.6987      8145.2853     -7087.4181     -775.87809      140942.43      52.041193      52.041193      52.041193      1.0430059     -1087.1677     -716.99199     -368.76328    
     32000   32000          695.36625     -507.89686      50256.658      51300.641      22425.133      28875.507      9612.1541      9036.722       6994.8606      888.83162      1308.3399      8122.7224     -7088.1232     -775.87809      140942.43      52.041193      52.041193      52.041193      1.0430059     -1312.8963      23.601435     -234.39573    
     33000   33000          699.46931      140.97064      51910.207      51620.441      22557.454      29062.987      9752.8203      9014.2741      6977.6796      903.16982      1366.6012      8132.9974     -7084.5554     -775.87809      140942.43      52.041193      52.041193      52.041193      1.0430059     -264.7026       77.540749      610.07377    
     34000   34000          703.79684     -141.18425      50973.915      51264.119      22697.014      28567.105      9485.1532      8859.4381      7005.8671      871.30966      1316.7396      8118.0499     -7089.4529     -775.87809      140942.43      52.041193      52.041193      52.041193      1.0430059     -19.4558       -551.66021      147.56326    
     35000   35000          690.5217       620.78834      52442.84       51166.809      22268.899      28897.91       9644.1053      8922.9096      7018.1058      894.79574      1387.4235      8113.4144     -7082.8446     -775.87809      140942.43      52.041193      52.041193      52.041193      1.0430059     -22.517162      1565.0999      319.7823     
     36000   36000          697.43021     -260.89615      50999.607      51535.88       22491.695      29044.185      9659.7395      9144.9798      6961.1591      876.36117      1350.4976      8140.1299     -7088.6819     -775.87809      140942.43      52.041193      52.041193      52.041193      1.0430059      816.51873     -1429.8715     -169.33572    
     37000   37000          695.46536      779.28018      52883.567      51281.756      22428.329      28853.427      9783.7584      8739.9941      6921.7881      893.61946      1470.6222      8130.1        -7086.4553     -775.87809      140942.43      52.041193      52.041193      52.041193      1.0430059      450.95134      1599.5188      287.37035    
     38000   38000          705.49862      1294.7915      54402.302      51740.857      22751.896      28988.961      9757.0992      8894.4046      6967.1425      854.28149      1456.3081      8148.6546     -7088.9294     -775.87809      140942.43      52.041193      52.041193      52.041193      1.0430059      1263.4366      1412.0322      1208.9056    
     39000   39000          690.7104      -164.20086      50949.834      51287.349      22274.985      29012.364      9669.618       8988.0854      7073.5266      880.00879      1396.1786      8100.0287     -7095.0822     -775.87809      140942.43      52.041193      52.041193      52.041193      1.0430059     -1273.1141      934.73718     -154.22564    
     40000   40000          700.40185      59.976861      51696.631      51573.349      22587.528      28985.821      9643.7355      8977.5745      7035.0131      900.51848      1398.8981      8116.9886     -7086.9076     -775.87809      140942.43      52.041193      52.041193      52.041193      1.0430059      1383.6007     -686.30815     -517.36201    
     41000   41000          679.22012      153.25257      51063.256      50748.245      21904.43       28843.815      9736.9377      8918.1299      6958.2065      860.79897      1326.8412      8128.7566     -7085.8559     -775.87809      140942.43      52.041193      52.041193      52.041193      1.0430059      582.71925     -1370.7946      1247.8331    
     42000   42000          700.10215      442.86448      52653.686      51743.377      22577.863      29165.514      9942.7162      8837.4735      7022.0998      886.02792      1453.3632      8110.0751     -7086.2412     -775.87809      140942.43      52.041193      52.041193      52.041193      1.0430059     -255.12702      1307.3578      276.36269    
     43000   43000          693.26813      910.50906      53057.863      51186.311      22357.47       28828.841      9811.1035      8945.3975      6829.0655      852.92308      1373.0077      8110.7556     -7093.4115     -775.87809      140942.43      52.041193      52.041193      52.041193      1.0430059      2038.284      -693.4933       1386.7365    
     44000   44000          690.84701      761.88067      52955.896      51389.85       22279.39       29110.46       9917.5739      8830.5198      6927.4653      874.01153      1506.7443      8140.6383     -7086.4936     -775.87809      140942.43      52.041193      52.041193      52.041193      1.0430059      434.07366      493.82351      1357.7448    
     45000   45000          701.75742      807.59366      53493.255      51833.246      22631.244      29202.002      9804.9691      9122.2471      7001.6299      885.27663      1348.4342      8127.3125     -7087.8677     -775.87809      140942.43      52.041193      52.041193      52.041193      1.0430059     -383.71751      633.47733      2173.0211    
     46000   46000          708.28919     -383.89054      50991.449      51780.536      22841.89       28938.646      9591.7029      8826.471       7262.9015      924.84451      1287.2232      8132.0073     -7086.5045     -775.87809      140942.43      52.041193      52.041193      52.041193      1.0430059      544.75699     -883.96152     -812.46709    
     47000   47000          702.77666     -605.12773      50473.221      51717.061      22664.114      29052.947      9683.3094      8773.4837      7284.8399      892.56956      1368.4992      8131.1095     -7080.8641     -775.87809      140942.43      52.041193      52.041193      52.041193      1.0430059     -256.99213     -763.63168     -794.75938    
     48000   48000          706.8148       1092.5811      53826.573      51580.772      22794.342      28786.43       9793.5982      8840.3993      6962.4435      888.37342      1264.6429      8120.4198     -7083.447      -775.87809      140942.43      52.041193      52.041193      52.041193      1.0430059      195.04286      891.30295      2191.3976    
     49000   49000          695.63994     -2105.7277      47031.012      51359.336      22433.959      28925.377      9849.2447      8764.7909      7133.5641      875.07878      1237.6985      8147.9369     -7082.9371     -775.87809      140942.43      52.041193      52.041193      52.041193      1.0430059     -1659.3573     -2333.7154     -2324.1103    
     50000   50000          683.94954     -581.56832      49732.13       50927.544      22056.951      28870.593      9933.5286      8853.9227      6899.4885      850.01924      1277.3876      8139.6649     -7083.4189     -775.87809      140942.43      52.041193      52.041193      52.041193      1.0430059      437.12177     -51.722799     -2130.1039    
     51000   51000          693.9094      -866.93388      49570.705      51352.688      22378.151      28974.538      9745.3454      8904.6885      7064.4625      887.26968      1337.2378      8116.0848     -7080.5511     -775.87809      140942.43      52.041193      52.041193      52.041193      1.0430059      879.07472     -2696.6301     -783.24628    
     52000   52000          699.30716      492.8428       52865.326      51852.287      22552.225      29300.062      9976.3087      8948.2111      7091.0087      868.41997      1357.5837      8145.6069     -7087.077      -775.87809      140942.43      52.041193      52.041193      52.041193      1.0430059     -369.0466       928.49335      919.08164    
     53000   53000          694.94202     -1480.4643      48298.199      51341.294      22411.452      28929.842      9622.1405      8872.6444      7187.1747      882.48629      1329.9684      8120.6415     -7085.2138     -775.87809      140942.43      52.041193      52.041193      52.041193      1.0430059      100.60104     -2730.2294     -1811.7647    
     54000   54000          691.09374     -948.92399      49258.651      51209.165      22287.347      28921.818      9763.8914      8901.1803      7021.4008      867.93032      1313.6526      8135.2383     -7081.4761     -775.87809      140942.43      52.041193      52.041193      52.041193      1.0430059     -398.94414     -1140.1104     -1307.7174    
     55000   55000          707.54107     -280.30063      51184.261      51760.419      22817.763      28942.656      9702.6093      8809.3711      7064.6274      876.54091      1433.7775      8135.5976     -7079.8682     -775.87809      140942.43      52.041193      52.041193      52.041193      1.0430059     -32.725498     -1299.1474      490.97101    
     56000   56000          703.47082     -922.76853      49670.383      51567.134      22686.501      28880.633      9571.5868      8976.8489      7081.6643      887.43632      1314.4927      8129.421      -7080.8168     -775.87809      140942.43      52.041193      52.041193      52.041193      1.0430059     -1314.9562     -1498.1028      44.753444    
     57000   57000          700.27452     -893.9427       49562.106      51399.606      22583.422      28816.184      9755.5109      8709.8721      7129.7861      870.32813      1318.9841      8120.0724     -7088.3701     -775.87809      140942.43      52.041193      52.041193      52.041193      1.0430059     -2083.2169     -1030.7687      432.15746    
     58000   58000          705.09229     -899.46326      49770.251      51619.098      22738.792      28880.306      9696.1195      8877.1316      7117.2704      867.71178      1275.8657      8135.9327     -7089.7255     -775.87809      140942.43      52.041193      52.041193      52.041193      1.0430059     -369.87073     -428.8875      -1899.6315    
     59000   59000          697.27911      335.80794      52261.181      51570.927      22486.822      29084.106      9739.1586      9047.0158      6990.6226      879.06637      1389.3463      8120.7283     -7081.8323     -775.87809      140942.43      52.041193      52.041193      52.041193      1.0430059     -769.45678      854.77676      922.10383    
     60000   60000          699.05194      1015.1613      53626.976      51540.311      22543.995      28996.316      9720.9228      8892.4214      7026.3825      904.77335      1417.6306      8117.981      -7083.7953     -775.87809      140942.43      52.041193      52.041193      52.041193      1.0430059      306.26804      2557.8635      181.3523     
     61000   61000          697.34538      900.48862      53198.064      51347.109      22488.959      28858.15       9773.5502      8861.2307      7009.5237      897.52535      1262.8033      8143.143      -7089.6264     -775.87809      140942.43      52.041193      52.041193      52.041193      1.0430059      1027.3292      569.16903      1104.9677    
     62000   62000          701.94132     -692.31225      50223.837      51646.885      22637.175      29009.71       9842.7239      8878.1488      6967.8383      881.40241      1386.2823      8135.8251     -7082.5108     -775.87809      140942.43      52.041193      52.041193      52.041193      1.0430059      332.83101     -619.47309     -1790.2947    
     63000   63000          686.44385      185.26017      51614.04       51233.238      22137.391      29095.846      9715.1756      8927.5065      7065.3481      927.72726      1410.8585      8142.3359     -7093.1054     -775.87809      140942.43      52.041193      52.041193      52.041193      1.0430059     -664.93449      120.1943       1100.5207    
     64000   64000          701.64851      311.78845      52052.31       51411.429      22627.732      28783.696      9559.8692      8921.1628      7053.0846      895.17359      1300.2755      8138.8337     -7084.7029     -775.87809      140942.43      52.041193      52.041193      52.041193      1.0430059      712.21612      245.06596     -21.916735    
     65000   65000          704.32009      1361.0824      54304.611      51506.905      22713.889      28793.016      9638.4567      8905.2842      6969.9968      904.22558      1333.1942      8132.8966     -7091.0383     -775.87809      140942.43      52.041193      52.041193      52.041193      1.0430059      1179.6738      1366.9859      1536.5874    
     66000   66000          693.79388     -1190.9316      48579.649      51027.609      22374.425      28653.184      9734.5731      8630.2354      7080.0157      858.27306      1305.7637      8128.3609     -7084.0377     -775.87809      140942.43      52.041193      52.041193      52.041193      1.0430059     -2086.381      -289.5298      -1196.8841    
     67000   67000          704.41702      312.95697      52306.724      51663.441      22717.015      28946.426      9656.8463      8937.7868      7165.6504      885.99738      1261.034       8130.77       -7091.6586     -775.87809      140942.43      52.041193      52.041193      52.041193      1.0430059      417.09004     -538.47396      1060.2548    
     68000   68000          694.8438       886.84082      53227.722      51404.82       22408.285      28996.535      9811.7733      8805.9116      7026.2192      902.50698      1437.5824      8102.8856     -7090.3437     -775.87809      140942.43      52.041193      52.041193      52.041193      1.0430059      1937.3501      1109.5393     -386.36694    
     69000   69000          709.30844     -1311.1593      49494.967      52190.056      22874.76       29315.296      9935.3106      9134.7084      7054.7144      892.31532      1263.0379      8124.0467     -7088.8377     -775.87809      140942.43      52.041193      52.041193      52.041193      1.0430059     -3703.3699     -1195.9749      965.86705    
     70000   70000          701.2224       708.05745      52878.334      51422.921      22613.99       28808.931      9690.0994      8866.5202      6990.6004      902.6681       1307.6523      8137.6375     -7086.247      -775.87809      140942.43      52.041193      52.041193      52.041193      1.0430059      772.8682       1173.1571      178.14705    
     71000   71000          703.36992     -702.50858      49840.633      51284.639      22683.247      28601.393      9648.7507      8653.2158      7125.1965      906.31779      1224.0693      8131.5751     -7087.7322     -775.87809      140942.43      52.041193      52.041193      52.041193      1.0430059     -1675.5653     -830.8833       398.92286    
     72000   72000          691.32424     -1331.8373      48600.186      51337.779      22294.781      29042.998      9808.3977      8801.2191      7181.5427      918.45122      1304.9217      8116.9665     -7088.5007     -775.87809      140942.43      52.041193      52.041193      52.041193      1.0430059     -2184.5128      288.63433     -2099.6336    
     73000   73000          699.70022      579.40274      52683.801      51492.838      22564.901      28927.937      9691.4933      8934.5073      7047.3542      864.82638      1332.8727      8140.4448     -7083.5613     -775.87809      140942.43      52.041193      52.041193      52.041193      1.0430059      784.40404      277.95864      675.84555    
     74000   74000          695.97436     -139.4358       51005.85       51292.46       22444.744      28847.716      9676.0439      8930.3745      7010.9034      872.51193      1316.9961      8127.5054     -7086.6194     -775.87809      140942.43      52.041193      52.041193      52.041193      1.0430059      1346.0151     -39.561372     -1724.7611    
     75000   75000          698.75558      1114.2819      53778.449      51488.041      22534.437      28953.604      9764.6602      8918.1766      7058.2743      861.67899      1309.5844      8126.7538     -7085.5242     -775.87809      140942.43      52.041193      52.041193      52.041193      1.0430059     -502.49428      2981.2652      864.07483    
     76000   76000          703.2896       86.049464      51481.475      51304.601      22680.656      28623.944      9570.6727      8841.47        7034.9274      867.16748      1275.8783      8123.0033     -7089.1749     -775.87809      140942.43      52.041193      52.041193      52.041193      1.0430059      1011.8701     -150.42601     -603.29571    
     77000   77000          698.43869     -277.4206       50411.74       50981.978      22524.217      28457.761      9602.6922      8637.5463      7042.1987      881.86732      1256.5558      8121.9905     -7085.0901     -775.87809      140942.43      52.041193      52.041193      52.041193      1.0430059      348.09943     -968.7951      -211.56614    
     78000   78000          696.42496     -77.555178      51461.408      51620.823      22459.276      29161.547      9998.7687      8859.8325      6989.0675      863.09325      1386.1026      8145.3573     -7080.6748     -775.87809      140942.43      52.041193      52.041193      52.041193      1.0430059     -1132.2894     -832.94196      1732.5658    
     79000   79000          706.98741      688.21657      53240.095      51825.466      22799.908      29025.557      9753.8712      8972.9829      7025.3733      893.50897      1342.6052      8120.7764     -7083.5607     -775.87809      140942.43      52.041193      52.041193      52.041193      1.0430059      661.94312      439.32612      963.38048    
     80000   80000          697.19783     -245.92986      50893.134      51398.643      22484.2        28914.442      9766.1188      8846.0444      7024.5626      864.00298      1367.7094      8128.1564     -7082.1522     -775.87809      140942.43      52.041193      52.041193      52.041193      1.0430059     -1845.2258      115.57234      991.86389    
     81000   81000          695.72119      1659.5335      54756.401      51345.229      22436.58       28908.649      9790.2476      8965.1618      6807.0531      874.69386      1431.5768      8127.8266     -7087.9108     -775.87809      140942.43      52.041193      52.041193      52.041193      1.0430059      1135.1826      2123.3         1720.118     
     82000   82000          692.40096     -1252.7142      48989.591      51564.546      22329.504      29235.042      9639.9181      9168.6336      7199.5023      873.71802      1303.7455      8135.7595     -7086.2354     -775.87809      140942.43      52.041193      52.041193      52.041193      1.0430059     -1351.699      -1456.873      -949.57071    
     83000   83000          694.651       -995.04833      49260.932      51306.255      22402.067      28904.188      9555.4054      8972.6765      7149.0875      894.61832      1283.3675      8131.8597     -7082.8268     -775.87809      140942.43      52.041193      52.041193      52.041193      1.0430059     -2153.5627     -1590.8321      759.24983    
     84000   84000          701.898       -663.95211      50317.921      51682.675      22635.778      29046.897      9838.0759      8960.8353      6961.5427      865.73092      1352.615       8149.2516     -7081.1545     -775.87809      140942.43      52.041193      52.041193      52.041193      1.0430059     -2188.5832     -1019.2437      1215.9706    
     85000   85000          696.22626     -197.937        51052.233      51459.093      22452.868      29006.225      9679.428       9093.1455      6960.3139      838.60206      1388.435       8129.5521     -7083.2515     -775.87809      140942.43      52.041193      52.041193      52.041193      1.0430059     -658.36025     -15.301142      79.850393    
     86000   86000          702.65682     -187.3603       51128.605      51513.724      22660.249      28853.475      9629.8646      9012.51        6978.4585      866.73665      1310.5136      8146.835      -7091.4437     -775.87809      140942.43      52.041193      52.041193      52.041193      1.0430059     -644.92702      2004.1916     -1921.3455    
     87000   87000          686.7826       761.37521      52434.559      50869.551      22148.316      28721.235      9688.8846      8844.8452      6816.51        886.48594      1421.6016      8150.6585     -7087.7504     -775.87809      140942.43      52.041193      52.041193      52.041193      1.0430059     -329.16297      902.54336      1710.7452    
     88000   88000          705.39363     -765.95043      49810.216      51384.627      22748.51       28636.117      9610.9465      8763.0561      7122.2021      845.78829      1272.4253      8111.7452     -7090.0461     -775.87809      140942.43      52.041193      52.041193      52.041193      1.0430059     -839.81874     -485.06075     -972.97181    
     89000   89000          702.14068      800.8738       53455.138      51808.942      22643.604      29165.337      9975.1967      8831.3622      7038.6019      882.68303      1421.5615      8110.3574     -7094.4253     -775.87809      140942.43      52.041193      52.041193      52.041193      1.0430059      938.69597      493.32867      970.59675    
     90000   90000          700.49536      1107.1956      53610.623      51334.781      22590.544      28744.237      9736.9084      8867.7603      6940.2333      868.23715      1306.7022      8115.8722     -7091.4761     -775.87809      140942.43      52.041193      52.041193      52.041193      1.0430059      829.58985      1702.0547      789.94238    
     91000   91000          708.87619     -63.700097      51753.573      51884.508      22860.82       29023.688      9877.4122      8746.1881      7094.8868      929.43415      1346.9559      8117.1377     -7088.3268     -775.87809      140942.43      52.041193      52.041193      52.041193      1.0430059      919.83567     -820.21911     -290.71685    
     92000   92000          697.18255     -726.76193      49758.333      51252.193      22483.708      28768.485      9483.3619      8869.9686      7129.5163      892.68782      1361.9173      8123.0774     -7092.0443     -775.87809      140942.43      52.041193      52.041193      52.041193      1.0430059     -715.62829     -1002.6126     -462.04488    
     93000   93000          708.33672     -90.447203      51128.241      51314.155      22843.423      28470.732      9492.4801      8776.6632      6928.359       881.01242      1351.8472      8132.1003     -7091.7301     -775.87809      140942.43      52.041193      52.041193      52.041193      1.0430059      597.16439     -227.31839     -641.18761    
     94000   94000          706.29387      1397.0834      54303.125      51431.419      22777.542      28653.877      9665.3167      8724.1474      6977.2877      851.41204      1405.2962      8120.4757     -7090.0592     -775.87809      140942.43      52.041193      52.041193      52.041193      1.0430059     -64.953145      1714.3257      2541.8776    
     95000   95000          706.46595     -253.67147      51207.549      51728.971      22783.092      28945.879      9841.1268      8766.3277      7137.6599      870.51982      1284.8455      8134.9189     -7089.5193     -775.87809      140942.43      52.041193      52.041193      52.041193      1.0430059      57.534999     -998.32916      179.77975    
     96000   96000          695.89121      459.49011      52141.646      51197.163      22442.063      28755.101      9766.6429      8846.9201      6935.5104      871.75311      1274.3657      8147.1827     -7087.2741     -775.87809      140942.43      52.041193      52.041193      52.041193      1.0430059     -136.56821      445.90391      1069.1346    
     97000   97000          699.65457     -23.435779      51144.494      51192.667      22563.429      28629.238      9573.0536      8844.9343      6998.4841      888.57701      1274.1192      8136.6054     -7086.536      -775.87809      140942.43      52.041193      52.041193      52.041193      1.0430059     -1020.592      -739.99866      1690.2833    
     98000   98000          698.11199      1279.3793      54071.731      51441.966      22513.682      28928.284      9742.6754      8814.7688      7067.7274      920.34569      1349.668       8127.8468     -7094.7481     -775.87809      140942.43      52.041193      52.041193      52.041193      1.0430059      1836.5012     -336.19805      2337.8348    
     99000   99000          695.16777      549.14038      52279.197      51150.439      22418.732      28731.706      9953.1169      8833.6832      6717.2244      850.76765      1351.4724      8117.9265     -7092.4845     -775.87809      140942.43      52.041193      52.041193      52.041193      1.0430059      733.51687      224.90663      688.99762    
    100000   100000         706.2144      -1289.54        48982          51632.651      22774.979      28857.671      9809.9815      8820.7543      6983.7193      879.52113      1323.3698      8131.3668     -7091.0415     -775.87809      140942.43      52.041193      52.041193      52.041193      1.0430059     -183.52523     -2999.6356     -685.45918    
    101000   101000         697.48308     -895.99055      49543.5        51385.21       22493.4        28891.81       9576.6636      9011.6816      7108.7686      886.13192      1245.4293      8147.9444     -7084.8094     -775.87809      140942.43      52.041193      52.041193      52.041193      1.0430059      402.81799     -877.72111     -2213.0685    
    102000   102000         689.41688     -992.78205      48812.479      50853.144      22233.27       28619.874      9346.1284      8869.5391      7135.9733      896.03703      1330.0452      8133.9479     -7091.7967     -775.87809      140942.43      52.041193      52.041193      52.041193      1.0430059     -662.22251     -1827.9289     -488.19477    
    103000   103000         703.9844       221.53914      52065.078      51609.704      22703.063      28906.641      9839.1034      8811.3375      6993.1338      893.5971       1323.1457      8139.1189     -7092.7955     -775.87809      140942.43      52.041193      52.041193      52.041193      1.0430059      1323.6878     -945.03832      285.96795    
    104000   104000         699.44155     -523.13148      50593.548      51668.845      22556.559      29112.286      9850.8771      8842.2958      7143.5328      907.10573      1325.3849      8130.6159     -7087.5265     -775.87809      140942.43      52.041193      52.041193      52.041193      1.0430059     -50.121758     -2249.2486      729.97594    
    105000   105000         696.59992      354.03627      51863.381      51135.659      22464.918      28670.741      9670.4438      8744.8632      7044.2283      884.25767      1291.5266      8124.5434     -7089.1223     -775.87809      140942.43      52.041193      52.041193      52.041193      1.0430059     -80.560457      331.74008      810.9292     
    106000   106000         700.31857      205.74014      51847.702      51424.803      22584.842      28839.96       9764.964       8792.2386      6973.3354      872.5773       1389.9897      8132.9858     -7086.1304     -775.87809      140942.43      52.041193      52.041193      52.041193      1.0430059      947.42554      22.602607     -352.80773    
    107000   107000         714.0063       211.44493      51962.118      51527.493      23026.263      28501.229      9601.874       8686.3868      6935.7283      865.98059      1367.9085      8129.321      -7085.97       -775.87809      140942.43      52.041193      52.041193      52.041193      1.0430059      619.6789       1051.0917     -1036.4359    
    108000   108000         700.7502       220.82126      51766.538      51312.64       22598.762      28713.878      9719.5791      8678.1608      7151.6956      869.64437      1274.587       8110.1092     -7089.8984     -775.87809      140942.43      52.041193      52.041193      52.041193      1.0430059      677.67005     -272.83136      257.6251     
    109000   109000         704.09141      851.78662      53273.581      51522.733      22706.514      28816.219      9570.5605      8786.0405      7104.5926      908.55765      1430.2096      8108.3851     -7092.1273     -775.87809      140942.43      52.041193      52.041193      52.041193      1.0430059     -33.681831      368.72704      2220.3147    
    110000   110000         703.63439     -945.81525      49524.107      51468.231      22691.776      28776.456      9755.4369      8699.1074      7027.5314      891.16826      1378.3353      8119.4582     -7094.5819     -775.87809      140942.43      52.041193      52.041193      52.041193      1.0430059     -303.8813      -1489.3439     -1044.2206    
    111000   111000         707.95577      503.79269      52601.357      51565.81       22831.138      28734.673      9485.8151      8969.2753      7051.4316      874.89892      1296.0223      8141.32       -7084.0904     -775.87809      140942.43      52.041193      52.041193      52.041193      1.0430059      1464.5217     -344.92601      391.78236    
    112000   112000         697.47171     -1086.7109      48842.75       51076.485      22493.033      28583.452      9682.1866      8729.3559      6996.3037      904.68593      1214.7894      8141.2514     -7085.1213     -775.87809      140942.43      52.041193      52.041193      52.041193      1.0430059     -72.831068     -2828.159      -359.14252    
    113000   113000         693.68874     -1094.4776      49183.624      51433.323      22371.034      29062.289      9765.0839      8971.4309      7095.1597      914.68701      1279.9849      8117.6595     -7081.7173     -775.87809      140942.43      52.041193      52.041193      52.041193      1.0430059     -2582.1364      57.115949     -758.41234    
    114000   114000         703.39574      675.77557      52834.265      51445.208      22684.079      28761.129      9818.7099      8926.4555      6941.0576      864.6232       1158.9323      8137.546      -7086.1958     -775.87809      140942.43      52.041193      52.041193      52.041193      1.0430059      519.16483     -114.23219      1622.3941    
    115000   115000         699.16422     -17.275232      51302.477      51337.986      22547.615      28790.371      9758.6173      9003.2864      6835.1732      871.3664       1273.0192      8138.5005     -7089.5921     -775.87809      140942.43      52.041193      52.041193      52.041193      1.0430059      861.76628      125.44738     -1039.0393    
    116000   116000         703.03273     -1086.56        49325.222      51558.647      22672.372      28886.274      9773.7948      8836.6658      7062.0902      844.66374      1311.497       8142.8779     -7085.3151     -775.87809      140942.43      52.041193      52.041193      52.041193      1.0430059     -2086.3551      1189.5557     -2362.8807    
    117000   117000         705.46396      1119.2161      53958.192      51657.642      22750.778      28906.864      9762.0106      8769.0823      7006.9941      887.07794      1460.6204      8110.6127     -7089.5338     -775.87809      140942.43      52.041193      52.041193      52.041193      1.0430059     -494.72129      1778.2768      2074.0928    
    118000   118000         704.32439     -737.55989      49834.904      51350.958      22714.028      28636.931      9678.425       8853.0336      7040.5367      839.39882      1183.4692      8132.8971     -7090.8296     -775.87809      140942.43      52.041193      52.041193      52.041193      1.0430059      160.7637      -1966.8573     -406.58603    
    119000   119000         706.1853       20.312798      51753.189      51711.436      22774.041      28937.395      9877.8859      8751.5716      7051.1654      954.04508      1260.5913      8141.4115     -7099.276      -775.87809      140942.43      52.041193      52.041193      52.041193      1.0430059      1428.3105     -1776.4456      409.07342    
    120000   120000         699.51881      1124.8319      53692.975      51380.882      22559.051      28821.831      9719.4198      8765.419       7141.6468      900.59009      1278.1479      8114.4251     -7097.8172     -775.87809      140942.43      52.041193      52.041193      52.041193      1.0430059      2610.0316      1728.0018     -963.53752    
    121000   121000         704.24601     -167.11631      51475.012      51818.52       22711.5        29107.02       9863.2811      8959.2834      7049.0444      854.1914       1331.4376      8138.6396     -7088.8572     -775.87809      140942.43      52.041193      52.041193      52.041193      1.0430059      887.20281     -489.87395     -898.67781    
    122000   122000         694.65991     -2013.9164      47164.581      51304.188      22402.354      28901.834      9607.444       9010.8362      7022.8913      859.57375      1363.2918      8118.2034     -7080.4067     -775.87809      140942.43      52.041193      52.041193      52.041193      1.0430059     -1834.8142     -1012.0956     -3194.8395    
    123000   123000         701.82442     -100.52531      51099.49       51306.12       22633.405      28672.715      9709.5672      8745.1805      7010.9779      883.46523      1285.8896      8124.6597     -7087.0251     -775.87809      140942.43      52.041193      52.041193      52.041193      1.0430059     -762.01294      1534.2231     -1073.7861    
    124000   124000         690.7496      -664.21701      50108.349      51473.647      22276.249      29197.398      9683.4462      9012.7402      7193.1786      917.8807       1351.3426      8131.5393     -7092.7293     -775.87809      140942.43      52.041193      52.041193      52.041193      1.0430059     -1780.07        1103.2618     -1315.8428    
    125000   125000         697.55971      1030.2064      53387.425      51269.835      22495.871      28773.964      9639.7004      8777.405       7063.589       920.02926      1316.3727      8140.1902     -7083.3221     -775.87809      140942.43      52.041193      52.041193      52.041193      1.0430059      1173.3218      2417.7111     -500.41378    
    126000   126000         703.88938      2053.2336      55697.298      51476.875      22699.999      28776.876      9631.8305      8857.8579      6872.2656      890.75505      1489.8785      8118.1794     -7083.8913     -775.87809      140942.43      52.041193      52.041193      52.041193      1.0430059      3329.5152      1568.0183      1262.1674    
    127000   127000         700.11768     -294.39232      51077.324      51682.448      22578.364      29104.084      9806.3366      8917.7438      7083.0996      910.75775      1350.7626      8121.3292     -7085.9454     -775.87809      140942.43      52.041193      52.041193      52.041193      1.0430059      923.77089     -734.00509     -1072.9428    
    128000   128000         695.49616      391.05333      52261.19       51457.38       22429.323      29028.057      10007.377      8996.4367      6789.3286      867.509        1353.8476      8107.1882     -7093.6296     -775.87809      140942.43      52.041193      52.041193      52.041193      1.0430059      1189.3794     -500.95974      484.74035    
    129000   129000         701.67168     -348.41829      50932.756      51648.93       22628.48       29020.451      9704.2229      9018.39        7082.7325      897.1877       1298.18        8107.6076     -7087.8699     -775.87809      140942.43      52.041193      52.041193      52.041193      1.0430059      658.18375     -1987.5062      284.06752    
    130000   130000         689.34762      366.4915       51722.014      50968.69       22231.036      28737.654      9679.7677      8835.3637      6980.6921      873.36082      1339.9212      8116.3049     -7087.7562     -775.87809      140942.43      52.041193      52.041193      52.041193      1.0430059     -589.93017      1406.7309      282.67372    
    131000   131000         700.34867     -632.36868      49994.698      51294.532      22585.813      28708.719      9745.5952      8746.0178      7017.4697      842.29694      1305.8535      8135.9954     -7084.5097     -775.87809      140942.43      52.041193      52.041193      52.041193      1.0430059     -1870.6409     -938.56533      912.10016    
    132000   132000         708.74184      554.45378      53112.662      51972.982      22856.488      29116.494      9951.0384      8841.4447      7002.1479      882.7715       1410.6815      8116.3561     -7087.9455     -775.87809      140942.43      52.041193      52.041193      52.041193      1.0430059      819.00916     -1073.795       1918.1472    
    133000   133000         701.07255     -239.96673      50833.838      51327.089      22609.158      28717.932      9594.9311      8978.1612      6967.5149      852.52661      1281.0937      8134.2781     -7090.5739     -775.87809      140942.43      52.041193      52.041193      52.041193      1.0430059     -1650.2314      297.69394      632.63723    
    134000   134000         712.79653     -457.90142      50859.916      51801.133      22987.249      28813.884      9611.2706      8880.8248      7091.8927      852.85269      1336.0479      8125.1947     -7084.1998     -775.87809      140942.43      52.041193      52.041193      52.041193      1.0430059      1020.7476      97.246101     -2491.6979    
    135000   135000         705.19706      1114.3098      54045.692      51755.227      22742.171      29013.056      9771.2497      9023.2043      6896.2587      875.66158      1402.9857      8133.3075     -7089.6111     -775.87809      140942.43      52.041193      52.041193      52.041193      1.0430059      2593.0555     -51.317528      801.19149    
    136000   136000         705.70502     -814.08296      49734.156      51407.504      22758.552      28648.952      9642.902       8920.1981      6854.9548      861.07903      1322.1391      8141.6904     -7094.0116     -775.87809      140942.43      52.041193      52.041193      52.041193      1.0430059     -298.72899      744.479       -2887.9989    
    137000   137000         705.21042      1435.0942      54496.046      51546.209      22742.602      28803.608      9712.1926      8731.0116      6984.1093      896.25868      1440.7329      8126.5688     -7087.266      -775.87809      140942.43      52.041193      52.041193      52.041193      1.0430059      2582.6936      621.48666      1101.1022    
    138000   138000         702.40316     -2023.5073      47256.765      51416.086      22652.069      28764.016      9638.0821      8702.4348      7190.911       921.8472       1273.4093      8121.1925     -7083.8605     -775.87809      140942.43      52.041193      52.041193      52.041193      1.0430059     -2225.6636     -2739.8567     -1105.0014    
    139000   139000         692.53448      712.12116      52838.027      51374.261      22333.81       29040.451      9674.0926      8874.2168      7184.2771      911.45097      1345.643       8136.7083     -7085.9379     -775.87809      140942.43      52.041193      52.041193      52.041193      1.0430059      443.08389      1334.3776      358.90201    
    140000   140000         702.45391      990.42418      53421.682      51385.865      22653.706      28732.159      9729.6592      8692.6268      7024.7037      880.59785      1383.7801      8109.4044     -7088.6134     -775.87809      140942.43      52.041193      52.041193      52.041193      1.0430059      2514.9263     -138.51203      594.85827    
    141000   141000         707.18767     -240.81561      51245.881      51740.878      22806.367      28934.511      9785.121       8773.7187      7107.1237      888.26934      1350.5803      8119.5148     -7089.8165     -775.87809      140942.43      52.041193      52.041193      52.041193      1.0430059      903.62471     -142.48955     -1483.582     
    142000   142000         698.53475      1624.5665      54731.86       51392.562      22527.315      28865.247      9711.0074      8897.7283      6898.7089      871.80886      1450.6279      8126.3974     -7091.0319     -775.87809      140942.43      52.041193      52.041193      52.041193      1.0430059      2981.8685      1259.7127      632.11842    
    143000   143000         697.22994     -1383.0152      48672.352      51515.141      22485.236      29029.905      9629.247       8925.1151      7241.9292      906.78667      1284.1226      8127.9937     -7085.2896     -775.87809      140942.43      52.041193      52.041193      52.041193      1.0430059     -2235.2308     -559.38666     -1354.4282    
    144000   144000         701.81218     -345.54863      50691.587      51401.862      22633.01       28768.852      9683.2058      8788.8961      7045.8536      885.88529      1336.4049      8118.7566     -7090.1505     -775.87809      140942.43      52.041193      52.041193      52.041193      1.0430059     -819.53928     -774.98963      557.88303    
    145000   145000         692.6666      -1714.9611      47619.89       51144.994      22338.071      28806.923      9698.8509      8586.4556      7270.6421      890.21743      1338.0933      8115.3565     -7092.693      -775.87809      140942.43      52.041193      52.041193      52.041193      1.0430059     -1301.065      -683.81797     -3160.0004    
    146000   146000         699.1494       914.5965       53398.348      51518.395      22547.138      28971.257      9711.498       8991.4735      6991.5209      868.52702      1394.9791      8110.2369     -7096.9783     -775.87809      140942.43      52.041193      52.041193      52.041193      1.0430059      862.74448      1259.707       621.33808    
    147000   147000         704.17787      871.10138      53332.352      51541.803      22709.303      28832.5        9460.5567      8907.2122      7026.3224      921.78801      1474.3927      8130.4165     -7088.1884     -775.87809      140942.43      52.041193      52.041193      52.041193      1.0430059      584.04228      1637.4367      391.82514    
    148000   148000         706.34165     -279.21041      51073.063      51646.98       22779.083      28867.897      9702.1986      8862.4279      7022.1423      900.35895      1361.8941      8111.9902     -7093.1149     -775.87809      140942.43      52.041193      52.041193      52.041193      1.0430059      84.881408     -70.340952     -852.1717     
    149000   149000         695.94165      1987.4461      55347.336      51262.139      22443.689      28818.45       9600.1266      8982.5771      6898.2387      860.81453      1432.3626      8133.4945     -7089.1645     -775.87809      140942.43      52.041193      52.041193      52.041193      1.0430059      1498.8074      2292.6116      2170.9191    
    150000   150000         703.8125       632.50246      52764.606      51464.497      22697.52       28766.977      9580.9507      8860.4344      7028.5819      860.42245      1398.7842      8125.7882     -7087.9844     -775.87809      140942.43      52.041193      52.041193      52.041193      1.0430059     -1096.2672      2692.0061      301.76848    
    151000   151000         704.29758     -21.738288      51663.112      51707.795      22713.163      28994.632      9904.7874      8771.8868      7142.7191      869.57391      1266.6697      8131.6728     -7092.6776     -775.87809      140942.43      52.041193      52.041193      52.041193      1.0430059      1159.2269     -1572.2703      347.82858    
    152000   152000         688.95801      1102.539       53399.133      51132.863      22218.471      28914.392      9780.1907      9005.9234      6804.67        882.931        1384.4184      8143.1497     -7086.8912     -775.87809      140942.43      52.041193      52.041193      52.041193      1.0430059      1398.3811      1649.8285      259.40741    
    153000   153000         696.44826     -791.88602      49539.626      51167.348      22460.027      28707.321      9805.3493      8747.2706      6928.5238      865.96498      1319.8619      8131.1599     -7090.8096     -775.87809      140942.43      52.041193      52.041193      52.041193      1.0430059     -779.90432     -595.44682     -1000.3069    
    154000   154000         699.02207      1209.3116      54082.545      51596.804      22543.031      29053.773      9728.3441      9029.9767      6927.5437      907.55084      1409.4881      8139.9857     -7089.116      -775.87809      140942.43      52.041193      52.041193      52.041193      1.0430059      1842.1365      680.35086      1105.4476    
    155000   155000         697.53878      1042.9627      53406.927      51263.117      22495.196      28767.921      9529.9302      8813.7469      7079.8567      890.02273      1416.4638      8126.6486     -7088.748      -775.87809      140942.43      52.041193      52.041193      52.041193      1.0430059      736.45154      1687.7771      704.65947    
    156000   156000         701.07548      100.62641      51903.073      51696.236      22609.252      29086.983      9766.8296      8960.9573      7040.6047      872.94739      1394.4025      8136.1546     -7084.9128     -775.87809      140942.43      52.041193      52.041193      52.041193      1.0430059     -996.81436      331.27194      967.42166    
[...]
   1955000   1955000        692.66252      201.22543      51607.611      51193.992      22337.94       28856.053      9662.565       8805.9296      7121.0695      888.88349      1356.7755      8117.5977     -7096.7679     -775.87809      140942.43      52.041193      52.041193      52.041193      1.0430059      712.82817     -45.344269     -63.807614    
   1956000   1956000        698.78479      485.41985      52751.023      51753.242      22535.379      29217.863      9790.8208      9108.412       7017.5035      873.21612      1394.8103      8120.8715     -7087.7708     -775.87809      140942.43      52.041193      52.041193      52.041193      1.0430059      1522.8349      858.89463     -925.46998    
   1957000   1957000        698.19379     -1066.0192      49666.555      51857.758      22516.32       29341.439      9964.4933      8853.3589      7255.1295      909.75566      1317.6347      8125.453      -7084.3864     -775.87809      140942.43      52.041193      52.041193      52.041193      1.0430059     -847.1287      -2055.7583     -295.17044    
   1958000   1958000        699.8854      -290.12662      51190.022      51786.377      22570.873      29215.504      9993.6136      8943.7899      7081.3255      883.59193      1276.0564      8124.4609     -7087.3339     -775.87809      140942.43      52.041193      52.041193      52.041193      1.0430059     -831.99538      494.52886     -532.91335    
   1959000   1959000        700.60415      659.88437      52968.363      51611.971      22594.052      29017.918      9629.4792      8905.7621      7091.7809      889.61443      1446.104       8136.3287     -7081.1509     -775.87809      140942.43      52.041193      52.041193      52.041193      1.0430059      1542.4162     -440.9243       878.16116    
   1960000   1960000        698.89341      1135.408       53824.39       51490.558      22538.882      28951.676      9758.7234      8740.2382      7037.1875      886.24348      1492.3173      8123.1051     -7086.1392     -775.87809      140942.43      52.041193      52.041193      52.041193      1.0430059      610.60943      776.14324      2019.4713    
   1961000   1961000        699.34301     -131.82379      51179.585      51450.549      22553.381      28897.167      9912.2472      8799.9531      6966.4632      846.86723      1351.6101      8108.314      -7088.2874     -775.87809      140942.43      52.041193      52.041193      52.041193      1.0430059     -1460.7283      1493.8821     -428.62518    
   1962000   1962000        693.83768      1793.371       55196.964      51510.689      22375.838      29134.851      9811.1973      8974.5265      6966.3611      887.98555      1442.9181      8133.8485     -7081.986      -775.87809      140942.43      52.041193      52.041193      52.041193      1.0430059      1632.3132      1127.7369      2620.063     
   1963000   1963000        704.98363      740.73632      53071.766      51549.182      22735.288      28813.894      9747.2603      8789.9136      6920.2795      885.23552      1461.6501      8099.206      -7089.6506     -775.87809      140942.43      52.041193      52.041193      52.041193      1.0430059     -462.02429      1434.698       1249.5352    
   1964000   1964000        702.62102      1948.7253      55928.372      51922.766      22659.095      29263.671      9885.8275      9094.3483      6922.5573      881.50403      1434.4661      8127.2588     -7082.2908     -775.87809      140942.43      52.041193      52.041193      52.041193      1.0430059      2251.574       1693.2091      1901.3927    
   1965000   1965000        695.14731     -402.10928      50518.098      51344.634      22418.072      28926.561      9723.6245      8991.0176      6862.5873      877.43766      1428.5376      8127.9817     -7084.625      -775.87809      140942.43      52.041193      52.041193      52.041193      1.0430059     -1377.5485      1347.7009     -1176.4802    
   1966000   1966000        699.04574      823.79637      53123.369      51430.055      22543.794      28886.26       9877.4366      8809.4944      6907.3723      865.31746      1395.4924      8113.1016     -7081.9544     -775.87809      140942.43      52.041193      52.041193      52.041193      1.0430059     -492.15822      948.3624       2015.1849    
   1967000   1967000        701.91416     -301.81542      51231.707      51852.088      22636.299      29215.789      9884.2154      8833.2944      7191.2294      879.81223      1378.0587      8133.6219     -7084.4429     -775.87809      140942.43      52.041193      52.041193      52.041193      1.0430059      1179.3934     -2639.0772      554.23753    
   1968000   1968000        691.49496      1764.1006      54894.38       51268.27       22300.287      28967.983      9730.6645      8930.8532      6918.0781      866.80862      1480.3926      8129.9259     -7088.7394     -775.87809      140942.43      52.041193      52.041193      52.041193      1.0430059      2351.8399      1590.7732      1349.6888    
   1969000   1969000        698.87255     -533.04485      50400.963      51496.637      22538.209      28958.428      9527.6033      9028.9541      7199.0117      857.76406      1317.5682      8120.0377     -7092.5115     -775.87809      140942.43      52.041193      52.041193      52.041193      1.0430059      207.04878      33.921505     -1840.1048    
   1970000   1970000        700.82143     -396.8334       50295.056      51110.748      22601.059      28509.688      9479.2691      8744.1968      6949.6418      889.31547      1415.0998      8120.7278     -7088.5624     -775.87809      140942.43      52.041193      52.041193      52.041193      1.0430059     -271.8887       82.353992     -1000.9655    
   1971000   1971000        698.924        856.28596      53007.15       51247.053      22539.868      28707.185      9784.1385      8895.394       6826.3743      873.58006      1284.1865      8126.9437     -7083.432      -775.87809      140942.43      52.041193      52.041193      52.041193      1.0430059      1620.1439      281.20078      667.51324    
   1972000   1972000        702.50329     -774.25555      49957.292      51548.775      22655.298      28893.476      10015.581      8599.7803      6950.8274      887.36268      1400.5367      8125.6749     -7086.287      -775.87809      140942.43      52.041193      52.041193      52.041193      1.0430059     -179.28806     -906.49259     -1236.986     
   1973000   1973000        698.54101     -45.637761      51075.238      51169.047      22527.517      28641.529      9835.9129      8870.778       6708.3851      845.69379      1324.6488      8137.7326     -7081.6219     -775.87809      140942.43      52.041193      52.041193      52.041193      1.0430059      941.39578     -1178.0855      99.776397    
   1974000   1974000        701.03465      1163.2043      53912.681      51521.714      22607.936      28913.778      9759.9883      8902.4151      6920.1739      882.71323      1385.4363      8143.5103     -7080.4587     -775.87809      140942.43      52.041193      52.041193      52.041193      1.0430059      1604.4074      1099.1788      786.02672    
   1975000   1975000        697.13887     -244.49147      50786.682      51289.235      22482.299      28806.936      9698.3824      8758.9588      7042.7452      867.68844      1409.9907      8113.846      -7084.6757     -775.87809      140942.43      52.041193      52.041193      52.041193      1.0430059      1110.3329     -1374.2669     -469.54048    
   1976000   1976000        688.82025      1405.3847      54083.807      51195.038      22214.029      28981.009      9735.8977      8955.9934      6973.8853      916.02706      1377.6612      8110.808      -7089.2638     -775.87809      140942.43      52.041193      52.041193      52.041193      1.0430059      2563.6534      557.38731      1095.1134    
   1977000   1977000        696.62429     -146.953        51234.861      51536.923      22465.704      29071.219      9831.1629      8900.0845      6996.0614      888.48035      1385.0084      8152.192      -7081.7709     -775.87809      140942.43      52.041193      52.041193      52.041193      1.0430059     -436.91476     -69.181727      65.237469    
   1978000   1978000        692.58829      782.92366      52805.768      51196.467      22335.546      28860.922      9772.562       8833.9168      6892.3767      915.16573      1404.7413      8129.8613     -7087.7019     -775.87809      140942.43      52.041193      52.041193      52.041193      1.0430059      831.90031      2258.4583     -741.58765    
   1979000   1979000        705.81845     -666.17468      50206.8        51576.123      22762.21       28813.912      9596.6558      8874.3049      7035.1361      889.47547      1384.8954      8119.8349     -7086.3901     -775.87809      140942.43      52.041193      52.041193      52.041193      1.0430059     -99.70407      -987.18409     -911.63587    
   1980000   1980000        709.63406     -1954.3193      47826.519      51843.624      22885.261      28958.363      9737.0159      8887.4296      7164.6799      901.47624      1237.3192      8116.6421     -7086.2001     -775.87809      140942.43      52.041193      52.041193      52.041193      1.0430059     -1269.0578     -2585.8535     -2008.0467    
   1981000   1981000        698.52081     -314.55408      50739.932      51386.499      22526.866      28859.633      9741.3831      8828.6323      6984.6879      857.58546      1399.0765      8129.6218     -7081.3544     -775.87809      140942.43      52.041193      52.041193      52.041193      1.0430059     -204.56516     -586.71076     -152.38633    
   1982000   1982000        707.06451      111.91805      52035.119      51805.071      22802.395      29002.676      9797.7489      8960.8014      6979.3036      875.07467      1319.4766      8144.3878     -7074.1169     -775.87809      140942.43      52.041193      52.041193      52.041193      1.0430059     -823.79019      908.63586      250.90848    
   1983000   1983000        697.66922      1506.1999      54429.3        51333.305      22499.403      28833.902      9758.4301      8956.9028      6851.4901      880.25077      1345.9728      8125.3007     -7084.445      -775.87809      140942.43      52.041193      52.041193      52.041193      1.0430059      1535.0053      1397.3637      1586.2306    
   1984000   1984000        697.49743      636.10101      52714.048      51406.542      22493.862      28912.679      9673.8361      8845.8578      7113.8777      894.76419      1342.1676      8129.777      -7087.601      -775.87809      140942.43      52.041193      52.041193      52.041193      1.0430059      794.69395      674.67041      438.93866    
   1985000   1985000        703.91771      672.2935       52990.618      51608.719      22700.912      28907.806      9898.3658      8754.2925      6932.7084      882.71385      1383.832       8142.0117     -7086.1181     -775.87809      140942.43      52.041193      52.041193      52.041193      1.0430059     -1527.2214      2633.7956      910.30632    
   1986000   1986000        688.63261      1365.3033      53955.239      51148.857      22207.977      28940.88       9735.1162      8943.1459      6885.2219      881.56034      1426.5388      8147.8878     -7078.5912     -775.87809      140942.43      52.041193      52.041193      52.041193      1.0430059      3007.1871      253.00067      835.72226    
   1987000   1987000        697.07839      1341.4967      54367.546      51610.099      22480.349      29129.75       9992.4533      8850.8276      6890.6896      875.30354      1494.7197      8113.3403     -7087.5843     -775.87809      140942.43      52.041193      52.041193      52.041193      1.0430059      2861.8103     -162.64818      1325.328     
   1988000   1988000        698.71103     -709.04717      50120.539      51577.986      22533          29044.986      9923.9032      8868.3176      7031.1616      870.38505      1304.6715      8128.9553     -7082.4086     -775.87809      140942.43      52.041193      52.041193      52.041193      1.0430059     -1850.2882     -980.94386      704.09051    
   1989000   1989000        685.47026     -853.75528      49426.149      51181.044      22105.994      29075.05       9685.3556      9002.9843      7150.7223      885.95566      1330.6298      8104.3473     -7084.9447     -775.87809      140942.43      52.041193      52.041193      52.041193      1.0430059     -1003.8438     -1037.0601     -520.36198    
   1990000   1990000        702.20426     -188.30752      51107.002      51494.068      22645.655      28848.414      9637.8569      8898.3657      7034.9227      895.08027      1393.3587      8084.725      -7095.8957     -775.87809      140942.43      52.041193      52.041193      52.041193      1.0430059     -266.36823     -1005.6331      707.07879    
   1991000   1991000        701.10987     -1228.6001      49011.846      51537.235      22610.361      28926.873      9741.234       8821.0243      7258.9014      887.56382      1194.7308      8112.191      -7088.772      -775.87809      140942.43      52.041193      52.041193      52.041193      1.0430059     -1130.7979     -395.6725      -2159.3298    
   1992000   1992000        707.27285     -202.59116      51401.753      51818.179      22809.114      29009.065      9631.3592      8810.4144      7270.6546      897.06475      1381.5566      8106.1721     -7088.1563     -775.87809      140942.43      52.041193      52.041193      52.041193      1.0430059     -832.73128      477.5911      -252.63329    
   1993000   1993000        705.49284     -866.87705      49529.773      51311.639      22751.709      28559.929      9493.5908      8738.2698      7061.9945      895.09796      1332.8433      8127.8293     -7089.6962     -775.87809      140942.43      52.041193      52.041193      52.041193      1.0430059     -582.37827     -1706.437      -311.81587    
   1994000   1994000        698.75064      42.457818      51294.316      51207.044      22534.278      28672.766      9744.2635      8630.3859      7002.0758      883.55064      1397.1043      8100.8015     -7085.4156     -775.87809      140942.43      52.041193      52.041193      52.041193      1.0430059      604.03101     -692.84122      216.18367    
   1995000   1995000        703.07482      557.2022       52823.77       51678.441      22673.73       29004.711      9720.5647      8827.1754      7134.9503      878.31706      1402.7125      8120.6928     -7079.7015     -775.87809      140942.43      52.041193      52.041193      52.041193      1.0430059      661.344        244.08558      766.17702    
   1996000   1996000        700.93815      62.981323      51390.061      51260.602      22604.823      28655.779      9635.5687      8762.7854      7009.0154      891.97608      1329.4663      8111.822      -7084.855      -775.87809      140942.43      52.041193      52.041193      52.041193      1.0430059      179.99013      25.931001     -16.97716     
   1997000   1997000        697.3678       225.50482      52111.15       51647.625      22489.682      29157.943      9824.2826      8911.6694      7062.1522      877.87306      1421.3484      8140.3397     -7079.7223     -775.87809      140942.43      52.041193      52.041193      52.041193      1.0430059     -1156.4305      1703.0068      129.93815    
   1998000   1998000        710.01267     -291.96032      51025.155      51625.28       22897.471      28727.809      9716.1256      9044.872       6806.1068      877.4577       1250.0702      8117.6873     -7084.5112     -775.87809      140942.43      52.041193      52.041193      52.041193      1.0430059      649.00378      197.97167     -1722.8564    
   1999000   1999000        695.64941      984.4118       53147.66       51124.201      22434.265      28689.936      9663.987       8791.5866      6966.007       853.56957      1373.2308      8118.4711     -7076.9163     -775.87809      140942.43      52.041193      52.041193      52.041193      1.0430059      1293.9998      243.91707      1415.3185    
   2000000   2000000        706.19381     -110.52485      51465.22       51692.404      22774.315      28918.089      9727.9641      8961.9456      6967.707       885.23071      1322.1667      8136.3175     -7083.2427     -775.87809      140942.43      52.041193      52.041193      52.041193      1.0430059     -1348.9112     -252.38893      1269.7256    
Loop time of 8298.38 on 1 procs for 2000000 steps with 10820 atoms

Performance: 20.823 ns/day, 1.153 hours/ns, 241.011 timesteps/s, 2.608 Matom-step/s
100.0% CPU use with 1 MPI tasks x 1 OpenMP threads

MPI task timing breakdown:
Section |  min time  |  avg time  |  max time  |%varavg| %total
---------------------------------------------------------------
Pair    | 43.896     | 43.896     | 43.896     |   0.0 |  0.53
Bond    | 4460.4     | 4460.4     | 4460.4     |   0.0 | 53.75
Kspace  | 1973.3     | 1973.3     | 1973.3     |   0.0 | 23.78
Neigh   | 1256.4     | 1256.4     | 1256.4     |   0.0 | 15.14
Comm    | 148.14     | 148.14     | 148.14     |   0.0 |  1.79
Output  | 43.523     | 43.523     | 43.523     |   0.0 |  0.52
Modify  | 300.75     | 300.75     | 300.75     |   0.0 |  3.62
Other   |            | 71.9       |            |       |  0.87

Nlocal:          10820 ave       10820 max       10820 min
Histogram: 1 0 0 0 0 0 0 0 0 0
Nghost:          21675 ave       21675 max       21675 min
Histogram: 1 0 0 0 0 0 0 0 0 0
Neighs:              0 ave           0 max           0 min
Histogram: 1 0 0 0 0 0 0 0 0 0
FullNghs:   5.2812e+06 ave  5.2812e+06 max  5.2812e+06 min
Histogram: 1 0 0 0 0 0 0 0 0 0

Total # of neighbors = 5281198
Ave neighs/atom = 488.09593
Ave special neighs/atom = 5.7689464
Neighbor list builds = 153986
Dangerous builds = 0

# --- Cleanup ---
unfix nvt_fix

undump dump_nvt

# --- Write Output ---
write_dump all custom nvt_production_last.dump id type mol x y z xu yu zu vx vy vz modify sort id
write_data /home/arz2/PolyJarvis/data/PSU2/lammps/equil/nvt_production/nvt_production_out.data
System init for write_data ...
PPPM Kokkos initialization ...
  using 12-bit tables for long-range coulomb
  G vector (1/distance) = 0.29848172
  grid = 36 36 36
  stencil order = 5
  estimated absolute RMS force accuracy = 0.00032898345
  estimated relative force accuracy = 9.9072389e-07
  using double precision cuFFT
  3d grid and FFT values/proc = 79507 46656
Generated 28 of 28 mixed pair_coeff terms from sixthpower/sixthpower mixing rule

print "STAGE COMPLETE: NVT T=700.0->700.0K steps=2000000"
STAGE COMPLETE: NVT T=700.0->700.0K steps=2000000
quit
       |            |       |  0.87

Nlocal:          10820 ave       10820 max       10820 min
Histogram: 1 0 0 0 0 0 0 0 0 0
Nghost:          21675 ave       21675 max       21675 min
Histogram: 1 0 0 0 0 0 0 0 0 0
Neighs:              0 ave           0 max           0 min
Histogram: 1 0 0 0 0 0 0 0 0 0
FullNghs:   5.2812e+06 ave  5.2812e+06 max  5.2812e+06 min
Histogram: 1 0 0 0 0 0 0 0 0 0

Total # of neighbors = 5281198
Ave neighs/atom = 488.09593
Ave special neighs/atom = 5.7689464
Neighbor list builds = 153986
Dangerous builds = 0
System init for write_data ...
PPPM Kokkos initialization ...
  using 12-bit tables for long-range coulomb
  G vector (1/distance) = 0.29848172
  grid = 36 36 36
  stencil order = 5
  estimated absolute RMS force accuracy = 0.00032898345
  estimated relative force accuracy = 9.9072389e-07
  using double precision cuFFT
  3d grid and FFT values/proc = 79507 46656
Generated 28 of 28 mixed pair_coeff terms from sixthpower/sixthpower mixing rule
STAGE COMPLETE: NVT T=700.0->700.0K steps=2000000
