LAMMPS data file via write_data, version 22 Jul 2025, timestep = 1000000, units = real

7520 atoms
6 atom types
7510 bonds
9 bond types
14000 angles
17 angle types
18910 dihedrals
22 dihedral types
8500 impropers
14 improper types

4.492952225975319 47.25804590401138 xlo xhi
4.492952225975319 47.25804590401138 ylo yhi
4.492952225975319 47.25804590401138 zlo zhi

Masses

1 12.01115
2 12.01115
3 12.01115
4 1.00797
5 15.9994
6 15.9994

Pair Coeffs # lj/class2/coul/long/kk

1 0.054 4.01
2 0.054 4.01
3 0.12 3.81
4 0.02 2.995
5 0.267 3.3
6 0.24 3.42

Bond Coeffs # class2/kk

1 1.53 299.67 -501.77 679.81
2 1.53 299.67 -501.77 679.81
3 1.5202 253.707 -423.037 396.9
4 1.101 345 -691.89 844.6
5 1.43 326.727 -608.531 689.033
6 1.5202 253.707 -423.037 396.9
7 1.101 345 -691.89 844.6
8 1.202 851.14 -1918.49 2160.77
9 1.3683 367.148 -794.791 1055.23

Angle Coeffs # class2/kk

1 112.67 39.516 -7.443 -9.5583
2 112.67 39.516 -7.443 -9.5583
3 108.53 51.9747 -9.4851 -10.9985
4 110.77 41.453 -10.604 5.129
5 112.67 39.516 -7.443 -9.5583
6 108.53 51.9747 -9.4851 -10.9985
7 110.77 41.453 -10.604 5.129
8 123.145 55.5431 -17.2123 0.1348
9 100.318 38.8631 -3.8323 -7.9802
10 113.288 61.2868 -28.9786 7.9929
11 110.77 41.453 -10.604 5.129
12 123.145 55.5431 -17.2123 0.1348
13 100.318 38.8631 -3.8323 -7.9802
14 107.734 40.6099 -28.8121 0
15 107.66 39.641 -12.921 -2.4318
16 107.688 65.4801 -10.3498 5.8866
17 120.797 95.3446 -32.2869 6.3778

BondBond Coeffs

1 0 1.53 1.53
2 0 1.53 1.53
3 5.4199 1.53 1.5202
4 3.3872 1.53 1.101
5 0 1.53 1.53
6 5.4199 1.53 1.5202
7 3.3872 1.53 1.101
8 46.0685 1.5202 1.202
9 19.1069 1.5202 1.3683
10 45.4503 1.43 1.3683
11 3.3872 1.53 1.101
12 46.0685 1.5202 1.202
13 19.1069 1.5202 1.3683
14 0.7115 1.5202 1.101
15 5.3316 1.101 1.101
16 5.6454 1.101 1.43
17 121.488 1.202 1.3683

BondAngle Coeffs

1 8.016 8.016 1.53 1.53
2 8.016 8.016 1.53 1.53
3 18.1678 15.8758 1.53 1.5202
4 20.754 11.421 1.53 1.101
5 8.016 8.016 1.53 1.53
6 18.1678 15.8758 1.53 1.5202
7 20.754 11.421 1.53 1.101
8 34.9982 37.1298 1.5202 1.202
9 1.3435 4.6978 1.5202 1.3683
10 41.9116 46.4608 1.43 1.3683
11 20.754 11.421 1.53 1.101
12 34.9982 37.1298 1.5202 1.202
13 1.3435 4.6978 1.5202 1.3683
14 12.4632 9.1765 1.5202 1.101
15 18.103 18.103 1.101 1.101
16 8.6864 57.4975 1.101 1.43
17 76.2614 71.8761 1.202 1.3683

Dihedral Coeffs # class2/kk

1 0 0 0.0514 0 -0.143 0
2 0 0 0.0514 0 -0.143 0
3 0.0972 0 0.0722 0 -0.2581 0
4 0 0 0.0316 0 -0.1681 0
5 0 0 0.0514 0 -0.143 0
6 0.0972 0 0.0722 0 -0.2581 0
7 0 0 0.0316 0 -0.1681 0
8 0.0442 0 0.0292 0 0.0562 0
9 1.8341 0 2.0603 0 -0.0195 0
10 0 0 0.0316 0 -0.1681 0
11 0.0442 0 0.0292 0 0.0562 0
12 1.8341 0 2.0603 0 -0.0195 0
13 -2.5594 0 2.2013 0 0.0325 0
14 -2.5594 0 2.2013 0 0.0325 0
15 0 0 2.2089 0 0 0
16 0.0972 0 0.0722 0 -0.2581 0
17 -0.0228 0 0.028 0 -0.1863 0
18 -0.0228 0 0.028 0 -0.1863 0
19 0 0 0 0 -0.1932 0
20 -0.1432 0 0.0617 0 -0.1083 0
21 -0.1804 0 0.0012 0 0.0371 0
22 -0.6359 0 1.4807 0 -0.0438 0

AngleAngleTorsion Coeffs

1 -22.045 112.67 112.67
2 -22.045 112.67 112.67
3 -0.3801 112.67 108.53
4 -16.164 112.67 110.77
5 -22.045 112.67 112.67
6 -0.3801 112.67 108.53
7 -16.164 112.67 110.77
8 -8.019 108.53 123.145
9 0 108.53 100.318
10 -16.164 112.67 110.77
11 -8.019 108.53 123.145
12 0 108.53 100.318
13 0 100.318 113.288
14 0 113.288 100.318
15 0 113.288 120.797
16 -0.3801 112.67 108.53
17 -5.3624 108.53 110.77
18 -5.3624 108.53 110.77
19 0 113.288 107.688
20 -12.564 110.77 110.77
21 -15.3496 107.734 123.145
22 0 107.734 100.318

EndBondTorsion Coeffs

1 -0.0732 0 0 -0.0732 0 0 1.53 1.53
2 -0.0732 0 0 -0.0732 0 0 1.53 1.53
3 0.0062 -0.0002 0.0036 0.0055 0.006 -0.0009 1.53 1.5202
4 0.2486 0.2422 -0.0925 0.0814 0.0591 0.2219 1.53 1.101
5 -0.0732 0 0 -0.0732 0 0 1.53 1.53
6 0.0062 -0.0002 0.0036 0.0055 0.006 -0.0009 1.53 1.5202
7 0.2486 0.2422 -0.0925 0.0814 0.0591 0.2219 1.53 1.101
8 0.2654 0.0503 0.1046 -0.281 0.0816 -0.1522 1.53 1.202
9 0 0 0 0 0 0 1.53 1.3683
10 0.2486 0.2422 -0.0925 0.0814 0.0591 0.2219 1.53 1.101
11 0.2654 0.0503 0.1046 -0.281 0.0816 -0.1522 1.53 1.202
12 0 0 0 0 0 0 1.53 1.3683
13 0 0 0 0 0 0 1.5202 1.43
14 0 0 0 0 0 0 1.43 1.5202
15 0 0 0 0 0 0 1.43 1.202
16 0.0062 -0.0002 0.0036 0.0055 0.006 -0.0009 1.53 1.5202
17 -0.0204 0.3628 -0.4426 -0.0097 -0.0315 -0.0755 1.5202 1.101
18 -0.0204 0.3628 -0.4426 -0.0097 -0.0315 -0.0755 1.5202 1.101
19 0 0 0 0 0 0 1.3683 1.101
20 0.213 0.312 0.0777 0.213 0.312 0.0777 1.101 1.101
21 1.2143 0.2831 0.3916 -0.2298 0.0354 0.3853 1.101 1.202
22 0 0 0 0 0 0 1.101 1.3683

MiddleBondTorsion Coeffs

1 -17.787 -7.1877 0 1.53
2 -17.787 -7.1877 0 1.53
3 -1.5945 0.2267 -0.6911 1.53
4 -14.879 -3.6581 -0.3138 1.53
5 -17.787 -7.1877 0 1.53
6 -1.5945 0.2267 -0.6911 1.53
7 -14.879 -3.6581 -0.3138 1.53
8 0.3388 -0.1096 0.1219 1.5202
9 -17.328 -5.79 -3.2114 1.5202
10 -14.879 -3.6581 -0.3138 1.53
11 0.3388 -0.1096 0.1219 1.5202
12 -17.328 -5.79 -3.2114 1.5202
13 1.3445 3.5515 -4.9202 1.3683
14 1.3445 3.5515 -4.9202 1.3683
15 4.26 0 0 1.3683
16 -1.5945 0.2267 -0.6911 1.53
17 -3.5039 1.2458 -0.761 1.53
18 -3.5039 1.2458 -0.761 1.53
19 0 0 0 1.43
20 -14.261 -0.5322 -0.4864 1.53
21 0.2359 0.9139 0.9594 1.5202
22 -13.7686 -2.5959 1.1934 1.5202

BondBond13 Coeffs

1 0 1.53 1.53
2 0 1.53 1.53
3 0 1.53 1.5202
4 0 1.53 1.101
5 0 1.53 1.53
6 0 1.53 1.5202
7 0 1.53 1.101
8 0 1.53 1.202
9 0 1.53 1.3683
10 0 1.53 1.101
11 0 1.53 1.202
12 0 1.53 1.3683
13 0 1.5202 1.43
14 0 1.43 1.5202
15 0 1.43 1.202
16 0 1.53 1.5202
17 0 1.5202 1.101
18 0 1.5202 1.101
19 0 1.3683 1.101
20 0 1.101 1.101
21 0 1.101 1.202
22 0 1.101 1.3683

AngleTorsion Coeffs

1 0.3886 -0.3139 0.1389 0.3886 -0.3139 0.1389 112.67 112.67
2 0.3886 -0.3139 0.1389 0.3886 -0.3139 0.1389 112.67 112.67
3 -0.2607 0.3203 -0.2283 0.0515 -0.0674 -0.0474 112.67 108.53
4 -0.2454 0 -0.1136 0.3113 0.4516 -0.1988 112.67 110.77
5 0.3886 -0.3139 0.1389 0.3886 -0.3139 0.1389 112.67 112.67
6 -0.2607 0.3203 -0.2283 0.0515 -0.0674 -0.0474 112.67 108.53
7 -0.2454 0 -0.1136 0.3113 0.4516 -0.1988 112.67 110.77
8 0.0885 -1.3703 -0.5452 0.675 0.5965 0.6725 108.53 123.145
9 0 0 0 0 0 0 108.53 100.318
10 -0.2454 0 -0.1136 0.3113 0.4516 -0.1988 112.67 110.77
11 0.0885 -1.3703 -0.5452 0.675 0.5965 0.6725 108.53 123.145
12 0 0 0 0 0 0 108.53 100.318
13 0 0 0 0 0 0 100.318 113.288
14 0 0 0 0 0 0 113.288 100.318
15 0 0 0 0 0 0 113.288 120.797
16 -0.2607 0.3203 -0.2283 0.0515 -0.0674 -0.0474 112.67 108.53
17 -0.7466 -0.9448 -0.6321 0.0162 1.4211 -1.4092 108.53 110.77
18 -0.7466 -0.9448 -0.6321 0.0162 1.4211 -1.4092 108.53 110.77
19 0 0 0 0 0 0 113.288 107.688
20 -0.8085 0.5569 -0.2466 -0.8085 0.5569 -0.2466 110.77 110.77
21 9.1299 -0.4847 0.3582 -1.4946 0.7308 -0.2083 107.734 123.145
22 0 0 0 0 0 0 107.734 100.318

Improper Coeffs # class2/kk

1 0 0
2 0 0
3 0 0
4 0 0
5 0 0
6 0 0
7 0 0
8 0 0
9 0 0
10 0 0
11 0 0
12 0 0
13 46.9264 0
14 46.9264 0

AngleAngle Coeffs

1 -0.1729 -0.1729 -0.1729 112.67 112.67 112.67
2 0 0 0 112.67 108.53 108.53
3 -1.3199 -1.3199 0.1184 112.67 110.77 110.77
4 -1.3199 -1.3199 0.1184 112.67 110.77 110.77
5 0.2738 -0.4825 0.2738 110.77 110.77 107.66
6 0.2738 -0.4825 0.2738 110.77 110.77 107.66
7 -0.3157 -0.3157 -0.3157 107.66 107.66 107.66
8 0 0 0 107.66 107.688 107.688
9 0 0 0 112.67 108.53 108.53
10 -1.3199 -1.3199 0.1184 112.67 110.77 110.77
11 2.0403 -1.8202 1.0827 108.53 110.77 107.734
12 1.0827 -1.8202 2.0403 110.77 108.53 107.734
13 0 0 0 100.318 123.145 120.797
14 0 0 0 100.318 123.145 120.797

Atoms # full/kk

380 1 1 -0.159 9.764803623689092 10.164964957193744 9.25763352345184 0 1 0
399 1 3 0.702 9.611793286551 9.566044271386659 5.737428100238354 0 1 0
809 2 1 0.066 8.784172110905669 5.99971306249879 7.491202823672296 1 0 1
382 1 4 0.053 8.877192034326296 9.617628735710941 9.290093802062929 0 1 0
810 2 4 0.053 8.768618920444329 6.9182729692334695 8.051970827408796 1 0 1
598 1 4 0.053 5.371725648501452 5.777019575362636 6.909248061671302 0 1 0
811 2 4 0.053 8.241467672273018 5.202796691609079 8.02048190945633 1 0 1
398 1 4 0.053 7.619652478361768 10.164809948387514 7.59929782109118 0 1 0
812 2 4 0.053 8.112849732256306 6.08752235189744 6.620276817600434 1 0 1
400 1 5 -0.531 10.265902558736991 8.82414577706668 6.389966200210019 0 1 0
597 1 1 0.066 4.880786846623398 6.678142034296966 7.356831083538831 0 1 0
599 1 4 0.053 5.5305019066390955 7.051100991555784 8.242619245887488 0 1 0
381 1 4 0.053 10.08950792756842 10.130526018438577 10.311523768325266 0 1 0
808 2 6 -0.396 10.164479907945823 5.844590896936724 7.199799725298343 1 0 1
383 1 4 0.053 10.449042127829388 9.62073182702919 8.648821057916793 0 1 0
807 2 5 -0.531 10.722358149485355 5.295435664572737 9.32173417026396 1 0 1
806 2 3 0.702 11.006413098436322 5.339382029567494 8.171791985876688 1 0 1
818 2 4 0.053 13.815185438237533 8.80902722400497 8.015890148293542 1 0 1
819 2 4 0.053 12.08644087954038 8.535758466817267 7.464894574351009 1 0 1
820 2 4 0.053 12.975281366890023 7.511459147589758 8.722531024215847 1 0 1
817 2 1 -0.159 13.148205210166031 8.029022469627954 7.806321071165427 1 0 1
816 2 1 0 13.517858411646124 7.2187182287080764 6.502534098033515 1 0 1
813 2 1 -0.106 12.664705852199091 6.024842962663679 6.142965087839471 1 0 1
821 2 3 0.702 14.945841584486667 6.754470949209152 6.548934062466591 1 0 1
814 2 4 0.053 11.74016668953385 6.276173174540789 5.691840757167049 1 0 1
815 2 4 0.053 13.164448274548118 5.567509899415883 5.243383627245411 1 0 1
801 2 1 0 12.286895124639178 4.921639884570417 7.397799901700295 1 0 1
822 2 5 -0.531 15.41566755223079 5.702556322444361 6.16337611714241 1 0 1
805 2 4 0.053 13.95011564428626 5.721840056537919 8.536889835234929 1 0 1
823 2 6 -0.396 15.698928668415626 7.706403028627904 7.15306206672613 1 0 1
830 2 4 0.053 14.366891487026582 9.119867343761122 5.826524374606805 1 0 1
828 2 1 -0.106 13.63313874067496 8.331895888872564 5.437519273404753 1 0 1
829 2 4 0.053 12.64844109959167 9.031937732351995 5.381595924992658 1 0 1
315 1 4 0.053 16.344844722416745 10.754670618399238 11.337836123496844 0 1 0
827 2 4 0.053 16.99205289113062 6.803648205833469 8.511003145468536 1 0 1
825 2 4 0.053 17.544786375631926 8.33327334057933 7.629438628017367 1 0 1
824 2 1 0.066 17.02036940733815 7.3133123504444395 7.569312887055578 1 0 1
278 1 4 0.053 20.5744282682562 9.816977820622254 6.153064571889472 0 1 0
275 1 1 -0.159 20.8588426766536 9.547259349019981 7.216901176888738 0 1 0
277 1 4 0.053 20.053103122296555 9.412973157227917 7.932515978229892 0 1 0
276 1 4 0.053 21.1426927531041 8.480096506388369 6.887272195608785 0 1 0
281 1 6 -0.396 21.69876861435196 9.873094159567874 9.71460436230883 0 1 0
314 1 4 0.053 16.472260690664598 10.453345295027802 9.489782018183782 0 1 0
312 1 1 0.066 16.457994603885272 11.236949111419635 10.333944326745364 0 1 0
284 1 4 0.053 20.636713344397947 10.138324496230858 11.405937692193675 0 1 0
826 2 4 0.053 17.519103731696898 6.742590567795039 6.793601927918903 1 0 1
4490 6 5 -0.531 20.374324221400883 4.8929068655046635 7.160977012728728 -1 1 1
282 1 1 0.066 21.630702264564896 9.934426075787446 11.1052458322224 0 1 0
231 1 4 0.053 23.039849418404174 46.89213513570692 8.786742716013746 0 0 0
239 1 4 0.053 25.47917802518702 4.842544713777275 4.558757747886831 0 1 0
241 1 1 -0.106 25.962782189091847 6.522794018924466 8.841118200045447 0 1 0
258 1 4 0.053 24.43400426148135 6.878673023824064 6.918100070030392 0 1 0
256 1 1 -0.106 24.50372224288424 7.884382453443908 7.326614131205672 0 1 0
257 1 4 0.053 23.876833886844572 7.984128041736991 8.221523723291206 0 1 0
246 1 4 0.053 26.912747246211392 9.0000132788354 9.683396086057272 0 1 0
244 1 1 0 25.88175690295286 7.848906515467913 7.893616382942604 0 1 0
243 1 4 0.053 25.484903891991333 6.818465993336513 9.838869880000734 0 1 0
259 1 1 0 24.15253215027927 8.85446054303352 6.18854410621288 0 1 0
245 1 1 -0.159 26.23484429848272 9.177574634948432 8.820811340076204 0 1 0
248 1 4 0.053 26.553453747810416 10.07183708313801 8.226263532613116 0 1 0
247 1 4 0.053 25.33266606533919 9.307915773904252 9.302091071310036 0 1 0
242 1 4 0.053 26.99008789157873 6.273902839145303 9.104330440084226 0 1 0
229 1 1 0 25.173759816787083 5.099570521125369 8.71871377160138 0 1 0
232 1 4 0.053 22.923327333971926 5.816980890668553 8.529445380652872 0 1 0
230 1 1 -0.159 23.582989066123794 5.049864676539224 8.974022335473622 0 1 0
233 1 4 0.053 23.494929043693666 5.136382049842505 10.136050058020107 0 1 0
234 1 3 0.702 25.761597570144552 4.6199837084320245 7.313004326756306 0 1 0
249 1 3 0.702 27.066759573668147 7.6007908591529425 7.011416050129148 0 1 0
260 1 1 -0.159 25.278455800673306 9.34769626782718 5.193994518480207 0 1 0
250 1 5 -0.531 27.12535149713178 7.011660147221333 6.006761083739311 0 1 0
235 1 5 -0.531 26.876205310621266 4.495025926347168 6.887887079291689 0 1 0
274 1 1 0 22.14811136929542 10.438235505897946 7.483649480533364 0 1 0
237 1 1 0.066 24.986372172717 46.76608679358891 5.170698613499176 0 0 0
279 1 3 0.702 22.43108355773859 10.724871568099736 9.030881100423985 0 1 0
236 1 6 -0.396 24.68392150935725 47.1833448256192 6.565870128459152 0 0 0
264 1 3 0.702 23.081663638545756 8.052627288110049 5.3496346899214124 0 1 0
261 1 4 0.053 25.608599342303624 8.485803822486245 4.541082824314784 0 1 0
271 1 1 -0.106 23.483401266973413 10.216046042530628 6.678479403897175 0 1 0
223 1 4 0.053 31.197351269719725 46.53724732880683 9.370233886850796 0 0 0
6518 9 4 0.053 33.23005608561346 10.560363251655328 10.805053409549263 0 0 0
225 1 4 0.053 30.901946917248534 46.711224593055206 7.784072623865796 0 0 0
3637 5 4 0.053 31.21565910698029 10.879671370499587 46.14141517167319 0 0 -1
6554 9 4 0.053 33.92002718253433 5.091254497471533 5.49301347833019 0 0 0
6599 9 4 0.053 32.44969885382875 6.437129156492724 10.396699668828344 0 0 0
6517 9 4 0.053 34.125113116674115 9.791325056659183 9.537364746223469 0 0 0
251 1 6 -0.396 28.185908213859985 7.89914411962413 7.7050189276557575 0 1 0
255 1 4 0.053 29.314010474311598 6.403564018413902 6.656073607900213 0 1 0
254 1 4 0.053 29.93669373171558 8.050862756761965 6.71137250451042 0 1 0
252 1 1 0.066 29.329667333098 7.295356223350961 7.216123376380214 0 1 0
253 1 4 0.053 29.969095543842876 7.030168207818821 8.137726120797108 0 1 0
6551 9 5 -0.531 33.60125593152124 7.370427200539282 7.060640990309631 0 0 0
6544 9 4 0.053 34.052281826242286 10.013488791922141 7.25734986909452 0 0 0
6550 9 3 0.702 34.64210350346392 7.514591522922645 6.4176030130411155 0 0 0
6552 9 6 -0.396 34.9906236326674 6.882954959759164 5.300241156728171 0 0 0
6542 9 1 -0.106 35.07242557707821 9.972365769806572 6.843105035833261 0 0 0
582 1 1 0.066 40.593442792477546 9.097382174034504 5.581363237517998 -1 1 0
6564 9 4 0.053 38.906477198116974 7.298311599762181 7.641270932382979 0 0 0
6565 9 3 0.702 36.95945189945715 5.699720616427515 8.043549611533829 0 0 0
6547 9 4 0.053 36.949013921758635 8.89406642375673 5.070749273184121 0 0 0
6549 9 4 0.053 37.6905150168176 9.128891167956265 6.778694499712419 0 0 0
6558 9 4 0.053 35.26900753041817 8.013903757320184 9.080394618722059 0 0 0
6545 9 1 0 35.8022795675607 8.5374664628257 6.932589834220567 0 0 0
6548 9 4 0.053 37.55460239662614 7.498718921373838 5.937688994370723 0 0 0
585 1 4 0.053 40.05724165136819 8.262441769101752 5.848605590622022 -1 1 0
6560 9 1 0 37.139961024162346 7.014693471910755 8.878349168667357 0 0 0
6573 9 4 0.053 36.80623933750532 7.715595975893462 10.930651373204219 0 0 0
6572 9 1 -0.106 36.69590141825874 6.754589163726717 10.317463942697033 0 0 0
6574 9 4 0.053 35.65577485626047 6.52845980808935 10.212878053092394 0 0 0
6577 9 4 0.053 38.74568402115925 46.93124318720376 10.145988385834158 0 -1 0
2338 4 4 0.053 38.87734406640867 5.425746927344432 5.047900933309796 0 1 1
6562 9 4 0.053 38.61798113396053 8.459233151866293 8.898987276685466 0 0 0
6543 9 4 0.053 34.67990680535499 10.07222031404642 5.799888053029447 0 0 0
6546 9 1 -0.159 37.097644028203845 8.470173958165695 6.084704230940589 0 0 0
583 1 4 0.053 40.18192135382871 10.010026491605066 6.092937756749199 -1 1 0
6563 9 4 0.053 39.27179808804061 6.723331292352262 9.256976769623124 0 0 0
6561 9 1 -0.159 38.54850402612465 7.409657850936885 8.629741592625702 0 0 0
6559 9 4 0.053 36.557844868645816 9.240772484694176 8.760443084729424 0 0 0
6566 9 5 -0.531 37.751295431957274 5.205992450130437 7.309588482364764 0 0 0
6567 9 6 -0.396 35.75181889945938 5.1776053255790995 8.26798254420816 0 0 0
6557 9 1 -0.106 36.18774108332672 8.145102238516806 8.42038436553179 0 0 0
573 1 4 0.053 43.2332848774663 9.721776836804121 9.723046973537912 -1 1 0
590 1 1 -0.159 42.607839496433186 5.901468028579854 7.046284044342258 -1 1 0
581 1 6 -0.396 41.980597911446026 9.068950531503923 6.039118639337609 -1 1 0
586 1 1 -0.106 43.82439778757468 7.5679721624600305 8.56699273475487 -1 1 0
600 1 4 0.053 4.680090068574867 7.551260209300354 6.719901181617252 0 1 0
595 1 5 -0.531 45.35267436632493 5.749814029455418 5.892381699141699 -1 1 0
603 1 4 0.053 44.91063171754091 5.20753995014154 9.584486027868424 -1 1 0
602 1 4 0.053 43.24213787340403 5.280259034810608 9.643583413165715 -1 1 0
580 1 5 -0.531 41.21759746199321 9.050492438038674 8.093165947607872 -1 1 0
601 1 1 -0.106 44.05293999575903 5.002936568435373 9.009379274374497 -1 1 0
587 1 4 0.053 44.70554406411314 7.610267494936928 9.200968041362612 -1 1 0
579 1 3 0.702 42.152935085736175 9.063094220005404 7.354983740617375 -1 1 0
592 1 4 0.053 42.86314446504363 6.357326496679937 6.070510389021735 -1 1 0
575 1 1 -0.159 44.78113362513548 9.026389094895883 6.709966372459649 -1 1 0
577 1 4 0.053 44.42210717691155 8.446361243821539 5.846354343356478 -1 1 0
588 1 4 0.053 42.95076747844527 7.568390895211818 9.289253911132468 -1 1 0
576 1 4 0.053 44.84239262100773 10.083888326399004 6.2915900263859115 -1 1 0
6586 9 4 0.053 40.22765224461301 8.808483525653038 12.83362615298915 0 0 0
578 1 4 0.053 45.86891846417028 8.781838200940268 7.0300669824766455 -1 1 0
574 1 1 0 43.67903307252732 8.906992567648235 7.789039531138789 -1 1 0
594 1 3 0.702 45.23393459456197 6.019689499290436 7.023821106945666 -1 1 0
593 1 4 0.053 41.6247324817227 6.164172808445159 7.561014982542654 -1 1 0
589 1 1 0 43.93952940969045 6.149765808778241 7.90452423093687 -1 1 0
571 1 1 -0.106 43.92566652717956 9.9534924606372 8.95556815171816 -1 1 0
572 1 4 0.053 44.80900097059626 9.642392856417567 9.500271038672823 -1 1 0
596 1 6 -0.396 46.316707417590095 6.315190525427894 7.819951762277305 -1 1 0
395 1 1 -0.159 7.6137026195572854 10.84642406849049 6.698443196241668 0 1 0
385 1 5 -0.531 7.906379459705654 13.223363100997656 8.672422097235172 0 1 0
524 1 4 0.053 8.904880567638212 17.780219873431676 10.575804426387638 0 1 0
522 1 1 0.066 8.31856357737436 17.21536239960673 9.842709493593219 0 1 0
397 1 4 0.053 7.069604425775345 11.675189239195593 7.15050746089924 0 1 0
379 1 1 0 9.811947126065743 11.659517297745817 8.712351069685887 0 1 0
384 1 3 0.702 8.624972797698732 12.488723489631038 9.32439452038607 0 1 0
391 1 1 -0.106 10.0101030627359 11.7771833186493 7.153937267466033 0 1 0
525 1 4 0.053 8.130650393681899 17.862728685717393 9.028135900237867 0 1 0
521 1 6 -0.396 7.024740696504942 16.991350330027302 10.328430655572399 0 1 0
393 1 4 0.053 9.947367430240922 12.858800978602831 6.8515054130828315 0 1 0
394 1 1 0 9.06479400742723 10.983514418927683 6.2028479373194925 0 1 0
396 1 4 0.053 6.938572970078562 10.518128234475839 5.864229632021219 0 1 0
422 1 4 0.053 9.928715935298928 14.23306967944729 4.783184304202523 0 1 0
367 1 4 0.053 10.12303662948485 14.573834324364158 8.309845822701416 0 1 0
408 1 4 0.053 8.434841258411346 12.878760201519896 5.509892218983459 0 1 0
437 1 4 0.053 9.64676952307807 16.2304165650842 4.919501068473898 0 1 0
406 1 1 -0.106 8.880706565270309 12.01612357009025 4.957645134056882 0 1 0
407 1 4 0.053 7.948103077923593 11.85832427532181 47.084558928503526 0 1 -1
423 1 4 0.053 8.735435149480068 14.036385681223692 46.24890190098475 0 1 -1
3277 5 4 0.053 15.792020644642951 15.300749567430243 4.626451209210007 0 0 0
392 1 4 0.053 11.06236741127101 11.370695177164485 6.915881443071526 0 1 0
365 1 1 -0.159 10.96572830228054 14.771401703009563 9.165772075959701 0 1 0
376 1 1 -0.106 11.10263291633395 12.207226743390128 9.454651634831716 0 1 0
374 1 4 0.053 15.41134439496255 11.683905703770971 7.712663221685554 0 1 0
375 1 4 0.053 14.212565794727047 11.681346022892978 6.243442418580666 0 1 0
363 1 4 0.053 13.621287483286148 12.99502135651661 10.290842709040831 0 1 0
372 1 1 0.066 14.602939084282339 12.264599288282586 7.103170716671096 0 1 0
370 1 5 -0.531 12.559175651065523 14.220696589364524 6.871019030304314 0 1 0
377 1 4 0.053 11.81331223870654 11.313089812917852 9.253606227595506 0 1 0
369 1 3 0.702 12.662733489123932 13.571491300505889 7.912483963239915 0 1 0
352 1 4 0.053 13.793924141473612 15.791723539334058 8.550591811657718 0 1 0
353 1 4 0.053 14.687090057708977 16.866389313622285 9.686088338147874 0 1 0
371 1 6 -0.396 13.648615523871777 12.65007288335473 8.10377678165251 0 1 0
313 1 4 0.053 15.544972906668667 11.937426701975138 10.32549225996293 0 1 0
373 1 4 0.053 15.202807552386743 13.15586348466664 6.61407305461158 0 1 0
351 1 4 0.053 15.268153112310728 15.098310863296756 9.371870307798163 0 1 0
350 1 1 -0.159 14.39608867250847 15.75742631901124 9.503322360840372 0 1 0
364 1 1 0 11.849107113672993 13.567564437655006 9.216396228041882 0 1 0
412 1 4 0.053 11.799614725591974 12.469936828022206 5.352966118073977 0 1 0
411 1 4 0.053 11.472018213568933 10.86471258331951 4.733696991475134 0 1 0
427 1 4 0.053 12.42128539143193 14.763580572206376 47.18161649725865 0 1 -1
3278 5 4 0.053 16.79663951046668 13.796431156972234 4.711195467490487 0 0 0
410 1 1 -0.159 11.45038462876 11.988314017664571 47.17261777921374 0 1 -1
317 1 4 0.053 20.359440305723876 14.614290285119132 10.75066274984486 0 1 0
333 1 4 0.053 16.7876517954568 14.67198807769407 10.833080080487939 0 1 0
295 1 5 -0.531 18.263748294446852 11.443854271178196 7.4053861780956 0 1 0
310 1 5 -0.531 16.65702264555724 13.339885408571154 8.875397322929931 0 1 0
311 1 6 -0.396 17.689826197041917 11.9245215495444 10.280695198732955 0 1 0
306 1 4 0.053 18.433131655433442 14.833721599573966 7.6045998716231225 0 1 0
294 1 3 0.702 19.10955418823012 11.962415070350701 6.721759703283124 0 1 0
325 1 5 -0.531 18.313260927918193 17.51009064603991 10.60920616445041 0 1 0
308 1 4 0.053 18.171186806492678 15.879527854740665 9.008876806731356 0 1 0
305 1 1 -0.159 18.81373487853611 15.037167008855633 8.605985091343497 0 1 0
303 1 4 0.053 21.005122638106442 13.336529119360987 9.182740046472789 0 1 0
304 1 1 0 18.908292042192226 13.756354284386125 9.472817949695976 0 1 0
301 1 1 -0.106 20.06973715769694 12.91453411379191 8.94103219201716 0 1 0
302 1 4 0.053 20.132846824525444 11.964913073926928 9.427687859466982 0 1 0
289 1 1 0 20.3435291903817 12.756267944896786 7.380089383545479 0 1 0
309 1 3 0.702 17.664799979670537 13.035269260133147 9.462627132418005 0 1 0
307 1 4 0.053 19.823486132818367 15.567506096233968 8.484623004031477 0 1 0
316 1 1 -0.106 19.307761283356925 14.09174209617334 10.95741127463634 0 1 0
318 1 4 0.053 19.47422853784132 13.198574217416423 11.509237211989346 0 1 0
291 1 4 0.053 20.234218759150178 14.925166530461356 6.578290152004492 0 1 0
286 1 1 -0.106 21.708904254232294 11.980158864365006 7.059130138840424 0 1 0
287 1 4 0.053 21.847255403760652 11.977496320627811 5.902815659227115 0 1 0
290 1 1 -0.159 20.865375215976435 14.041084842932612 6.4758376920032115 0 1 0
292 1 4 0.053 21.007526479782275 13.969067774797459 5.325249379562526 0 1 0
293 1 4 0.053 21.883525177568824 14.274590815013006 6.789493200625526 0 1 0
1548 3 4 0.053 30.990326640314247 12.425754708909075 7.593018599205965 0 0 1
1513 3 3 0.702 24.052868505661767 16.266728396378106 7.633231058217161 0 0 1
262 1 4 0.053 26.21560863883355 9.411086628911416 5.845400252842151 0 1 0
1525 3 4 0.053 28.51513486198019 14.19317183433789 10.025227377398489 0 0 1
263 1 4 0.053 25.052107398442736 10.312113643664354 4.612263834565828 0 1 0
288 1 4 0.053 22.62424669223596 12.48742520700658 7.475373580808386 0 1 0
1543 3 3 0.702 29.16717840200479 14.57494431691446 6.868090199552984 0 0 1
272 1 4 0.053 24.414019643447784 10.454165781849849 7.370786390930517 0 1 0
273 1 4 0.053 23.62216596600733 11.060265848356396 5.942579254032264 0 1 0
280 1 5 -0.531 23.275569137670296 11.482536346498545 9.460663710754782 0 1 0
1523 3 1 0 26.966281947618498 15.789088614088215 9.474819839822844 0 0 1
1526 3 4 0.053 26.96805464780538 13.693239596514996 9.231153695380085 0 0 1
1535 3 1 -0.106 27.386004538437824 16.046123601231038 7.904020708170958 0 0 1
1514 3 5 -0.531 23.984078429350284 15.104138743121807 7.341875130621539 0 0 1
1537 3 4 0.053 26.870397549824983 15.152629675322798 7.417756123268386 0 0 1
1551 3 4 0.053 27.65972923842997 16.42651141811284 5.357978452674438 0 0 1
1544 3 5 -0.531 29.131559106543612 13.884685828341576 5.917379799635476 0 0 1
1538 3 1 0 28.803706599525086 16.0175431597237 7.150356976457539 0 0 1
1554 3 1 -0.159 30.69309174895917 16.18745362904424 47.001569670844866 0 0 0
6516 9 1 -0.159 33.753146242246515 10.79510026408991 9.804335917247911 0 0 0
6520 9 3 0.702 34.229559537741736 13.180141917784685 10.09289412323818 0 0 0
1540 3 4 0.053 29.982016753552116 16.57557601642849 8.991810295040358 0 0 1
1547 3 4 0.053 29.314088059327773 12.038268973273365 7.564856855657086 0 0 1
1545 3 6 -0.396 29.744457168174534 14.048758810196464 7.997545297465333 0 0 1
6515 9 1 0 34.92943212191044 11.700191055349343 9.877452806176759 0 0 0
6521 9 5 -0.531 34.81922744860323 14.22240553225367 9.735364995743824 0 0 0
6522 9 6 -0.396 32.94331852383206 13.100373682999717 10.502904936966093 0 0 0
1546 3 1 0.066 30.137219815008706 12.62254293049555 8.104205380213799 0 0 1
1557 3 4 0.053 31.294078229235684 15.987195262368727 5.080621972466314 0 0 1
1539 3 1 -0.159 29.952560553209555 16.795343378346058 7.9288749941547065 0 0 1
6525 9 4 0.053 31.21596587714837 14.07004286139583 11.005237840356948 0 0 0
1549 3 4 0.053 30.31467006791613 12.380014380469948 9.217683088461321 0 0 1
6531 9 1 -0.159 34.58468756558878 12.419171395457553 6.797308056925776 0 0 0
6534 9 4 0.053 33.717054566649196 12.5365875923185 7.552880475924113 0 0 0
6519 9 4 0.053 32.942321522268756 11.153136670229493 9.100180796777403 0 0 0
6533 9 4 0.053 34.137759864955896 12.228471040317476 5.791801683018474 0 0 0
1541 3 4 0.053 31.06141113872311 16.60746689244687 7.585577157282899 0 0 1
1555 3 4 0.053 30.081801663384635 15.207931256023471 46.81274938723139 0 0 0
6530 9 1 0 35.68099578402856 11.403891861632957 7.17306382645022 0 0 0
6528 9 4 0.053 36.94634544529312 11.176421156505588 9.078251638822612 0 0 0
6529 9 4 0.053 36.51457240799789 12.751348006682882 8.614775219527212 0 0 0
6535 9 3 0.702 36.952296587489286 11.682447110187596 6.267093519485519 0 0 0
2027 3 4 0.053 39.345644732683894 14.22437351065599 5.0141612891997775 0 0 1
6509 9 4 0.053 40.53179955240108 12.425785876618072 9.708735360359922 0 0 0
6507 9 6 -0.396 38.61702397955118 13.191306973947935 10.17817918212279 0 0 0
6536 9 5 -0.531 37.88839286746261 12.181400916011537 6.780362185547791 0 0 0
6537 9 6 -0.396 36.83543779295559 11.367137784206276 4.955438821841856 0 0 0
6508 9 1 0.066 39.65336468343739 12.85869200522089 9.237810713007159 0 0 0
2892 4 4 0.053 37.449731348387246 15.217902828288654 8.762841861938425 0 0 0
6527 9 1 -0.106 36.112582588663116 11.771483665574959 8.720377240660465 0 0 0
2893 4 4 0.053 36.948575081071894 16.121716159468285 10.276334342117073 0 0 0
6511 9 4 0.053 39.995026479477474 13.699237297266885 8.52638179463731 0 0 0
6510 9 4 0.053 39.28581893549675 12.057418361134689 8.667435316427035 0 0 0
2894 4 4 0.053 35.72757220056819 16.202413497804248 8.935737824919112 0 0 0
2891 4 1 -0.159 36.81725485743898 16.09210018714629 9.092567273738315 0 0 0
6506 9 5 -0.531 38.56310701047141 11.013685435499625 10.788764628876184 0 0 0
2026 3 1 0.066 39.725918292083335 15.207681919229847 5.423294010523219 0 0 1
2029 3 4 0.053 40.03795623395236 14.948176485169695 6.383925394764794 0 0 1
6540 9 4 0.053 38.82944271143067 11.109681497078597 4.852285184155545 0 0 0
6532 9 4 0.053 35.03892923826292 13.496088120978827 6.798339173615204 0 0 0
568 1 4 0.053 46.082007692458006 15.111534678500089 8.210067251025778 -1 1 0
569 1 4 0.053 47.07492297821321 13.897392290339997 8.078017370011676 -1 1 0
567 1 1 0.066 46.316802179318444 14.204151908064992 7.471292931541246 -1 1 0
570 1 4 0.053 46.572613937934406 14.57532660142784 6.414431748085027 -1 1 0
563 1 4 0.053 41.8330262093677 11.547799847677144 8.31576025684572 -1 1 0
560 1 1 -0.159 42.784942019355725 11.925999054978409 7.862072928071994 -1 1 0
562 1 4 0.053 42.82046885338494 11.57412682969245 6.82544595585582 -1 1 0
565 1 5 -0.531 46.42402512077945 11.461349307426218 7.850114120483181 -1 1 0
528 1 4 0.053 47.04568417027609 15.86163571363613 10.251427311213217 -1 1 0
564 1 3 0.702 45.38494908849853 12.095605762507777 8.076619547277952 -1 1 0
566 1 6 -0.396 45.21656070697516 13.353316380909419 7.6832486589404 -1 1 0
558 1 4 0.053 43.42044506758019 13.268199292701743 9.880588756096671 -1 1 0
556 1 1 -0.106 43.84848621455944 12.164240384127169 10.108534997894024 -1 1 0
559 1 1 0 44.04070087840873 11.435185056650512 8.70601589621051 -1 1 0
561 1 4 0.053 42.69741682873786 12.989764690030306 7.758632886612857 -1 1 0
542 1 4 0.053 45.27296833535058 14.0217085248164 10.016136074570086 -1 1 0
557 1 4 0.053 43.0363094409295 11.572101740473416 10.532180007200273 -1 1 0
543 1 4 0.053 46.788276063548466 13.226981681867713 10.311349238742292 -1 1 0
2883 4 1 0.066 42.95206284937011 16.13597418971853 8.311398935464046 0 0 0
2885 4 4 0.053 43.115365088022514 15.872353089820889 7.258076695689668 0 0 0
946 2 4 0.053 45.1090479005871 12.866275959786941 4.725461467185489 0 0 1
2024 3 5 -0.531 42.488991801405334 14.053869039121208 4.890852208192406 0 0 1
2036 3 4 0.053 46.566089015487876 16.31779913921207 5.467191998691965 0 0 1
2886 4 4 0.053 43.59910406289184 16.891116756906953 8.62659395000299 0 0 0