units real
atom_style full
boundary p p p

# --- Force Field Styles ---
pair_style lj/class2/coul/long 9.5 9.5
kspace_style pppm 1e-6
dielectric 1.000000
bond_style class2
angle_style class2
dihedral_style class2
improper_style class2
special_bonds lj/coul 0 0 1
pair_modify mix sixthpower tail yes
neighbor 2.0 bin
neigh_modify delay 0 every 1 check yes
neigh_modify one 4000
# KOKKOS: package loaded via -pk kokkos on the command line

read_data /home/alexzhao/PolyJarvis/data/PEEK4/lammps/equil/npt_prod300/npt_prod300_out.data
Reading data file ...
  orthogonal box = (5.1240839 5.1240839 5.1240839) to (51.931445 51.931445 51.931445)
  1 by 1 by 1 MPI processor grid
  reading atoms ...
  8720 atoms
  reading velocities ...
  8720 velocities
  scanning bonds ...
  3 = max bonds/atom
  scanning angles ...
  9 = max angles/atom
  scanning dihedrals ...
  18 = max dihedrals/atom
  scanning impropers ...
  4 = max impropers/atom
  orthogonal box = (5.1240839 5.1240839 5.1240839) to (51.931445 51.931445 51.931445)
  1 by 1 by 1 MPI processor grid
  reading bonds ...
  9480 bonds
  reading angles ...
  15104 angles
  reading dihedrals ...
  22512 dihedrals
  reading impropers ...
  4864 impropers
Finding 1-2 1-3 1-4 neighbors ...
  special bond factors lj:    0        0        1       
  special bond factors coul:  0        0        1       
     3 = max # of 1-2 neighbors
     6 = max # of 1-3 neighbors
     9 = max # of special neighbors
  special bonds CPU = 0.004 seconds
  read_data CPU = 0.230 seconds
include /home/alexzhao/PolyJarvis/data/PEEK4/lammps/cell/emc_build.params
# LAMMPS parameters created by EMC v9.4.4, build Jul 31 2025 20:33:44

# Variables

variable	seed		index	734812
variable	ntotal		index	8720
variable	fshape		index	1
variable	output		index	emc_build
variable	field		index	pcff/pcff
variable	location1	index	~/emc/field/
variable	nav		index	0.6022141179
variable	temperature	index	300
variable	radius		index	5
variable	nrelax		index	100
variable	weight_nonbond	index	0.0001
variable	weight_bond	index	0.0001
variable	weight_focus	index	1
variable	cutoff		index	9.5
variable	charge_cutoff	index	9.5
variable	kappa		index	4
variable	density1	index	0.66
variable	lprevious	index	0
variable	lphase		index	57.0555285531
variable	f_poly		index	8
variable	chem_repeat	index	*Oc1ccc(Oc2ccc(C(=O)c3ccc(cc3)*)cc2)cc1
variable	chem_cap	index	*[H]
variable	lg_repeat	index	34
variable	lg_cap		index	1
variable	norm_poly	index	100
variable	l_poly		index	1090
variable	mg_repeat	index	260.29514
variable	mg_cap		index	0
variable	m_poly		index	8329.44448
variable	n_poly		index	8
variable	mtotal		index	73822.38416
variable	nphase1		index	8720
variable	mphase1		index	73822.38416
variable	vphase1		index	185734.764243
variable	lbox		index	57.0555285531
variable	lphase1		index	57.0555285531
variable	lxx		index	57.0555285531
variable	lyy		index	57.0555285531
variable	lzz		index	57.0555285531
variable	lzy		index	0
variable	lzx		index	0
variable	lyx		index	0
variable	vtotal		index	185734.764243
variable	nl_poly		index	8

# Types

variable	type_c_0	index	1
variable	type_cp		index	2
variable	type_hc		index	3
variable	type_ho		index	4
variable	type_o_1	index	5
variable	type_oc		index	6
variable	type_oh		index	7

variable	type_bond_c_0_cp index	1
variable	type_bond_c_0_o_1 index	2
variable	type_bond_cp_cp	index	3
variable	type_bond_cp_hc	index	4
variable	type_bond_cp_oc	index	5
variable	type_bond_cp_oh	index	6
variable	type_bond_ho_oh	index	7

variable	type_angle_c_0_cp_cp index	1
variable	type_angle_cp_c_0_cp index	2
variable	type_angle_cp_c_0_o_1 index	3
variable	type_angle_cp_cp_cp index	4
variable	type_angle_cp_cp_hc index	5
variable	type_angle_cp_cp_oc index	6
variable	type_angle_cp_cp_oh index	7
variable	type_angle_cp_oc_cp index	8
variable	type_angle_cp_oh_ho index	9

# Clusters

variable	n0_poly		index	1
variable	n1_poly		index	8
variable	nl_poly		index	8

# Flags

variable	flag_charged	index	1

# Masses

mass		1    12.01115  # c_0
mass		2    12.01115  # cp
mass		3     1.00797  # hc
mass		4     1.00797  # ho
mass		5    15.99940  # o_1
mass		6    15.99940  # oc
mass		7    15.99940  # oh

# Potentials

pair_modify	mix sixthpower tail yes
special_bonds	lj/coul 0 0 1

# Pair Coeffs

pair_coeff	 1  1    0.12000    3.30800  # c_0,c_0
pair_coeff	 2  2    0.06400    4.01000  # cp,cp
pair_coeff	 3  3    0.02000    2.99500  # hc,hc
pair_coeff	 4  4    0.01300    1.09800  # ho,ho
pair_coeff	 5  5    0.26700    3.30000  # o_1,o_1
pair_coeff	 6  6    0.24000    3.53500  # oc,oc
pair_coeff	 7  7    0.24000    3.53500  # oh,oh

# Bond Coeffs

bond_coeff	1    1.48900  339.35740 -655.72360  670.23620  # c_0,cp
bond_coeff	2    1.21600  823.79480 -1878.79400 2303.53110  # c_0,o_1
bond_coeff	3    1.41700  470.83610 -627.61790 1327.63450  # cp,cp
bond_coeff	4    1.09820  372.82510 -803.45260  894.31730  # cp,hc
bond_coeff	5    1.37680  428.87980 -738.23510 1114.96550  # cp,oc
bond_coeff	6    1.37680  428.87980 -738.23510 1114.96550  # cp,oh
bond_coeff	7    0.96500  532.50620 -1282.90500 2004.76580  # ho,oh

# Angle Coeffs

angle_coeff	1  108.40000   43.95940   -8.39240   -9.33790  # c_0,cp,cp
angle_coeff	2  110.58840   34.62140   -7.09390   -7.40320  # cp,c_0,cp
angle_coeff	3  119.30000   65.10160  -17.97660    0.00000  # cp,c_0,o_1
angle_coeff	4  118.90000   61.02260  -34.99310    0.00000  # cp,cp,cp
angle_coeff	5  117.94000   35.15580  -12.46820    0.00000  # cp,cp,hc
angle_coeff	6  123.42000   73.67810  -21.67870    0.00000  # cp,cp,oc
angle_coeff	7  123.42000   73.67810  -21.67870    0.00000  # cp,cp,oh
angle_coeff	8  109.50000   60.00000    0.00000    0.00000  # cp,oc,cp
angle_coeff	9  108.19000   53.12500   -8.50160    0.00000  # cp,oh,ho

# BondBond Coeffs

angle_coeff	1 bb    0.00000    1.48900    1.41700  # c_0,cp,cp
angle_coeff	2 bb    0.00000    1.48900    1.48900  # cp,c_0,cp
angle_coeff	3 bb    0.00000    1.48900    1.21600  # cp,c_0,o_1
angle_coeff	4 bb   68.28560    1.41700    1.41700  # cp,cp,cp
angle_coeff	5 bb    1.07950    1.41700    1.09820  # cp,cp,hc
angle_coeff	6 bb   48.47540    1.41700    1.37680  # cp,cp,oc
angle_coeff	7 bb   48.47540    1.41700    1.37680  # cp,cp,oh
angle_coeff	8 bb    0.00000    1.37680    1.37680  # cp,oc,cp
angle_coeff	9 bb   20.65770    1.37680    0.96500  # cp,oh,ho

# BondAngle Coeffs

angle_coeff	1 ba    0.00000    0.00000    1.48900    1.41700  # c_0,cp,cp
angle_coeff	2 ba    0.00000    0.00000    1.48900    1.48900  # cp,c_0,cp
angle_coeff	3 ba    0.00000    0.00000    1.48900    1.21600  # cp,c_0,o_1
angle_coeff	4 ba   28.87080   28.87080    1.41700    1.41700  # cp,cp,cp
angle_coeff	5 ba   20.00330   24.21830    1.41700    1.09820  # cp,cp,hc
angle_coeff	6 ba   58.47900  107.68060    1.41700    1.37680  # cp,cp,oc
angle_coeff	7 ba   58.47900  107.68060    1.41700    1.37680  # cp,cp,oh
angle_coeff	8 ba    0.00000    0.00000    1.37680    1.37680  # cp,oc,cp
angle_coeff	9 ba   53.86140   23.92240    1.37680    0.96500  # cp,oh,ho

# Dihedral Coeffs

dihedral_coeff	 1    0.00000    0.00000    4.62820    0.00000    0.00000    0.00000  # c_0,cp,cp,cp
dihedral_coeff	 2    0.00000    0.00000    2.16700    0.00000    0.00000    0.00000  # c_0,cp,cp,hc
dihedral_coeff	 3    0.00000    0.00000    2.50000    0.00000    0.00000    0.00000  # cp,c_0,cp,cp
dihedral_coeff	 4    0.00000    0.00000    0.90630    0.00000    0.00000    0.00000  # cp,cp,c_0,o_1
dihedral_coeff	 5    8.36670    0.00000    1.19320    0.00000    0.00000    0.00000  # cp,cp,cp,cp
dihedral_coeff	 6    0.00000    0.00000    3.96610    0.00000    0.00000    0.00000  # cp,cp,cp,hc
dihedral_coeff	 7    0.00000    0.00000    4.84980    0.00000    0.00000    0.00000  # cp,cp,cp,oc
dihedral_coeff	 8    0.00000    0.00000    4.84980    0.00000    0.00000    0.00000  # cp,cp,cp,oh
dihedral_coeff	 9    0.00000    0.00000    1.80000    0.00000    0.00000    0.00000  # cp,cp,oc,cp
dihedral_coeff	10   -0.69000    0.00000    0.50970    0.00000    0.00950    0.00000  # cp,cp,oh,ho
dihedral_coeff	11    0.00000    0.00000    1.87690    0.00000    0.00000    0.00000  # hc,cp,cp,hc
dihedral_coeff	12    0.00000    0.00000    1.72340    0.00000    0.00000    0.00000  # hc,cp,cp,oc
dihedral_coeff	13    0.00000    0.00000    1.72340    0.00000    0.00000    0.00000  # hc,cp,cp,oh

# MiddleBondTorsion Coeffs

dihedral_coeff	 1 mbt    0.00000    0.00000    0.00000    1.41700  # c_0,cp,cp,cp
dihedral_coeff	 2 mbt    0.00000    0.00000    0.00000    1.41700  # c_0,cp,cp,hc
dihedral_coeff	 3 mbt    0.00000    0.00000    0.00000    1.48900  # cp,c_0,cp,cp
dihedral_coeff	 4 mbt    0.00000    0.00000    0.00000    1.48900  # cp,cp,c_0,o_1
dihedral_coeff	 5 mbt   27.59890   -2.31200    0.00000    1.41700  # cp,cp,cp,cp
dihedral_coeff	 6 mbt    0.00000   -1.15210    0.00000    1.41700  # cp,cp,cp,hc
dihedral_coeff	 7 mbt    0.00000    4.82550    0.00000    1.41700  # cp,cp,cp,oc
dihedral_coeff	 8 mbt    0.00000    4.82550    0.00000    1.41700  # cp,cp,cp,oh
dihedral_coeff	 9 mbt    0.00000    0.00000    0.00000    1.37680  # cp,cp,oc,cp
dihedral_coeff	10 mbt    1.15800    3.26970    3.51320    1.37680  # cp,cp,oh,ho
dihedral_coeff	11 mbt    0.00000    4.82280    0.00000    1.41700  # hc,cp,cp,hc
dihedral_coeff	12 mbt    0.00000    5.54320    0.00000    1.41700  # hc,cp,cp,oc
dihedral_coeff	13 mbt    0.00000    5.54320    0.00000    1.41700  # hc,cp,cp,oh

# EndBondTorsion Coeffs

dihedral_coeff	 1 ebt    0.00000    0.00000    0.00000    0.00000    0.00000    0.00000    1.48900    1.41700  # c_0,cp,cp,cp
dihedral_coeff	 2 ebt    0.00000    0.00000    0.00000    0.00000    0.00000    0.00000    1.48900    1.09820  # c_0,cp,cp,hc
dihedral_coeff	 3 ebt    0.00000    0.00000    0.00000    0.00000    0.00000    0.00000    1.48900    1.41700  # cp,c_0,cp,cp
dihedral_coeff	 4 ebt    0.00000    0.00000    0.00000    0.00000    0.00000    0.00000    1.41700    1.21600  # cp,cp,c_0,o_1
dihedral_coeff	 5 ebt   -0.11850    6.32040    0.00000   -0.11850    6.32040    0.00000    1.41700    1.41700  # cp,cp,cp,cp
dihedral_coeff	 6 ebt    0.00000   -6.89580    0.00000    0.00000   -0.46690    0.00000    1.41700    1.09820  # cp,cp,cp,hc
dihedral_coeff	 7 ebt    0.00000    0.26550    0.00000    0.00000    4.89050    0.00000    1.41700    1.37680  # cp,cp,cp,oc
dihedral_coeff	 8 ebt    0.00000    0.26550    0.00000    0.00000    4.89050    0.00000    1.41700    1.37680  # cp,cp,cp,oh
dihedral_coeff	 9 ebt    0.00000    0.00000    0.00000    0.00000    0.00000    0.00000    1.41700    1.37680  # cp,cp,oc,cp
dihedral_coeff	10 ebt    0.90000   -1.34560    1.19000    3.41320    0.58730   -0.13230    1.41700    0.96500  # cp,cp,oh,ho
dihedral_coeff	11 ebt    0.00000   -0.68900    0.00000    0.00000   -0.68900    0.00000    1.09820    1.09820  # hc,cp,cp,hc
dihedral_coeff	12 ebt    0.00000   -1.58670    0.00000    0.00000    4.26410    0.00000    1.09820    1.37680  # hc,cp,cp,oc
dihedral_coeff	13 ebt    0.00000   -1.58670    0.00000    0.00000    4.26410    0.00000    1.09820    1.37680  # hc,cp,cp,oh

# AngleTorsion Coeffs

dihedral_coeff	 1 at    0.00000    0.00000    0.00000    0.00000    0.00000    0.00000  108.40000  118.90000  # c_0,cp,cp,cp
dihedral_coeff	 2 at    0.00000    0.00000    0.00000    0.00000    0.00000    0.00000  108.40000  117.94000  # c_0,cp,cp,hc
dihedral_coeff	 3 at    0.00000    0.00000    0.00000    0.00000    0.00000    0.00000  110.58840  108.40000  # cp,c_0,cp,cp
dihedral_coeff	 4 at    0.00000    0.00000    0.00000    0.00000    0.00000    0.00000  108.40000  119.30000  # cp,cp,c_0,o_1
dihedral_coeff	 5 at    1.97670    1.02390    0.00000    1.97670    1.02390    0.00000  118.90000  118.90000  # cp,cp,cp,cp
dihedral_coeff	 6 at    0.00000    2.50140    0.00000    0.00000    2.71470    0.00000  118.90000  117.94000  # cp,cp,cp,hc
dihedral_coeff	 7 at    0.00000   10.01550    0.00000    0.00000    1.74040    0.00000  118.90000  123.42000  # cp,cp,cp,oc
dihedral_coeff	 8 at    0.00000   10.01550    0.00000    0.00000    1.74040    0.00000  118.90000  123.42000  # cp,cp,cp,oh
dihedral_coeff	 9 at    0.00000    0.00000    0.00000    0.00000    0.00000    0.00000  123.42000  109.50000  # cp,cp,oc,cp
dihedral_coeff	10 at   -5.13600   -1.01220    0.00000    4.68520    0.02300   -0.59800  123.42000  108.19000  # cp,cp,oh,ho
dihedral_coeff	11 at    0.00000    2.45010    0.00000    0.00000    2.45010    0.00000  117.94000  117.94000  # hc,cp,cp,hc
dihedral_coeff	12 at    0.00000    1.87290    0.00000    0.00000    2.57060    0.00000  117.94000  123.42000  # hc,cp,cp,oc
dihedral_coeff	13 at    0.00000    1.87290    0.00000    0.00000    2.57060    0.00000  117.94000  123.42000  # hc,cp,cp,oh

# AngleAngleTorsion Coeffs

dihedral_coeff	 1 aat    0.00000  108.40000  118.90000  # c_0,cp,cp,cp
dihedral_coeff	 2 aat    0.00000  108.40000  117.94000  # c_0,cp,cp,hc
dihedral_coeff	 3 aat    0.00000  110.58840  108.40000  # cp,c_0,cp,cp
dihedral_coeff	 4 aat    0.00000  108.40000  119.30000  # cp,cp,c_0,o_1
dihedral_coeff	 5 aat    0.00000  118.90000  118.90000  # cp,cp,cp,cp
dihedral_coeff	 6 aat   -4.81410  118.90000  117.94000  # cp,cp,cp,hc
dihedral_coeff	 7 aat  -21.02470  118.90000  123.42000  # cp,cp,cp,oc
dihedral_coeff	 8 aat  -21.02470  118.90000  123.42000  # cp,cp,cp,oh
dihedral_coeff	 9 aat    0.00000  123.42000  109.50000  # cp,cp,oc,cp
dihedral_coeff	10 aat   -4.60720  123.42000  108.19000  # cp,cp,oh,ho
dihedral_coeff	11 aat    0.35980  117.94000  117.94000  # hc,cp,cp,hc
dihedral_coeff	12 aat    4.22960  117.94000  123.42000  # hc,cp,cp,oc
dihedral_coeff	13 aat    4.22960  117.94000  123.42000  # hc,cp,cp,oh

# BondBond13 Coeffs

dihedral_coeff	 1 bb13    0.00000    1.48900    1.41700  # c_0,cp,cp,cp
dihedral_coeff	 2 bb13    0.00000    1.48900    1.09820  # c_0,cp,cp,hc
dihedral_coeff	 3 bb13    0.00000    1.48900    1.41700  # cp,c_0,cp,cp
dihedral_coeff	 4 bb13    0.00000    1.41700    1.21600  # cp,cp,c_0,o_1
dihedral_coeff	 5 bb13   53.00000    1.41700    1.41700  # cp,cp,cp,cp
dihedral_coeff	 6 bb13   -6.27410    1.41700    1.09820  # cp,cp,cp,hc
dihedral_coeff	 7 bb13   -2.24360    1.41700    1.37680  # cp,cp,cp,oc
dihedral_coeff	 8 bb13   -2.24360    1.41700    1.37680  # cp,cp,cp,oh
dihedral_coeff	 9 bb13    0.00000    1.41700    1.37680  # cp,cp,oc,cp
dihedral_coeff	10 bb13    1.15900    1.41700    0.96500  # cp,cp,oh,ho
dihedral_coeff	11 bb13   -1.70770    1.09820    1.09820  # hc,cp,cp,hc
dihedral_coeff	12 bb13    2.05170    1.09820    1.37680  # hc,cp,cp,oc
dihedral_coeff	13 bb13    2.05170    1.09820    1.37680  # hc,cp,cp,oh

# Improper Coeffs

improper_coeff	1   38.79490    0.00000  # c_0,cp,cp,o_1
improper_coeff	2    0.00000    0.00000  # cp,c_0,cp,cp
improper_coeff	3    4.89120    0.00000  # cp,cp,cp,hc
improper_coeff	4   13.04210    0.00000  # cp,cp,cp,oc
improper_coeff	5   13.04210    0.00000  # cp,cp,cp,oh

# AngleAngle Coeffs

improper_coeff	1 aa    0.00000    0.00000    0.00000  110.58840  119.30000  119.30000  # c_0,cp,cp,o_1
improper_coeff	2 aa    0.00000    0.00000    0.00000  108.40000  108.40000  118.90000  # cp,c_0,cp,cp
improper_coeff	3 aa    0.00000    0.00000    0.00000  118.90000  117.94000  117.94000  # cp,cp,cp,hc
improper_coeff	4 aa    0.00000    0.00000    0.00000  118.90000  123.42000  123.42000  # cp,cp,cp,oc
improper_coeff	5 aa    0.00000    0.00000    0.00000  118.90000  123.42000  123.42000  # cp,cp,cp,oh


# --- Thermo Output ---
thermo_style custom step time temp press enthalpy etotal ke pe ebond eangle edihed eimp evdwl ecoul elong etail vol lx ly lz density pxx pyy pzz
thermo_modify flush yes
thermo 500

# --- Velocity initialization at T_START (once only — Rule A) ---
velocity all create 750.0 202025 mom yes rot yes dist gaussian

# --- Temperature staircase (inherits momenta across steps — Rule A) ---
variable temps index 750 730 710 690 670 650 630 610 590 570 550 530 510 490 470 450 430 410 390 370 350 330 310 290 270 250
label TEMP_LOOP
  timestep 1
  fix npt_tg all npt temp ${temps} ${temps} 100 iso 1.0 1.0 100
  fix npt_tg all npt temp 750 ${temps} 100 iso 1.0 1.0 100
  fix npt_tg all npt temp 750 750 100 iso 1.0 1.0 100
  run 200000
PPPM Kokkos initialization ...
  using 12-bit tables for long-range coulomb
  G vector (1/distance) = 0.30697585
  grid = 36 36 36
  stencil order = 5
  estimated absolute RMS force accuracy = 0.00037726607
  estimated relative force accuracy = 1.1361256e-06
  using double precision cuFFT
  3d grid and FFT values/proc = 79507 46656
Generated 21 of 21 mixed pair_coeff terms from sixthpower/sixthpower mixing rule
Neighbor list info ...
  update: every = 1 steps, delay = 0 steps, check = yes
  max neighbors/atom: 4000, page size: 100000
  master list distance cutoff = 11.5
  ghost atom cutoff = 11.5
  binsize = 11.5, bins = 5 5 5
  1 neighbor lists, perpetual/occasional/extra = 1 0 0
  (1) pair lj/class2/coul/long/kk, perpetual
      attributes: full, newton off, kokkos_device
      pair build: full/bin/kk/device
      stencil: full/bin/3d
      bin: kk/device
Per MPI rank memory allocation (min/avg/max) = 36.32 | 36.32 | 36.32 Mbytes
   Step          Time           Temp          Press         Enthalpy        TotEng         KinEng         PotEng         E_bond        E_angle        E_dihed        E_impro         E_vdwl         E_coul         E_long         E_tail         Volume           Lx             Ly             Lz          Density          Pxx            Pyy            Pzz      
         0   0              750            5594.8195      47421.9        39054.232      19492.262      19561.97       4073.0597      5788.9095      5276.982       435.45405     -1321.9525      15715.91      -10406.393     -783.87864      102551.6       46.807361      46.807361      46.807361      1.1953488      4042.2328      6682.7592      6059.4666    
       500   500            695.23183      1367.3316      50865.444      48698.819      18068.855      30629.965      8012.4708      8389.5198      8184.4575      998.76969     -299.88703      15737.321     -10392.687     -739.87327      108651.06      47.717533      47.717533      47.717533      1.1282444      673.17287      1146.986       2281.8359    
      1000   1000           752.35653      485.09704      52319.468      51541.216      19553.507      31987.709      8487.1449      8546.0468      8708.4581      1055.7572     -185.32166      15762.701     -10387.077     -730.76176      110005.77      47.915037      47.915037      47.915037      1.1143501      1171.7547     -331.01443      614.5509     
      1500   1500           755.61573     -1578.6025      49473.853      52048.691      19638.213      32410.477      8439.792       8697.4047      8991.1377      1131.0678     -221.01248      15753.568     -10381.48      -718.77038      111841.02      48.180027      48.180027      48.180027      1.0960642     -2916.5072     -1316.4146     -502.88565    
      2000   2000           756.78575     -1987.5829      48762.41       51996.941      19668.622      32328.32       8452.701       8691.3016      8905.8582      1054.1675     -144.85949      15750.567     -10381.416     -720.41208      111586.15      48.143401      48.143401      48.143401      1.0985677     -1262.7124     -3811.5908     -888.44536    
      2500   2500           755.34666      365.03158      52233.066      51639.761      19631.22       32008.541      8343.4156      8559.1596      8889.9718      1075.5416     -243.72682      15763.88      -10379.701     -721.30587      111447.88      48.123508      48.123508      48.123508      1.0999306     -242.6036       599.76187      737.93648    
      3000   3000           739.35061      1127.1196      53247.135      51420.138      19215.488      32204.65       8464.7586      8546.6859      8858.4706      1051.1805     -145.9418       15807.328     -10377.832     -723.26833      111145.49      48.079944      48.079944      48.079944      1.1029232      775.36674      2135.6773      470.31481    
      3500   3500           749.02372      238.44445      52062.762      51673.227      19466.889      32206.338      8354.3985      8729.5612      8873.7973      1057.4399     -216.12942      15791.738     -10384.468     -717.64314      112016.7       48.20524       48.20524       48.20524       1.0943453      1588.1329     -1460.9389      588.13939    
      4000   4000           766.69121     -620.10263      51055.001      52061.331      19926.061      32135.27       8407.6021      8691.5122      8731.1299      1051.962      -156.96596      15795.254     -10385.225     -722.42093      111275.86      48.098735      48.098735      48.098735      1.101631      -2093.7161      2315.6371     -2082.2289    
      4500   4500           757.36295      886.76907      53697.28       52250.618      19683.623      32566.995      8422.1819      8817.2295      8864.1505      1118.5237     -25.555762      15752.868     -10382.403     -718.63886      111861.49      48.182966      48.182966      48.182966      1.0958637      336.03643      368.24623      1956.0246    
      5000   5000           757.09873      407.24652      52448.67       51782.592      19676.756      32105.836      8387.1883      8588.1865      8811.9374      1073.6921     -150.21789      15779.076     -10384.027     -716.80161      112148.2       48.224097      48.224097      48.224097      1.093062      -1886.0418      623.30744      2484.4739    
      5500   5500           740.41054     -1727.4827      48700.548      51535.054      19243.035      32292.019      8322.2235      8693.4774      8903.5893      1071.5839     -98.457462      15783.742     -10384.14      -714.50217      112509.12      48.275774      48.275774      48.275774      1.0895556     -408.35662     -3975.9623     -798.12929    
      6000   6000           749.43013      324.1842       52093.082      51562.4        19477.451      32084.949      8375.4394      8572.5501      8875.3257      1040.8436     -188.41535      15785.787     -10376.582     -716.18359      112244.98      48.237965      48.237965      48.237965      1.0921196      1888.9874     -334.0496      -582.38523    
      6500   6500           749.6399      -592.05707      50977.24       51950.954      19482.903      32468.05       8497.3814      8800.5973      8792.4237      1037.678      -77.278158      15794.927     -10377.679     -712.85236      112769.51      48.312988      48.312988      48.312988      1.0870398      563.19711     -671.32294     -1668.0454    
      7000   7000           747.55703     -40.29143       51941.336      52007.179      19428.77       32578.409      8510.6714      8804.5917      8873.109       1102.3402     -116.76459      15783.998     -10379.537     -717.4089       112053.27      48.210486      48.210486      48.210486      1.0939881      1667.2467     -2579.8757      791.75469    
      7500   7500           759.72696      1220.5291      54135.701      52122.125      19745.063      32377.062      8302.1753      8610.0409      8958.8356      1083.4266      19.194449      15785.341     -10381.952     -710.6361       113121.21      48.363161      48.363161      48.363161      1.0836601      2122.6646      1161.1317      377.79103    
      8000   8000           758.1862      -448.96619      51354.791      52096.497      19705.019      32391.478      8219.0731      8823.6532      8937.2045      1062.226      -76.570499      15818.52      -10392.628     -709.65767      113277.17      48.385377      48.385377      48.385377      1.0821681      660.14517      43.208257     -2050.252     
      8500   8500           748.47431      292.69236      52304.984      51825.212      19452.61       32372.602      8316.6337      8668.8823      8967.1024      1053.6507     -62.219199      15807.847     -10379.294     -715.22704      112395.1       48.25946       48.25946       48.25946       1.0906609      273.10609      277.31146      327.65952    
      9000   9000           752.66142     -211.73033      51568.531      51917.625      19561.432      32356.193      8264.47        8631.3107      8913.9185      1059.8139      55.089724      15811.425     -10379.835     -711.06269      113053.34      48.353487      48.353487      48.353487      1.0843106      626.70124     -380.90975     -880.98247    
      9500   9500           763.42943      907.02448      53855.293      52365.386      19841.289      32524.097      8364.724       8498.5904      9095.5046      1103.8707      44.652993      15796.288     -10379.534     -713.71871      112632.63      48.293432      48.293432      48.293432      1.0883609      280.19568      1106.0362      1334.8416    
     10000   10000          752.49096      2682.3898      56534.044      52044.484      19557.001      32487.483      8324.9196      8619.4705      8891.0511      1073.9456      163.0906       15793.988     -10378.982     -700.46328      114764.06      48.596162      48.596162      48.596162      1.0681474      1406.1344      1870.6277      4770.4074    
     10500   10500          747.0863       1855.6133      54900.757      51830.063      19416.536      32413.527      8321.6432      8748.6767      8771.5833      1088.1904      67.992049      15796.785     -10381.344     -708.46449      113467.95      48.412525      48.412525      48.412525      1.0803486      549.05002      1182.0302      3835.7598    
     11000   11000          742.77447     -300.97422      51198.965      51695.898      19304.473      32391.425      8200.6994      8719.468       9005.7457      1066.6177     -10.978168      15787.798     -10377.926     -710.06575      113212.07      48.376106      48.376106      48.376106      1.0827904     -754.63908     -284.88914      136.60556    
     11500   11500          745.12512      1009.6616      53376.303      51688.699      19365.565      32323.134      8278.4913      8626.5089      8799.3077      1085.2102      120.01956      15793.252     -10379.656     -701.41105      114608.99      48.574264      48.574264      48.574264      1.0695927     -1299.4278      2757.1718      1571.2409    
     12000   12000          759.42067      852.91767      53568.087      52148.498      19737.102      32411.395      8220.956       8781.0419      8917.0964      1083.5894     -13.135048      15805.37      -10383.524     -704.38773      114124.66      48.505744      48.505744      48.505744      1.0741319      1551.9461      1648.9659     -642.15902    
     12500   12500          748.48075      667.77992      53167.077      52057.242      19452.777      32604.465      8348.3811      8853.9762      8796.468       1097.4616      93.83093       15797.922     -10383.575     -705.41112      113959.1       48.482276      48.482276      48.482276      1.0756925      356.46462      517.70288      1129.1723    
     13000   13000          752.21611      2734.609       56518.108      51980.205      19549.858      32430.347      8320.6507      8759.5554      8694.0005      1079.3655      161.98617      15796.953     -10382.164     -706.4919       113784.76      48.457541      48.457541      48.457541      1.0773406      1081.4047      2676.6282      4445.7941    
     13500   13500          747.89531      1272.156       54020.9        51904.269      19437.562      32466.707      8338.8691      8658.073       8915.3437      1047.2657      91.813636      15802.791     -10387.449     -704.63196      114085.11      48.500139      48.500139      48.500139      1.0745043      69.154094      2127.4642      1619.8497    
     14000   14000          745.58737     -167.7056       51575.622      51858.118      19377.579      32480.539      8441.696       8736.7015      8733.8033      1091.7979      79.946476      15775.411     -10378.817     -695.9895       115501.76      48.700064      48.700064      48.700064      1.0613253      130.99303     -2266.4592      1632.3493    
     14500   14500          747.35402     -1735.0072      49260.451      52210.353      19423.494      32786.859      8424.7772      8642.7121      8977.7483      1089.0182      216.91998      15812.751     -10377.068     -689.54244      116581.68      48.851372      48.851372      48.851372      1.0514941     -1544.2812     -2259.668      -1401.0724    
     15000   15000          754.48872      569.17293      53321.354      52362.614      19608.923      32753.692      8551.3244      8499.9957      9058.133       1117.1028      130.42861      15779.568     -10382.861     -696.0019       115499.7       48.699775      48.699775      48.699775      1.0613442     -2091.4938      2551.652       1247.3606    
     15500   15500          759.73796     -10.931158      52680.164      52698.605      19745.349      32953.256      8409.7327      8721.9922      9154.7378      1076.7177      188.89343      15779.844     -10378.662     -694.92918      115677.99      48.724821      48.724821      48.724821      1.0597084     -1084.6527      2081.8349     -1029.9756    
     16000   16000          758.44528      170.41105      52732.041      52445.512      19711.752      32733.76       8243.6525      8650.7022      9125.2286      1118.4144      177.83413      15793.681     -10375.753     -697.26396      115290.65      48.670375      48.670375      48.670375      1.0632688      436.45447      330.73116     -255.9525     
     16500   16500          746.17504      1553.2085      54716.142      52132.23       19392.853      32739.377      8645.933       8557.2236      8882.882       1073.0558      183.00427      15783.248     -10385.969     -704.72413      114070.19      48.498025      48.498025      48.498025      1.0746449      1404.3568      2160.3416      1094.9271    
     17000   17000          737.73349     -134.42981      51533.904      51757.771      19173.459      32584.311      8698.8511      8567.7357      8853.1605      1063.1962      30.683858      15753.739     -10383.056     -704.00228      114187.15      48.514595      48.514595      48.514595      1.0735441     -1794.2991      1297.0389      93.970825    
     17500   17500          747.6266      -1021.8226      50311.561      52011.016      19430.578      32580.438      8414.6848      8742.9165      8960.7468      1073.5517     -33.120526      15798.773     -10377.114     -704.90861      114040.33      48.493794      48.493794      48.493794      1.0749262     -1272.0675     -1057.3653     -736.03495    
     18000   18000          749.42294      653.22146      53285.169      52190.14       19477.264      32712.875      8315.6027      8716.7913      9024.874       1120.9285      136.79896      15777.659     -10379.779     -699.36202      114944.78      48.621656      48.621656      48.621656      1.0664681      1220.6921      595.97543      142.99685    
     18500   18500          743.17808     -738.65046      50715.667      51956.166      19314.962      32641.204      8380.8566      8482.867       9181.8057      1105.643       109.176        15771.737     -10390.882     -698.08714      115154.7       48.651237      48.651237      48.651237      1.064524      -967.79212     -442.81181     -805.34746    
     19000   19000          756.98759     -645.7074       51325.863      52408.63       19673.867      32734.763      8455.3449      8517.9866      9249.4454      1084.1137      4.4888709      15794.908     -10371.524     -699.14564      114980.35      48.626672      48.626672      48.626672      1.0661382     -1333.4817      1205.8238     -1809.4643    
     19500   19500          757.03595     -2945.2648      47491.103      52400.964      19675.124      32725.84       8431.4569      8566.4505      9249.8903      1083.4436      5.5899002      15769.448     -10380.44      -703.2704       114305.98      48.531418      48.531418      48.531418      1.0724281     -2660.2197     -2187.4237     -3988.151     
     20000   20000          734.83268     -475.0108       50970.216      51762.27       19098.068      32664.202      8473.5278      8648.4003      8941.5307      1066.5425      148.80644      15768.106     -10382.712     -703.09737      114334.11      48.535399      48.535399      48.535399      1.0721642      993.19838     -1127.3818     -1290.849     
     20500   20500          752.26277     -295.14749      51820.516      52311.815      19551.071      32760.744      8491.3335      8701.1393      9058.654       1072.0057      25.196157      15787.793     -10375.378     -704.30436      114138.17      48.507658      48.507658      48.507658      1.0740048     -244.32126      225.42088     -866.54209    
     21000   21000          760.71176      663.81651      53576.542      52467.803      19770.657      32697.146      8302.4562      8739.3115      9080.0365      1074.641       84.621739      15796         -10379.921     -701.91706      114526.37      48.562589      48.562589      48.562589      1.0703643     -205.81655      2120.2458      77.020262    
     21500   21500          755.5187       1749.9399      55478.86       52573.913      19635.691      32938.222      8588.9748      8828.6285      8920.8029      1119.9924      77.78342       15784.163     -10382.123     -706.2398       113825.38      48.463306      48.463306      48.463306      1.0769561      312.68284      1922.7686      3014.3682    
     22000   22000          752.01933      595.81104      52862.789      51873.961      19544.744      32329.217      8377.8603      8488.5381      8940.5655      1070.245       22.539885      15804.552     -10375.083     -706.40714      113798.42      48.459479      48.459479      48.459479      1.0772113     -1760.5094      1756.4912      1791.4513    
     22500   22500          746.72978     -580.92838      50850.322      51817.68       19407.27       32410.41       8308.362       8702.4766      8816.3579      1094.1061      69.342907      15795.174     -10375.41      -704.0484       114179.67      48.513536      48.513536      48.513536      1.0736145      451.29619     -908.70048     -1285.3808    
     23000   23000          750.45827     -584.86049      51073.93       52051.226      19504.172      32547.053      8321.5433      8764.1175      8872.7676      1115.7609      74.560561      15773.817     -10375.514     -701.60612      114577.13      48.569762      48.569762      48.569762      1.0698902     -562.51139     -2312.3334      1120.2633    
     23500   23500          749.71942     -1348.6009      50121.769      52388.945      19484.97       32903.976      8428.899       8744.3581      9189.0885      1101.6754      18.692146      15792.722     -10371.46      -697.37348      115272.54      48.667827      48.667827      48.667827      1.0634358     -706.00052     -2391.1663     -948.636      
     24000   24000          746.40199      1100.9476      54003.349      52153.637      19398.751      32754.886      8529.9031      8777.9305      8809.2623      1062.4558      170.44431      15782.769     -10377.879     -697.79809      115202.4       48.657953      48.657953      48.657953      1.0640833      1614.9836      2511.7387     -823.87941    
     24500   24500          740.20482      2057.7338      55462.144      51999.425      19237.689      32761.736      8355.8399      8771.1835      8918.1623      1086.6171      213.70735      15799.123     -10382.897     -696.68911      115385.78      48.683758      48.683758      48.683758      1.0623921      608.8336       2840.1289      2724.2389    
     25000   25000          751.91358      1368.2307      54159.401      51871.479      19541.995      32329.483      8310.3234      8533.4859      8878.4175      1086.115       117.36423      15788.501     -10384.723     -701.10857      114658.44      48.581249      48.581249      48.581249      1.0691315      1752.8286      1984.9781      366.88558    
     25500   25500          742.60981     -153.12642      51776.576      52033.364      19300.193      32733.171      8428.4859      8564.8252      9000.6095      1158.3554      156.90049      15799.362     -10375.368     -699.10402      114987.2       48.627637      48.627637      48.627637      1.0660747     -330.54517      533.34503     -662.17911    
     26000   26000          731.60213     -1160.7598      49493.698      51440.292      19014.107      32426.185      8383.6463      8674.2042      8912.7172      1060.3929     -19.035057      15794.343     -10380.083     -699.09152      114989.25      48.627927      48.627927      48.627927      1.0660556     -1063.401      -1589.7196     -829.15893    
     26500   26500          746.63595      306.18979      52710.303      52202.98       19404.832      32798.148      8498.3696      8780.6504      8862.3784      1106.3605      131.10713      15798.189     -10378.907     -707.57693      113610.28      48.432759      48.432759      48.432759      1.0789952      2338.4293     -204.84766     -1215.0123    
     27000   27000          748.84358     -767.89442      50853.788      52131.824      19462.207      32669.617      8653.2989      8563.2069      8995.8202      1067.1326     -1.1183779      15769.426     -10378.15      -704.41         114121.06      48.505233      48.505233      48.505233      1.0741659     -2247.8622      538.27735     -594.09844    
     27500   27500          757.87973      818.95293      53389.809      52028.929      19697.054      32331.876      8360.8276      8615.377       8835.1884      1069.3886      73.148725      15760.195     -10382.25      -705.51538      113942.25      48.479887      48.479887      48.479887      1.0758515      2290.328       617.69037     -451.15962    
     28000   28000          741.13428      182.99441      51932.244      51628.004      19261.845      32366.159      8486.3479      8503.1672      8817.017       1040.5842      110.34258      15781.577     -10372.878     -705.16113      113999.5       48.488004      48.488004      48.488004      1.0753113      1397.6505     -1201.4836      352.81636    
     28500   28500          753.2036       1312.8033      54148.242      51970.431      19575.523      32394.908      8390.7678      8714.3874      8721.8544      1055.3893      86.578097      15798.43      -10372.498     -706.7189       113748.21      48.452352      48.452352      48.452352      1.0776867      832.32233      1034.9665      2071.1212    
     29000   29000          747.30361      3009.1157      57397.85       52288.598      19422.184      32866.414      8562.7686      8819.2089      8704.7236      1056.7675      314.45287      15789.356     -10380.863     -690.47612      116424.03      48.829342      48.829342      48.829342      1.0529179      3848.9497      2794.8557      2383.5416    
     29500   29500          744.36085     -652.71536      50947.71       52041.812      19345.702      32696.11       8523.5527      8585.6866      9029.6187      1078.138       90.271366      15767.874     -10379.032     -699.41196      114936.57      48.620499      48.620499      48.620499      1.0665443     -165.41658     -777.8039      -1014.9256    
     30000   30000          740.75335      1709.3445      54764.964      51921.07       19251.945      32669.125      8397.2764      8699.4767      9045.7176      1086.7817      6.788443       15807.766     -10374.682     -704.66591      114079.61      48.49936       48.49936       48.49936       1.0745561      2246.1582      171.79729      2710.0779    
     30500   30500          745.43212     -1874.8979      49025.946      52149.919      19373.544      32776.374      8435.4903      8734.2277      9103.0793      1041.459       54.14025       15783.342     -10375.364     -703.61898      114249.35      48.523403      48.523403      48.523403      1.0729596     -1583.876      -1122.5678     -2918.25      
     31000   31000          754.36715      752.53869      53562.026      52307.816      19605.763      32702.053      8284.1559      8813.5621      8989.7931      1067.4548      148.80051      15780.908     -10382.621     -703.438        114278.75      48.527564      48.527564      48.527564      1.0726836      1240.4113      844.73915      172.46559    
     31500   31500          749.68571      762.12894      53517.977      52230.969      19484.094      32746.875      8619.2919      8558.3802      8925.2062      1063.1155      168.63701      15787.122     -10374.879     -694.24725      115791.62      48.740769      48.740769      48.740769      1.0586685      627.13761      1346.8572      312.39205    
     32000   32000          743.73277      101.98343      52057.053      51887.148      19329.379      32557.769      8490.2022      8680.7271      8824.5338      1063.4924      86.671724      15792.773     -10380.631     -703.70446      114235.47      48.521438      48.521438      48.521438      1.07309        849.03773      940.21893     -1483.3064    
     32500   32500          744.83719     -1225.8871      49569.052      51636.376      19358.082      32278.293      8234.412       8602.8899      8930.3372      1086.164       25.461232      15778.136     -10379.107     -695.19926      115633.05      48.71851       48.71851       48.71851       1.0601203     -1712.6157     -1044.9078     -920.13785    
     33000   33000          740.66738     -1055.896       49920.451      51700.449      19249.71       32450.739      8309.2969      8627.9521      8896.2976      1076.5788      142.4644       15775.223     -10377.074     -695.45469      115590.58      48.712545      48.712545      48.712545      1.0605098     -796.7749      -2329.4749     -41.438168    
     33500   33500          743.33214     -518.49659      50992.527      51866.01       19318.967      32547.043      8338.3836      8739.3117      8884.5901      1069.1064      70.978225      15812.626     -10367.953     -695.91882      115513.49      48.701713      48.701713      48.701713      1.0612175     -2753.5409      1510.7078     -312.65661    
     34000   34000          741.91534      962.78336      53758.762      52153.795      19282.144      32871.65       8500.65        8956.9851      8765.6292      1091.876       152.80439      15784.586     -10380.88      -703.282        114304.1       48.531152      48.531152      48.531152      1.0724458      1905.9084      1245.1352     -262.69344    
     34500   34500          757.65704      386.50902      52861.481      52215.958      19691.266      32524.692      8376.4996      8573.6207      8947.8794      1093.1108      148.63443      15766.148     -10381.201     -701.96445      114518.64      48.561496      48.561496      48.561496      1.0704366     -260.90265     -105.7703       1526.2       
     35000   35000          759.15208      17.687004      52448.419      52418.643      19730.122      32688.521      8466.1095      8789.3194      8847.518       1058.5193      133.62539      15775.104     -10381.675     -696.37857      115437.23      48.690993      48.690993      48.690993      1.0619186      1257.6438      594.9558      -1799.5386    
     35500   35500          751.5287       226.90681      52287.778      51908.371      19531.993      32376.378      8363.8543      8570.8252      8834.2707      1093.4915      78.140942      15809.497     -10373.701     -701.14655      114652.23      48.580372      48.580372      48.580372      1.0691894     -452.87921      214.46377      919.13587    
     36000   36000          749.42648     -548.77556      51561.302      52481.695      19477.357      33004.338      8641.5819      8737.5747      9052.5195      1077.3524      86.593692      15783.86      -10375.144     -699.01878      115001.22      48.629613      48.629613      48.629613      1.0659447      476.94232     -2145.1188      21.849788    
     36500   36500          761.56063      1055.1392      54348.017      52573.359      19792.719      32780.64       8335.8061      8824.6142      8926.9251      1123.9061      169.51338      15780.982     -10381.107     -697.04741      115326.46      48.675415      48.675415      48.675415      1.0629385      950.92923      191.32841      2023.1601    
     37000   37000          751.18019      489.11516      53123.873      52302.764      19522.935      32779.829      8461.7226      8798.3758      8871.7087      1083.0919      170.93299      15775.048     -10381.051     -698.35695      115110.21      48.644971      48.644971      48.644971      1.0649355      771.00091     -799.12244      1495.467     
     37500   37500          748.81956      234.51559      52434.699      52041.314      19461.583      32579.731      8252.6956      8790.199       8918.7057      1031.2828      158.86011      15801.302     -10373.313     -698.90929      115019.24      48.632153      48.632153      48.632153      1.0657777      509.88727      557.945       -364.2855     
     38000   38000          748.8169       1830.3279      55063.46       51965.387      19461.514      32503.873      8448.2031      8478.5671      8917.9568      1057.0507      196.14493      15784.987     -10379.036     -692.63511      116061.13      48.778555      48.778555      48.778555      1.0562101      2512.586       1563.4581      1414.9396    
     38500   38500          757.64529     -45.60763       52393.292      52470.082      19690.961      32779.122      8407.6082      8552.2931      9075.0635      1076.8813      282.27891      15768.935     -10383.939     -696.29975      115450.3       48.69283       48.69283       48.69283       1.0617984     -249.33522      360.32399     -247.81166    
     39000   39000          757.15877     -850.48105      51072.092      52507.537      19678.316      32829.221      8496.7142      8701.6966      9055.0109      1078.4196      94.799302      15782.525     -10379.945     -694.61679      115730.02      48.732124      48.732124      48.732124      1.059232       182.45151     -2021.7032     -712.19145    
     39500   39500          749.73765     -406.87545      51230.112      51909.247      19485.444      32423.804      8389.29        8593.6828      8691.6907      1133.7626      203.99153      15788.257     -10376.871     -702.38009      114450.87      48.551915      48.551915      48.551915      1.0710704     -936.04216      1597.8556     -1882.4398    
     40000   40000          753.85797      271.4486       52619.154      52164.544      19592.53       32572.014      8313.7749      8655.1115      8957.6085      1072.6999      175.69456      15770.616     -10373.491     -700.02742      114835.52      48.606246      48.606246      48.606246      1.0674828     -235.35046     -1108.3015      2157.9977    
     40500   40500          755.48738      195.94468      52654.902      52326.819      19634.877      32691.941      8691.1115      8766.821       8674.4195      1071.4724      92.027378      15773.203     -10377.113     -700.19184      114808.55      48.602441      48.602441      48.602441      1.0677335     -275.04447     -572.48003      1435.3585    
     41000   41000          747.94954     -207.75727      51835.561      52186.427      19438.971      32747.456      8294.1477      8719.9485      9012.8712      1073.1714      259.47537      15772.736     -10384.894     -694.19502      115800.33      48.741991      48.741991      48.741991      1.0585889     -925.4956       787.27093     -485.04713    
     41500   41500          745.77543      778.23373      53103.89       51794.713      19382.467      32412.246      8287.8517      8741.1155      8738.9056      1074.6444      166.78318      15782.158     -10379.213     -696.91335      115348.65      48.678536      48.678536      48.678536      1.0627341      834.06897      2951.1723     -1450.54      
     42000   42000          743.12575     -958.20539      50323.772      51937.11       19313.603      32623.507      8406.0157      8689.8707      8981.9431      1071.0963      101.28113      15756.622     -10383.322     -696.30643      115449.19      48.692674      48.692674      48.692674      1.0618086     -1723.3819     -116.26205     -1034.9722    
     42500   42500          752.91636      971.5708       54003.767      52360.717      19568.057      32792.66       8448.7634      8730.5916      9002.8551      1054.0739      142.52169      15794.514     -10380.66      -693.25169      115957.9       48.764089      48.764089      48.764089      1.0571504      2856.9346     -494.70172      552.47951    
     43000   43000          751.07262     -257.81193      51648.767      52079.685      19520.139      32559.546      8526.8332      8533.2504      8992.1553      1053.7069      60.684435      15776.246     -10383.331     -701.41567      114608.24      48.574157      48.574157      48.574157      1.0695998     -516.85001      535.09206     -791.67783    
     43500   43500          753.79183      157.03176      52313.005      52050.613      19590.811      32459.802      8289.541       8657.0213      9018.3011      1044.1914      49.35699       15783.216     -10381.825     -701.62392      114574.22      48.569351      48.569351      48.569351      1.0699173     -1219.9678     -156.51381      1847.5768    
     44000   44000          734.33386     -328.36163      51246.374      51800.152      19085.104      32715.048      8251.1726      8854.9908      9019.0537      1088.6001      100.32546      15779.826     -10378.921     -695.15881      115639.78      48.719455      48.719455      48.719455      1.0600586     -1338.1806      221.30085      131.79485    
     44500   44500          752.7682       234.61731      52348.168      51953.569      19564.207      32389.362      8263.6539      8668.5144      8778.3575      1069.9196      198.03351      15789.281     -10378.398     -697.06083      115324.24      48.675102      48.675102      48.675102      1.062959      -449.79564      1246.5628     -92.915192    
     45000   45000          745.05086     -278.11981      51554.947      52026.293      19363.635      32662.658      8497.7918      8706.1081      8819.1404      1084.4943      172.45748      15759.116     -10376.45      -691.76483      116207.14      48.799002      48.799002      48.799002      1.054883       396.22043     -1361.8835      131.30362    
     45500   45500          739.74597     -1535.3309      49155.578      51723.589      19225.763      32497.826      8454.1614      8699.1055      8795.2026      1042.4492      82.877767      15798.14      -10374.11      -700.92623      114688.26      48.585461      48.585461      48.585461      1.0688534      103.66248     -1601.5316     -3108.1238    
     46000   46000          753.87549     -1096.3283      50325.965      52180.619      19592.985      32587.634      8413.146       8633.5598      8934.0866      1107.0454      106.33023      15774.28      -10380.814     -693.01864      115996.9       48.769555      48.769555      48.769555      1.056795      -954.5956      -1537.7739     -796.61535    
     46500   46500          742.6822      -1099.1369      50271.969      52096.295      19302.075      32794.22       8503.744       8652.9932      9027.3786      1117.8772      114.69856      15761.474     -10383.945     -706.34418      113808.56      48.460919      48.460919      48.460919      1.0771153     -2174.3828     -32.65499      -1090.3729    
     47000   47000          747.56585     -437.49252      51389.571      52116.093      19428.999      32687.094      8441.147       8830.6365      8957.4622      1061.7924      16.184042      15762.737     -10382.865     -705.97389      113868.25      48.46939       48.46939       48.46939       1.0765507     -424.69458      175.23799     -1063.021     
     47500   47500          758.9495      -349.6351       51799.757      52383.214      19724.857      32658.357      8438.4622      8576.2418      9050.8932      1066.7385      148.4142       15764.743     -10387.136     -702.54331      114424.28      48.548155      48.548155      48.548155      1.0713193     -115.74711     -838.40092     -94.757292    
     48000   48000          750.7438       532.18352      52914.653      52021.538      19511.593      32509.945      8462.2303      8756.283       8744.4635      1006.7611      151.56436      15769.029     -10380.387     -698.58798      115072.14      48.639607      48.639607      48.639607      1.0652878      708.08729     -649.55078      1538.0141    
     48500   48500          747.34256     -1369.1166      49565.259      51839.348      19423.196      32416.152      8504.689       8543.695       8894.5231      1038.9868      28.01717       15786.638     -10380.397     -705.83016      113891.44      48.472679      48.472679      48.472679      1.0763315     -103.53486     -727.61899     -3276.1961    
     49000   49000          747.78862     -1955.1311      48701.695      51966.568      19434.789      32531.779      8212.3426      8707.9283      8998.3928      1092.5932      127.20905      15777.419     -10384.106     -702.06399      114502.4       48.559201      48.559201      48.559201      1.0705884     -2738.8044     -1662.8669     -1463.7219    
     49500   49500          758.10903     -1869.2905      49333.116      52478.158      19703.013      32775.145      8233.7584      8842.7552      9117.683       1078.6503      101.53689      15780.025     -10379.264     -696.81513      115364.91      48.680823      48.680823      48.680823      1.0625843     -1601.6938     -1991.6336     -2014.5441    
     50000   50000          740.45535     -14.364372      51578.25       51602.193      19244.2        32357.994      8187.9256      8614.9331      9017.4333      1057.7609      99.033826      15764.276     -10383.368     -703.34504      114293.85      48.529702      48.529702      48.529702      1.0725419     -703.70783      1906.2506     -1245.6359    
     50500   50500          746.68918      583.17249      53092.14       52119.597      19406.215      32713.382      8422.9158      8608.0462      8943.852       1118.7797      190.95993      15803.667     -10374.839     -703.00007      114349.94      48.537638      48.537638      48.537638      1.0720158     -768.52907      1809.9917      708.05483    
     51000   51000          746.62457      856.5267       53524.211      52100.74       19404.536      32696.204      8316.7111      8790.1979      8971.0943      1106.8146      91.691015      15800         -10380.305     -705.4389       113954.61      48.481639      48.481639      48.481639      1.0757348      1176.1664     -1557.6361      2951.0499    
     51500   51500          744.9825       322.73101      52763.51       52224.618      19361.859      32862.759      8345.3054      8764.7833      9058.9036      1136.4103      152.88304      15786.859     -10382.386     -702.11154      114494.65      48.558105      48.558105      48.558105      1.0706609      180.93869      1873.7604     -1086.5061    
     52000   52000          740.71954      181.11436      52121.7        51819.281      19251.066      32568.215      8424.6761      8593.3337      8950.5928      1124.9492      89.838096      15768.008     -10383.182     -702.12095      114493.11      48.557888      48.557888      48.557888      1.0706753      412.59531      857.02417     -726.2764     
     52500   52500          748.26511     -1203.154       50018.523      52017.081      19447.173      32569.908      8417.5146      8627.1584      9101.1061      1095.4569     -47.63391       15763.188     -10386.882     -705.78365      113898.94      48.473744      48.473744      48.473744      1.0762606     -1161.2576     -639.3916      -1808.8127    
     53000   53000          744.11179     -2165.9784      48228.846      51835.367      19339.229      32496.137      8307.2878      8760.5914      8912.3453      1025.3984      83.763336      15786.233     -10379.482     -704.09766      114171.68      48.512404      48.512404      48.512404      1.0736896     -2885.9108     -2347.7619     -1264.2626    
     53500   53500          755.4332       248.75159      52556.148      52139.226      19633.469      32505.757      8342.826       8724.1162      8872.2079      1057.7001      93.920948      15796.185     -10381.199     -699.4855       114924.49      48.618795      48.618795      48.618795      1.0666564      1375.9805      1389.4962     -2019.2219    
     54000   54000          750.26492     -130.55038      51979.276      52198.605      19499.147      32699.458      8415.4705      8639.0085      8881.1321      1110.0561      235.40754      15792.596     -10374.213     -697.83086      115196.99      48.657192      48.657192      48.657192      1.0641332     -234.55628      305.60738     -462.70224    
     54500   54500          746.70636      1615.8243      54477.309      51794.966      19406.662      32388.305      8374.0883      8546.2126      8878.0297      1105.2897      60.234644      15804.833     -10380.383     -706.23151      113826.72      48.463496      48.463496      48.463496      1.0769435      1114.5425      3470.633       262.29734    
     55000   55000          751.08015     -559.47556      50805.089      51730.966      19520.335      32210.631      8295.0175      8492.7072      8934.0024      1037.5232      52.639078      15776.082     -10377.34      -708.42696      113473.96      48.41338       48.41338       48.41338       1.0802914      355.17229     -1864.3596     -169.23939    
     55500   55500          747.50337      24.184009      51739.901      51699.689      19427.375      32272.314      8431.7258      8642.9643      8799.8247      1042.7245     -30.098237      15762.866     -10377.694     -705.07816      114012.91      48.489906      48.489906      48.489906      1.0751847     -902.88097      542.43541      432.99759    
     56000   56000          745.45807     -1136.781       50096.175      51991.173      19374.219      32616.954      8319.1904      8688.7063      9008.9076      1098.692       136.82094      15745.256     -10380.619     -703.29125      114302.59      48.530939      48.530939      48.530939      1.0724599     -472.86839     -1597.3172     -1340.1574    
     56500   56500          751.94365      51.16157       52319.146      52233.958      19542.777      32691.181      8453.6319      8779.9349      8896.4633      1046.0225      110.58528      15780.462     -10375.919     -704.09645      114171.88      48.512432      48.512432      48.512432      1.0736877      281.54704     -933.70805      805.64572    
     57000   57000          761.43441     -2285.4846      48322.761      52137.046      19789.439      32347.608      8339.3823      8538.5365      9031.7884      1046.7846     -29.334878      15795.15      -10374.699     -702.47738      114435.02      48.549674      48.549674      48.549674      1.0712188     -519.19191     -2278.865      -4058.3968    
     57500   57500          744.17124     -918.13395      50291.979      51824.71       19340.774      32483.936      8135.7045      8771.0764      8994.1018      1065.3633      113.19193      15786.936     -10382.438     -702.27493      114468.01      48.554339      48.554339      48.554339      1.0709101      58.452033     -476.69072     -2336.1632    
     58000   58000          755.48087     -825.51406      50793.038      52177.04       19634.708      32542.332      8423.9173      8606.1546      8988.8874      1074.2273      23.129167      15798.296     -10372.279     -699.28586      114957.3       48.623421      48.623421      48.623421      1.066352      -166.45878     -1143.2315     -1166.8519    
     58500   58500          751.1646      -40.324356      51936.163      52003.649      19522.53       32481.119      8330.88        8514.074       8913.3452      1112.0694      186.14056      15793.995     -10369.385     -700.52728      114753.58      48.594682      48.594682      48.594682      1.068245      -577.60973      1542.8527     -1086.216     
     59000   59000          735.909        315.68463      52283.876      51756.187      19126.042      32630.146      8200.3243      8789.1247      8971.3578      1099.9978      131.12404      15805.566     -10367.348     -701.36269      114616.89      48.575381      48.575381      48.575381      1.069519       1233.1407     -425.16834      139.08152    
     59500   59500          737.73276     -942.00216      50309.305      51875.08       19173.441      32701.639      8434.5875      8782.2307      8881.5163      1078.5832      113.65323      15793.192     -10382.123     -705.32593      113972.86      48.484228      48.484228      48.484228      1.0755626     -950.58988      60.785365     -1936.202     
     60000   60000          747.90289      462.94865      53016.982      52247.815      19437.759      32810.056      8469.0034      8920.3         8884.1846      1047.0017      76.962916      15792.047     -10379.444     -705.6335       113923.18      48.477182      48.477182      48.477182      1.0760316     -1434.989       1395.9708      1427.8642    
     60500   60500          758.11474      1561.0967      55007.939      52391.883      19703.162      32688.721      8393.8839      8785.9612      8831.7691      1096.7781      144.54471      15809.692     -10373.907     -699.60022      114905.64      48.616138      48.616138      48.616138      1.0668314      2357.2707      1519.0765      806.94285    
     61000   61000          751.61117     -482.31575      51359.499      52164.62       19534.136      32630.484      8424.9983      8590.6992      8932.3387      1130.9601      125.08657      15804.961     -10378.56      -702.32369      114460.06      48.553215      48.553215      48.553215      1.0709844     -973.29352     -451.81272     -21.841028    
     61500   61500          761.11238      60.307482      52171.988      52072.786      19781.069      32291.717      8446.0698      8722.8838      8770.4972      1027.6275     -58.522548      15763.608     -10380.447     -712.71612      112791.07      48.316067      48.316067      48.316067      1.086832       278.90493     -514.22033      416.23785    
     62000   62000          746.68986     -1430.0179      49512.745      51872.742      19406.233      32466.51       8444.034       8739.2337      8900.3612      1056.3143     -81.191946      15788.239     -10380.48      -710.39052      113160.31      48.368733      48.368733      48.368733      1.0832856     -3533.2194     -1053.0973      296.263      
     62500   62500          754.10621     -2831.4795      47219.297      51958.804      19598.981      32359.823      8435.1958      8625.3527      8904.5197      1040.0497     -45.404161      15778.926     -10378.817     -700.40211      114774.09      48.597577      48.597577      48.597577      1.0680542     -2616.3539     -3147.2343     -2730.8503    
     63000   63000          745.81885     -121.22055      51976.734      52181.123      19383.595      32797.528      8220.9952      9020.1363      8884.7671      1072.9424      148.20361      15816.551     -10366.068     -695.32245      115612.57      48.715633      48.715633      48.715633      1.0603081     -402.93633      1189.2759     -1150.0012    
     63500   63500          746.71101     -355.40823      51368.033      51964.598      19406.782      32557.816      8324.8899      8681.7931      8913.0196      1075.9459      137.8099       15797.356     -10372.998     -698.45157      115094.61      48.642774      48.642774      48.642774      1.0650798      518.39911     -562.95611     -1021.6677    
     64000   64000          746.32094      594.63346      52583.049      51591.019      19396.644      32194.374      8380.7905      8727.888       8660.2287      1032.7536     -26.950911      15799.243     -10379.578     -702.73492      114393.08      48.543742      48.543742      48.543742      1.0716115     -344.39399      145.95525      1982.3391    
     64500   64500          740.55804      199.07527      52034.868      51702.408      19246.869      32455.539      8494.1404      8603.2021      8832.7261      1075.2767      45.748375      15780.778     -10376.332     -702.01244      114510.81      48.56039       48.56039       48.56039       1.0705098      608.06946     -1154.8584      1144.0148    
     65000   65000          755.76632      741.56479      53410.878      52168.52       19642.127      32526.393      8411.3428      8513.8969      8880.0229      1082.5715      241.50211      15772.88      -10375.823     -699.79271      114874.04      48.61168       48.61168       48.61168       1.0671249      299.13874      1351.5113      574.04433    
     65500   65500          759.0376       440.63265      52967.883      52235.355      19727.147      32508.209      8374.6186      8562.4182      8993.8214      1095.462       83.282271      15777.349     -10378.743     -705.21264      113991.17      48.486824      48.486824      48.486824      1.0753898     -553.61803      1504.1438      371.37218    
     66000   66000          750.78459      569.14699      53057.492      52106.204      19512.653      32593.551      8347.2195      8623.9401      8887.7209      1060.1229      258.03314      15789.045     -10372.531     -701.4221       114607.19      48.574009      48.574009      48.574009      1.0696096      2395.1946     -85.807877     -601.94575    
     66500   66500          738.75892     -419.38755      51105.187      51806.225      19200.11       32606.115      8324.9212      8593.6063      9141.5669      1075.1463      53.848774      15793.99      -10376.964     -701.3598       114617.37      48.575447      48.575447      48.575447      1.0695146     -2020.3291     -928.63612      1690.8026    
     67000   67000          751.27619     -279.43241      51588.768      52056.991      19525.43       32531.562      8217.2123      8591.9734      9152.0292      1078.6297      74.968628      15794.331     -10377.583     -699.66655      114894.75      48.614601      48.614601      48.614601      1.0669325      1445.3238     -1028.2485     -1255.3725    
     67500   67500          758.90788     -808.30437      50732.967      52086.151      19723.775      32362.376      8268.4351      8572.0209      8908.5384      1059.3186      159.93605      15772.609     -10378.482     -700.30158      114790.56      48.599902      48.599902      48.599902      1.0679009     -968.26789      639.87621     -2096.5214    
     68000   68000          750.97534     -393.99256      51837.487      52497.661      19517.611      32980.051      8441.0336      8790.9877      9105.8972      1090.851       125.47724      15799.299     -10373.495     -699.67514      114893.34      48.614402      48.614402      48.614402      1.0669456     -1212.7212      313.93748     -283.19392    
     68500   68500          753.46323      405.31166      52948.622      52270.813      19582.27       32688.543      8253.097       8827.7606      8971.5171      1088.0445      112.81531      15805.409     -10370.101     -701.04942      114668.11      48.582615      48.582615      48.582615      1.0690413     -878.16513      2224.9449     -130.84475    
     69000   69000          746.43522     -71.974779      52021.045      52140.838      19399.615      32741.223      8430.8112      8612.6742      9084.6462      1085.0605      114.663        15783.473     -10370.105     -704.39642      114123.26      48.505545      48.505545      48.505545      1.0741451     -1809.7794     -79.813092      1673.6682    
     69500   69500          750.4407      -943.32712      50535.309      52123.116      19503.716      32619.4        8245.6234      8668.2916      9184.3922      1095.1724      14.81425       15791.997     -10380.891     -696.51683      115414.31      48.687771      48.687771      48.687771      1.0621294     -1071.2631     -1502.9175     -255.80079    
     70000   70000          756.53086     -207.498        51806.006      52154.469      19661.997      32492.472      8146.7512      8786.7655      9002.4079      1088.4172      65.652778      15781.045     -10378.568     -698.11153      115150.67      48.65067       48.65067       48.65067       1.0645612      1020.186      -2004.1118      361.43177    
     70500   70500          755.36043      2030.8307      55667.24       52228.767      19631.578      32597.189      8475.8447      8740.9811      8685.2454      1037.1438      226.85915      15808.169     -10377.054     -692.42911      116095.66      48.783392      48.783392      48.783392      1.055896       1547.4798      2703.4295      1841.5828    
     71000   71000          758.3189       1028.8276      53831.293      52120.146      19708.468      32411.678      8219.1332      8648.9068      8924.1703      1055.046       173.77355      15774.703     -10384.055     -704.89173      114043.06      48.494181      48.494181      48.494181      1.0749005      2040.7293      1336.9684     -291.21495    
     71500   71500          749.27206      959.49873      54121.287      52513.035      19473.343      33039.692      8593.0098      8955.4554      8975.6575      1087.9653      32.440144      15776.032     -10380.868     -699.45119      114930.13      48.61959       48.61959       48.61959       1.0666041      1569.6095     -186.87182      1495.7585    
     72000   72000          746.23235      1631.3647      54683.793      51946.008      19394.342      32551.666      8310.3136      8659.9049      8866.0253      1074.9588      219.08172      15799.679     -10378.298     -698.58442      115072.72      48.63969       48.63969       48.63969       1.0652823      1403.9979      3553.914      -63.817685    
     72500   72500          755.89249     -949.27147      50472.832      52060.614      19645.406      32415.208      8240.5653      8598.8961      9073.0673      1042.315       41.759429      15797.074     -10378.47      -700.91712      114689.75      48.585671      48.585671      48.585671      1.0688395     -1700.0419     -1535.4597      387.68721    
     73000   73000          744.75968      39.225471      51811.107      51745.711      19356.068      32389.643      8091.5536      8659.2109      9049.7616      1072.5953      123.86446      15781.137     -10388.479     -703.21233      114315.42      48.532754      48.532754      48.532754      1.0723395     -1384.7183      1129.1441      373.25066    
     73500   73500          753.5431       1151.9185      54168.585      52253.387      19584.346      32669.041      8352.9083      8670.0804      9083.3079      1047.3818      62.628955      15825.273     -10372.54      -705.13977      114002.95      48.488494      48.488494      48.488494      1.0752787      1393.142       742.67381      1319.9396    
     74000   74000          748.94274     -2831.1157      47405.415      52136.067      19464.784      32671.283      8321.7966      8757.7108      9047.7549      1095.6781      29.366566      15791.058     -10372.082     -701.62304      114574.36      48.569372      48.569372      48.569372      1.069916      -3991.0516     -2904.4811     -1597.8143    
     74500   74500          741.53435     -1313.7956      49457.649      51680.366      19272.243      32408.123      8183.568       8587.0123      9068.0833      1059.895       111.52272      15779.061     -10381.019     -692.96415      116006.02      48.770833      48.770833      48.770833      1.0567119     -1765.4639     -762.48405     -1413.4388    
     75000   75000          745.35654     -507.60108      50825.755      51680.108      19371.58       32308.528      8237.8927      8590.7656      8763.3021      1090.9849      185.87689      15812.809     -10373.103     -696.55041      115408.75      48.686989      48.686989      48.686989      1.0621807     -540.85341     -368.09906     -613.85077    
     75500   75500          745.87694      2354.0808      55938.08       52015.421      19385.105      32630.316      8498.1735      8710.6279      8662.5353      1085.7329      255.46198      15793.877     -10376.093     -703.57108      114257.13      48.524504      48.524504      48.524504      1.0728866      2107.273       2171.9169      2783.0524    
     76000   76000          744.85765      471.67529      52550.023      51766.313      19358.614      32407.699      8296.815       8564.8098      8943.9886      1047.3111      152.13874      15785.64      -10383.004     -705.5945       113929.48      48.478075      48.478075      48.478075      1.0759721     -1578.8977      1340.5297      1653.3939    
     76500   76500          753.75924      877.2848       53587.662      52117.179      19589.963      32527.216      8316.7687      8642.5861      8925.5282      1084.5077      167.92011      15772.864     -10382.959     -699.43553      114932.7       48.619953      48.619953      48.619953      1.0665802      576.28515      539.0404       1516.5288    
     77000   77000          753.25457      220.39833      52795.185      52423.038      19576.847      32846.191      8557.5682      8591.3595      8965.6372      1076.3156      228.19769      15805.291     -10378.178     -694.32238      115779.09      48.739011      48.739011      48.739011      1.0587831      199.08735     -963.89855      1426.0062    
     77500   77500          772.37208     -1391.4323      50195.97       52529.344      20073.705      32455.638      8364.2847      8591.4971      8935.4826      1085.6607      78.638159      15779.966     -10379.891     -699.10902      114986.38      48.627521      48.627521      48.627521      1.0660823     -949.28701     -1061.3181     -2163.6919    
     78000   78000          747.60928     -274.25817      51886.267      52348.767      19430.128      32918.639      8425.5287      8685.2515      9069.5235      1101.332       226.86957      15791.937     -10381.803     -695.20919      115631.4       48.718278      48.718278      48.718278      1.0601354     -429.39406     -224.64141     -168.73903    
     78500   78500          761.41989      2174.0757      55866.664      52187.765      19789.061      32398.704      8266.2199      8620.7988      8868.9394      1063.2339      204.06651      15754.858     -10379.413     -692.82579      116029.19      48.77408       48.77408       48.77408       1.0565009      765.44401      3614.7079      2142.0751    
     79000   79000          743.27595      755.09049      53093.145      51825.976      19317.506      32508.47       8516.1081      8651.4334      8768.5874      1061.3246      91.687675      15797.033     -10377.704     -698.60527      115069.29      48.639206      48.639206      48.639206      1.0653141     -21.484319      1150.6963      1136.0595    
     79500   79500          738.8702       395.84131      52620.097      51954.019      19203.002      32751.017      8482.4295      8777.0066      8880.2342      1108.7947      100.31822      15789.96      -10387.726     -696.72801      115379.33      48.682852      48.682852      48.682852      1.0624515      1135.2741     -1545.2174      1597.4672    
     80000   80000          745.47004     -1158.7931      50267.535      52212.598      19374.53       32838.068      8351.2773      8736.2236      9134.3888      1037.5849      170.12015      15789.53      -10381.057     -698.4568       115093.75      48.642652      48.642652      48.642652      1.0650877     -582.86581     -2052.0793     -841.43408    
     80500   80500          749.64207      941.65832      54083.331      52492.088      19482.96       33009.129      8288.7136      8872.8701      9152.9435      1104.0563      167.24265      15800.539     -10377.236     -693.78371      115868.98      48.751621      48.751621      48.751621      1.0579617     -614.98769      1422.9181      2017.0445    
     81000   81000          753.91803      535.59959      53116.859      52214.093      19594.091      32620.003      8441.821       8595.4961      9027.8957      1081.4251      54.151722      15795.273     -10376.06      -695.55609      115573.73      48.710177      48.710177      48.710177      1.0606644     -233.71948      1395.5633      444.95495    
     81500   81500          752.93162     -904.21779      50412.204      51932.103      19568.454      32363.649      8248.1788      8504.9628      8982.792       1053.9995      198.69809      15754.067     -10379.048     -697.4698       115256.62      48.665586      48.665586      48.665586      1.0635826     -768.34371     -281.54829     -1662.7614    
     82000   82000          751.43019     -1435.9207      49712.953      52114.778      19529.432      32585.346      8424.2877      8580.2465      9011.9925      1078.6157      88.399692      15776.757     -10374.953     -700.90037      114692.5       48.586059      48.586059      48.586059      1.068814      -1394.9611     -1955.6551     -957.14598    
     82500   82500          761.3337       305.89931      52732.117      52218.991      19786.821      32432.17       8333.5054      8561.459       8908.48        1086.9681      144.83841      15769.903     -10372.985     -698.9104       115019.05      48.632127      48.632127      48.632127      1.0657794      1051.9473     -1357.2942      1223.0448    
     83000   83000          751.49312     -495.6734       51643.287      52475.131      19531.068      32944.063      8525.72        8790.6017      9078.4791      1103.6198      39.803063      15779.398     -10373.559     -698.58754      115072.21      48.639618      48.639618      48.639618      1.0652871     -2146.1667      235.55635      423.59016    
     83500   83500          751.91294     -1122.0976      50526.828      52423.461      19541.979      32881.483      8419.4247      8726.6732      9017.4174      1093.8098      181.09045      15813.649     -10370.582     -693.60862      115898.23      48.755723      48.755723      48.755723      1.0576947     -506.14398     -587.1679      -2272.981     
     84000   84000          750.22704      469.25678      52636.128      51842.7        19498.163      32344.537      8244.3754      8733.729       8799.3589      1046.5679      116.40503      15782.228     -10378.127     -693.37862      115936.68      48.761114      48.761114      48.761114      1.0573439     -28.54046       865.16079      571.15001    
     84500   84500          759.21148      696.4611       53322.368      52152.874      19731.666      32421.209      8388.8759      8553.2784      8857.5423      1048.861       165.00249      15780.93      -10373.281     -698.17801      115139.71      48.649126      48.649126      48.649126      1.0646626     -174.91009      1584.4884      679.80505    
     85000   85000          758.63059     -818.12429      50817.29       52199.117      19716.568      32482.549      8387.173       8482.8179      9004.115       1030.3431      192.3849       15766.674     -10380.959     -694.11703      115813.34      48.743817      48.743817      48.743817      1.0584699      465.6505      -1090.4489     -1829.5745    
     85500   85500          744.82672     -558.43507      51045.206      51982.677      19357.81       32624.867      8362.1378      8688.6632      8995.0345      1099.6333      73.500396      15781.377     -10375.479     -698.36401      115109.04      48.644807      48.644807      48.644807      1.0649462     -2490.3309      576.94934      238.07631    
     86000   86000          757.80603     -799.25601      50748.705      52101.929      19695.138      32406.791      8196.2095      8709.1777      8990.2006      1026.8313      53.752967      15809.806     -10379.188     -692.44186      116093.52      48.783092      48.783092      48.783092      1.0559155     -296.96769     -1214.9154     -885.88498    
     86500   86500          745.54514     -1240.1602      49632.647      51730.216      19376.482      32353.734      8295.7003      8567.9423      8944.0182      1029.5559      103.18665      15789.548     -10376.218     -693.15237      115974.52      48.766418      48.766418      48.766418      1.0569989     -55.551498     -1642.3506     -2022.5785    
     87000   87000          753.98145      5.6930267      52108.576      52098.882      19595.739      32503.144      8243.9956      8644.2877      8900.4269      1078.6538      203.74382      15809.929     -10377.893     -688.49913      116758.34      48.876035      48.876035      48.876035      1.0499031      547.02585     -604.79555      74.848783    
[...]
   5179500   5179500        250.28187      1236.163       26465.38       24655.058      6504.7463      18150.312      3593.7924      5537.8583      4799.3133      379.65644     -1436.1949      15692.453     -10416.567     -800.54732      100416.32      46.480211      46.480211      46.480211      1.2207672      490.88482      281.97028      2935.6338    
   5180000   5180000        251.70561      26.624589      24754.937      24715.726      6541.7489      18173.977      3564.0347      5579.8947      4821.7982      379.07949     -1422.6086      15670.594     -10418.816     -796.04972      100983.66      46.567583      46.567583      46.567583      1.2139087      360.39704     -543.40749      262.88422    
   5180500   5180500        251.82759     -990.99579      23171.899      24629.158      6544.9192      18084.238      3550.3467      5516.0596      4845.0813      383.31722     -1493.5096      15697.257     -10414.314     -797.26443      100829.8       46.543921      46.543921      46.543921      1.215761      -1603.7749     -415.7696      -953.44284    
   5181000   5181000        253.35035      634.88599      25582.262      24648.429      6584.4953      18063.934      3613.9444      5559.9851      4714.106       374.15023     -1467.0567      15680.596     -10411.792     -797.0652       100855         46.547799      46.547799      46.547799      1.2154572      1146.2167     -408.2365       1166.6778    
   5181500   5181500        250.01693     -434.24269      23976.813      24617.077      6497.8608      18119.216      3580.503       5516.361       4809.8634      370.42833     -1426.5396      15688.273     -10419.673     -795.135        101099.83      46.585434      46.585434      46.585434      1.2125138     -98.636037     -534.50283     -669.58919    
   5182000   5182000        250.67068      91.847579      24687.732      24553.281      6514.8515      18038.43       3575.0028      5499.8926      4746.9578      380.75569     -1447.5418      15702.533     -10419.17      -800.88645      100373.8       46.47365       46.47365       46.47365       1.2212843      1282.6295     -782.56491     -224.52187    
   5182500   5182500        247.33302     -378.93204      23953.486      24508.926      6428.1066      18080.819      3529.1837      5530.0248      4821.8123      376.7801      -1452.9939      15690.783     -10414.771     -799.81881      100507.78      46.494319      46.494319      46.494319      1.2196562     -1250.219       39.481186      73.941643    
   5183000   5183000        255.63505     -430.79089      24223.36       24858.774      6643.8738      18214.9        3645.6998      5608.8846      4772.2151      371.60147     -1450.9864      15679.37      -10411.885     -794.8349       101138         46.591296      46.591296      46.591296      1.2120562     -621.14953     -765.37753      94.154388    
   5183500   5183500        249.35089     -670.09164      23498.743      24480.755      6480.5505      18000.204      3500.3552      5495.3775      4750.7674      367.1215      -1395.5069      15695.268     -10413.179     -799.99023      100486.24      46.490998      46.490998      46.490998      1.2199177      518.01856     -602.14168     -1926.1518    
   5184000   5184000        247.76191     -129.53144      24325.051      24515.125      6439.2536      18075.871      3543.5832      5529.4972      4810.1541      383.93509     -1455.0198      15683.878     -10420.157     -798.95124      100616.92      46.511142      46.511142      46.511142      1.2183333     -255.20947     -659.10874      525.72388    
   5184500   5184500        247.01328      759.05083      25663.544      24545.334      6419.7968      18125.538      3569.9888      5641.5124      4689.5965      381.244       -1423.2706      15679.82      -10413.354     -795.82012      101012.79      46.572061      46.572061      46.572061      1.2135586      360.81739      959.50141      956.83369    
   5185000   5185000        251.1157      -203.71276      24393.689      24693.632      6526.4174      18167.214      3575.6885      5581.5111      4815.3145      375.53825     -1445.2149      15682.321     -10417.944     -796.24558      100958.82      46.563765      46.563765      46.563765      1.2142074     -549.78875     -351.9061       290.55656    
   5185500   5185500        252.1551       127.76726      24929.309      24741.203      6553.4311      18187.771      3559.4753      5616.6937      4795.0385      373.12492     -1411.6789      15670.567     -10415.45      -796.31372      100950.18      46.562437      46.562437      46.562437      1.2143113     -845.98915     -684.47632      1913.7673    
   5186000   5186000        248.97917     -249.10164      24204.809      24569.911      6470.8898      18099.021      3568.1973      5616.0112      4761.1629      378.73408     -1502.3399      15692.667     -10415.412     -799.88903      100498.96      46.492959      46.492959      46.492959      1.2197633      531.67134     -497.29211     -781.68414    
   5186500   5186500        248.24181      1406.1064      26626.218      24556.616      6451.7259      18104.89       3564.6494      5615.9931      4682.6926      370.9655      -1426.8039      15713.635     -10416.241     -796.52343      100923.6       46.55835       46.55835       46.55835       1.2146311      2308.2301      1382.4412      527.64797    
   5187000   5187000        250.3967      -275.05971      24193.613      24597.927      6507.7308      18090.196      3568.5455      5599.8933      4782.9339      373.80037     -1509.8825      15689.596     -10414.69      -797.58226      100789.62      46.537738      46.537738      46.537738      1.2162457     -36.125707      539.42703     -1328.4804    
   5187500   5187500        251.13504     -102.49953      24457.658      24608.895      6526.9199      18081.975      3524.511       5549.1698      4800.8587      372.82654     -1441.5386      15695.157     -10419.009     -794.57102      101171.59      46.596453      46.596453      46.596453      1.2116538     -338.12519     -583.70944      614.33603    
   5188000   5188000        250.04605      1510.1135      26861.442      24656.138      6498.6174      18157.521      3620.0576      5576.1466      4787.0718      359.91937     -1449.4092      15683.114     -10419.379     -802.80209      100134.28      46.436655      46.436655      46.436655      1.2242055      1061.8031      1163.742       2304.7954    
   5188500   5188500        247.69678     -92.801406      24363.268      24499.575      6437.5607      18062.015      3524.5684      5505.1913      4884.3286      359.37766     -1493.7913      15694.06      -10411.72      -798.18442      100713.58      46.526032      46.526032      46.526032      1.217164       958.04373     -224.10027     -1012.3477    
   5189000   5189000        248.87875      14.237361      24546.949      24526.081      6468.2797      18057.801      3560.143       5523.6004      4809.6849      363.54159     -1469.2937      15684.677     -10414.552     -799.87137      100501.18      46.493301      46.493301      46.493301      1.2197364      761.51735     -660.88639     -57.91887     
   5189500   5189500        250.51696     -57.676584      24553.264      24637.917      6510.8564      18127.06       3571.6122      5576.8441      4821.4229      373.5302      -1477.5496      15679.871     -10418.67      -798.77346      100639.31      46.514593      46.514593      46.514593      1.2180622     -1306.3683     -102.61479      1235.9534    
   5190000   5190000        248.40036     -861.24039      23357.549      24628.812      6455.8466      18172.965      3549.3494      5598.4096      4808.2778      366.22578     -1424.2897      15690.395     -10415.403     -794.24804      101212.73      46.602768      46.602768      46.602768      1.2111613     -724.7997      -1507.9343     -350.98713    
   5190500   5190500        251.70463      931.98141      25988.289      24624.278      6541.7236      18082.554      3578.9199      5576.3819      4755.6295      362.18423     -1461.8501      15688.722     -10417.433     -801.04394      100354.06      46.470604      46.470604      46.470604      1.2215245      13.875384      353.03571      2429.0331    
   5191000   5191000        251.15084      952.33577      25941.196      24546.991      6527.3307      18019.661      3593.9565      5555.5765      4696.7788      369.16313     -1463.1742      15683.996     -10416.636     -800.81218      100383.1       46.475087      46.475087      46.475087      1.2211711      158.64106      1749.6198      948.74647    
   5191500   5191500        246.7677       133.14092      24693.639      24497.822      6413.4143      18084.408      3540.5921      5511.3005      4845.1524      378.85072     -1458.0918      15683.389     -10416.785     -797.12965      100846.85      46.546544      46.546544      46.546544      1.2155555      991.57167     -138.47176     -453.67717    
   5192000   5192000        254.77828      250.24082      25217.297      24850.679      6621.6068      18229.072      3635.8909      5503.5023      4882.5349      352.4237      -1407.2784      15674.94      -10412.941     -800.22289      100457.03      46.486492      46.486492      46.486492      1.2202724      108.85135     -404.54982      1046.4209    
   5192500   5192500        247.34277      439.47261      25225.881      24581.118      6428.3601      18152.758      3612.0867      5569.7516      4813.7062      368.04855     -1476.5546      15681.234     -10415.514     -799.09577      100598.72      46.508338      46.508338      46.508338      1.2185537     -462.41291      1439.0842      341.74657    
   5193000   5193000        249.54816      223.38963      24890.729      24562.116      6485.6775      18076.438      3536.648       5524.0263      4831.2372      378.09381     -1472.2655      15692.614     -10413.916     -796.97738      100866.12      46.549509      46.549509      46.549509      1.2153233     -391.11065     -55.312127      1116.5917    
   5193500   5193500        249.86589     -513.18663      23759.283      24514.159      6493.9351      18020.224      3444.9147      5579.0667      4777.3051      363.91112     -1421.2889      15692.464     -10416.149     -797.01562      100861.28      46.548764      46.548764      46.548764      1.2153816     -657.01324     -468.89564     -413.65101    
   5194000   5194000        245.31221     -607.78975      23595.533      24488.406      6375.5866      18112.819      3499.5086      5715.6165      4761.1245      369.75199     -1508.6771      15689.017     -10413.523     -798.05126      100730.39      46.52862       46.52862       46.52862       1.2169609      812.6073      -1057.9092     -1578.0673    
   5194500   5194500        251.0758       662.75585      25580.391      24606.391      6525.3803      18081.01       3557.3322      5584.6954      4725.4663      376.98217     -1441.5167      15696.141     -10418.09      -797.74028      100769.66      46.534665      46.534665      46.534665      1.2164867      964.23129      293.49197      730.54429    
   5195000   5195000        249.63805     -72.950153      24500.383      24607.215      6488.0138      18119.201      3523.3567      5561.3307      4872.9186      370.3076      -1475.4548      15684.744     -10418.002     -800.55676      100415.13      46.480029      46.480029      46.480029      1.2207816      847.68065     -1299.9042      233.37306    
   5195500   5195500        253.6606      -289.49056      24211.08       24637.188      6592.5585      18044.63       3544.8847      5573.9677      4760.9884      362.71209     -1461.4943      15679.199     -10415.628     -796.4934       100927.41      46.558935      46.558935      46.558935      1.2145853     -320.89527     -929.62566      382.04924    
   5196000   5196000        249.00152     -193.80931      24191.869      24477.243      6471.4704      18005.773      3563.9278      5553.6104      4707.9826      379.55915     -1450.7464      15670.529     -10419.09      -796.20943      100963.4       46.564469      46.564469      46.564469      1.2141522     -1396.9739      222.45541      593.09053    
   5196500   5196500        247.3092      -1488.5198      22309.058      24506.486      6427.4877      18078.998      3506.4782      5600.2612      4817.5684      360.95079     -1469.7658      15678.834     -10415.329     -794.15866      101224.12      46.604517      46.604517      46.604517      1.211025      -1492.4515     -1796.9771     -1176.1308    
   5197000   5197000        253.01048      357.26928      25216.916      24691.092      6575.6621      18115.43       3551.3341      5575.2723      4791.902       373.62638     -1451.58        15693.136     -10418.261     -796.56608      100918.2       46.557519      46.557519      46.557519      1.2146961      137.20712      1109.7078     -175.10705    
   5197500   5197500        252.49162      604.92655      25534.999      24647.525      6562.1771      18085.348      3445.3553      5621.5917      4816.3986      377.88134     -1446.0312      15686.964     -10416.811     -799.12455      100595.1       46.50778       46.50778       46.50778       1.2185976      1219.3172      882.50818     -287.04575    
   5198000   5198000        249.01166     -100.50606      24401.495      24549.132      6471.7342      18077.398      3586.0577      5605.0979      4725.6724      364.53616     -1480.9486      15691.521     -10414.538     -798.1102       100722.95      46.527474      46.527474      46.527474      1.2170508     -101.86117     -1729.9895      1530.3325    
   5198500   5198500        249.39774      326.97981      25041.774      24561.592      6481.768       18079.824      3514.5562      5542.941       4767.9299      382.85291     -1407.8488      15694.019     -10414.626     -798.33047      100695.16      46.523195      46.523195      46.523195      1.2173867     -70.387129      670.00268      381.3239     
   5199000   5199000        252.38659     -564.60417      23815.189      24645.806      6559.4475      18086.359      3430.6068      5508.8015      4889.9974      372.81901     -1369.8562      15670.313     -10416.322     -796.91144      100874.46      46.550792      46.550792      46.550792      1.2152228     -312.74982     -795.90528     -585.15741    
   5199500   5199500        254.73442      143.31656      24909.862      24699.215      6620.4667      18078.748      3536.3706      5562.2178      4789.5193      362.06982     -1457.1557      15703.691     -10417.964     -797.6412       100782.17      46.536592      46.536592      46.536592      1.2163356     -376.50457      577.95727      228.49698    
   5200000   5200000        251.09272     -689.30673      23662.315      24676.734      6525.8203      18150.914      3568.2752      5533.6125      4860.7372      370.78867     -1435.533       15669.716     -10416.683     -796.64012      100908.82      46.556077      46.556077      46.556077      1.214809      -1792.3151     -474.23413      198.629      
Loop time of 429.054 on 1 procs for 200000 steps with 8720 atoms

Performance: 40.275 ns/day, 0.596 hours/ns, 466.141 timesteps/s, 4.065 Matom-step/s
100.0% CPU use with 1 MPI tasks x 1 OpenMP threads

MPI task timing breakdown:
Section |  min time  |  avg time  |  max time  |%varavg| %total
---------------------------------------------------------------
Pair    | 59.402     | 59.402     | 59.402     |   0.0 | 13.84
Bond    | 57.942     | 57.942     | 57.942     |   0.0 | 13.50
Kspace  | 214.5      | 214.5      | 214.5      |   0.0 | 49.99
Neigh   | 14.648     | 14.648     | 14.648     |   0.0 |  3.41
Comm    | 4.4947     | 4.4947     | 4.4947     |   0.0 |  1.05
Output  | 0.057615   | 0.057615   | 0.057615   |   0.0 |  0.01
Modify  | 68.544     | 68.544     | 68.544     |   0.0 | 15.98
Other   |            | 9.465      |            |       |  2.21

Nlocal:           8720 ave        8720 max        8720 min
Histogram: 1 0 0 0 0 0 0 0 0 0
Nghost:          20384 ave       20384 max       20384 min
Histogram: 1 0 0 0 0 0 0 0 0 0
Neighs:              0 ave           0 max           0 min
Histogram: 1 0 0 0 0 0 0 0 0 0
FullNghs:  4.79042e+06 ave 4.79042e+06 max 4.79042e+06 min
Histogram: 1 0 0 0 0 0 0 0 0 0

Total # of neighbors = 4790422
Ave neighs/atom = 549.36032
Ave special neighs/atom = 5.6385321
Neighbor list builds = 3971
Dangerous builds = 0
  unfix npt_tg
  dump per_t_snap all atom 1 per_t_structs.dump
  dump_modify per_t_snap append yes
  run 0
WARNING: No fixes with time integration, atoms won't move
For more information see https://docs.lammps.org/err0028 (src/verlet.cpp:60)
PPPM Kokkos initialization ...
  using 12-bit tables for long-range coulomb
  G vector (1/distance) = 0.30737251
  grid = 36 36 36
  stencil order = 5
  estimated absolute RMS force accuracy = 0.00037147241
  estimated relative force accuracy = 1.1186781e-06
  using double precision cuFFT
  3d grid and FFT values/proc = 79507 46656
Generated 21 of 21 mixed pair_coeff terms from sixthpower/sixthpower mixing rule
Per MPI rank memory allocation (min/avg/max) = 36.75 | 36.75 | 36.75 Mbytes
   Step          Time           Temp          Press         Enthalpy        TotEng         KinEng         PotEng         E_bond        E_angle        E_dihed        E_impro         E_vdwl         E_coul         E_long         E_tail         Volume           Lx             Ly             Lz          Density          Pxx            Pyy            Pzz      
   5200000   5200000        251.09272     -689.30669      23662.315      24676.734      6525.8203      18150.914      3568.2752      5533.6125      4860.7372      370.78867     -1435.533       15671.135     -10418.102     -796.64012      100908.82      46.556077      46.556077      46.556077      1.214809      -1792.3151     -474.23395      198.62898    
Loop time of 8.3998e-05 on 1 procs for 0 steps with 8720 atoms

102.4% CPU use with 1 MPI tasks x 1 OpenMP threads

MPI task timing breakdown:
Section |  min time  |  avg time  |  max time  |%varavg| %total
---------------------------------------------------------------
Pair    | 0          | 0          | 0          |   0.0 |  0.00
Bond    | 0          | 0          | 0          |   0.0 |  0.00
Kspace  | 0          | 0          | 0          |   0.0 |  0.00
Neigh   | 0          | 0          | 0          |   0.0 |  0.00
Comm    | 0          | 0          | 0          |   0.0 |  0.00
Output  | 0          | 0          | 0          |   0.0 |  0.00
Modify  | 0          | 0          | 0          |   0.0 |  0.00
Other   |            | 8.4e-05    |            |       |100.00

Nlocal:           8720 ave        8720 max        8720 min
Histogram: 1 0 0 0 0 0 0 0 0 0
Nghost:          20393 ave       20393 max       20393 min
Histogram: 1 0 0 0 0 0 0 0 0 0
Neighs:              0 ave           0 max           0 min
Histogram: 1 0 0 0 0 0 0 0 0 0
FullNghs:  4.79473e+06 ave 4.79473e+06 max 4.79473e+06 min
Histogram: 1 0 0 0 0 0 0 0 0 0

Total # of neighbors = 4794734
Ave neighs/atom = 549.85482
Ave special neighs/atom = 5.6385321
Neighbor list builds = 0
Dangerous builds = 0
  undump per_t_snap
  print "STAGE COMPLETE: Tg step T=${temps}K P=1.0atm steps=200000"
STAGE COMPLETE: Tg step T=250K P=1.0atm steps=200000
  next temps
  jump SELF TEMP_LOOP

write_data tg_step_out.data
System init for write_data ...
PPPM Kokkos initialization ...
  using 12-bit tables for long-range coulomb
  G vector (1/distance) = 0.30737251
  grid = 36 36 36
  stencil order = 5
  estimated absolute RMS force accuracy = 0.00037147241
  estimated relative force accuracy = 1.1186781e-06
  using double precision cuFFT
  3d grid and FFT values/proc = 79507 46656
Generated 21 of 21 mixed pair_coeff terms from sixthpower/sixthpower mixing rule
Total wall time: 3:11:35
