LAMMPS (22 Jul 2025 - Update 3)
KOKKOS mode with Kokkos version 4.6.2 is enabled
  will use up to 1 GPU(s) per node
  using 1 OpenMP thread(s) per MPI task
Reading data file ...
  orthogonal box = (4.8465158 4.8465158 4.8465158) to (46.904482 46.904482 46.904482)
  1 by 1 by 1 MPI processor grid
  reading atoms ...
  7520 atoms
  reading velocities ...
  7520 velocities
  scanning bonds ...
  4 = max bonds/atom
  scanning angles ...
  17 = max angles/atom
  scanning dihedrals ...
  40 = max dihedrals/atom
  scanning impropers ...
  14 = max impropers/atom
  orthogonal box = (4.8465158 4.8465158 4.8465158) to (46.904482 46.904482 46.904482)
  1 by 1 by 1 MPI processor grid
  reading bonds ...
  7510 bonds
  reading angles ...
  14000 angles
  reading dihedrals ...
  18910 dihedrals
  reading impropers ...
  8500 impropers
Finding 1-2 1-3 1-4 neighbors ...
  special bond factors lj:    0        0        1       
  special bond factors coul:  0        0        1       
     4 = max # of 1-2 neighbors
    11 = max # of 1-3 neighbors
    15 = max # of special neighbors
  special bonds CPU = 0.004 seconds
  read_data CPU = 0.296 seconds
Finding SHAKE clusters ...
      10 = # of size 2 clusters
     490 = # of size 3 clusters
    1010 = # of size 4 clusters
       0 = # of frozen angles
  find clusters CPU = 0.002 seconds
PPPM Kokkos initialization ...
  using 12-bit tables for long-range coulomb
  G vector (1/distance) = 0.33288361
  grid = 45 45 45
  stencil order = 5
  estimated absolute RMS force accuracy = 0.00029054851
  estimated relative force accuracy = 8.749782e-07
  using double precision cuFFT
  3d grid and FFT values/proc = 140608 91125
Generated 15 of 15 mixed pair_coeff terms from sixthpower/sixthpower mixing rule
Neighbor list info ...
  update: every = 1 steps, delay = 0 steps, check = yes
  max neighbors/atom: 4000, page size: 100000
  master list distance cutoff = 11.5
  ghost atom cutoff = 11.5
  binsize = 11.5, bins = 4 4 4
  1 neighbor lists, perpetual/occasional/extra = 1 0 0
  (1) pair lj/class2/coul/long/kk, perpetual
      attributes: full, newton off, kokkos_device
      pair build: full/bin/kk/device
      stencil: full/bin/3d
      bin: kk/device
Setting up Verlet run ...
  Unit style    : real
  Current step  : 0
  Time step     : 1
Per MPI rank memory allocation (min/avg/max) = 65 | 65 | 65 Mbytes
   Step          Time           Temp          Press         Enthalpy        TotEng         KinEng         PotEng         E_bond        E_angle        E_dihed        E_impro         E_vdwl         E_coul         E_long         E_tail         Volume           Lx             Ly             Lz          Density          Pxx            Pyy            Pzz      
         0   0              365.47415      980.36452      27073.577      26009.903      6731.4584      19278.445      2524.9021      6529.5873     -1915.0785      208.97182     -314.04684      43017.372     -30773.263     -527.57757      74395.182      42.057967      42.057967      42.057967      1.1177962      2202.8039     -580.25339      1318.543     
       100   100            305.54597     -317.1018       24498.842      24843.227      5627.6755      19215.551      2528.9299      6570.2929     -1921.6966      194.6867      -426.1276       43037.943     -30768.478     -527.06316      74467.791      42.071645      42.071645      42.071645      1.1167063     -372.04796     -1093.0694      513.81195    
       200   200            298.27657      936.41793      25776.38       24756.473      5493.7847      19262.689      2431.3442      6594.2814     -1894.9141      199.76133     -347.00625      43046.227     -30767.005     -525.55281      74681.799      42.111909      42.111909      42.111909      1.1135063      1401.449       1760.0251     -352.22031    
       300   300            299.8467      -936.09742      23726.341      24750.612      5522.704       19227.908      2522.6713      6525.3288     -1896.4517      206.5178      -404.07259      43037.802     -30763.887     -523.13415      75027.083      42.176709      42.176709      42.176709      1.1083818     -103.49054     -2043.2099     -661.59184    
       400   400            297.88643     -1271.0546      23413.658      24809.483      5486.5989      19322.884      2479.8177      6587.3247     -1891.8704      168.33645     -301.94622      43037.699     -30756.477     -521.24304      75299.287      42.227654      42.227654      42.227654      1.104375      -1836.329      -1212.5879     -764.24692    
       500   500            304.31068      301.45501      25245.103      24912.881      5604.9235      19307.958      2460.3462      6523.6363     -1931.3578      205.53578     -221.44995      43042.824     -30771.576     -519.40029      75566.437      42.277534      42.277534      42.277534      1.1004707     -46.870279      523.27981      427.95549    
       600   600            305.322       -958.05068      23860.372      24920.572      5623.5505      19297.021      2503.8813      6574.1799     -1930.8852      208.04927     -314.75528      43033.862     -30777.311     -517.2587       75879.303      42.335801      42.335801      42.335801      1.0959332     -1014.0915     -861.81148     -998.24903    
       700   700            298.77807     -790.27629      23985.111      24860.715      5503.0215      19357.693      2514.7401      6586.4688     -1915.6337      193.75803     -282.45133      43038.642     -30777.831     -516.62888      75971.807      42.352997      42.352997      42.352997      1.0945988     -280.88774     -852.66012     -1237.281     
       800   800            301.04225     -1296.205       23404.74       24838.551      5544.7241      19293.827      2456.0639      6584.9001     -1921.5739      199.42147     -268.22344      43019.148     -30775.909     -517.47417      75847.707      42.329924      42.329924      42.329924      1.0963898     -796.25397     -1461.3064     -1631.0546    
       900   900            298.54643     -442.201        24341.187      24829.415      5498.7552      19330.66       2481.8613      6575.8554     -1930.6009      196.81146     -260.98339      43041.439     -30773.724     -518.4471       75705.369      42.303428      42.303428      42.303428      1.0984512      701.43667     -830.65244     -1197.3872    
      1000   1000           296.60106     -417.40712      24386.022      24846.543      5462.9245      19383.619      2446.6295      6649.5615     -1883.3733      193.96674     -284.10668      43039.668     -30778.727     -518.8208       75650.84       42.293269      42.293269      42.293269      1.0992429     -1698.2853     -1080.858       1526.9219    
      1100   1100           303.28883     -422.20859      24411.322      24877.436      5586.1027      19291.333      2462.2718      6623.1041     -1931.2732      199.31053     -318.63712      43034.258     -30777.701     -518.49218      75698.787      42.302202      42.302202      42.302202      1.0985467      938.89831     -252.44452     -1953.0796    
      1200   1200           300.52595     -461.05842      24325.909      24835.179      5535.2147      19299.965      2432.0727      6581.6254     -1949.4421      190.96449     -221.85373      43034.017     -30767.419     -518.22066      75738.45       42.309589      42.309589      42.309589      1.0979714      543.64963     -1400.2038     -526.62105    
      1300   1300           300.50342     -499.09496      24217.252      24768.331      5534.7997      19233.531      2494.2014      6551.7995     -1969.0839      198.23199     -294.39393      43025.316     -30772.54      -518.41351      75710.275      42.304342      42.304342      42.304342      1.09838       -687.39968     -804.60666     -5.2785356    
      1400   1400           294.54415      98.233813      24835.973      24727.668      5425.0395      19302.629      2453.4556      6526.1178     -1917.836       193.11385     -231.75754      43047.061     -30767.526     -519.18243      75598.146      42.283447      42.283447      42.283447      1.1000091     -635.49037      830.04487      100.14693    
      1500   1500           302.58966     -456.93522      24308.234      24812.065      5573.225       19238.84       2452.5589      6547.2071     -1939.9012      201.71348     -309.70407      43048.676     -30761.709     -519.1303       75605.737      42.284862      42.284862      42.284862      1.0998987      637.92351     -1846.8547     -161.87449    
      1600   1600           305.40232     -1598.7478      23158.216      24924.004      5625.0299      19298.974      2549.0085      6672.5562     -2007.845       184.51419     -383.18063      43050.483     -30766.562     -518.26084      75732.577      42.308495      42.308495      42.308495      1.0980565     -1536.1983     -1988.7838     -1271.2614    
      1700   1700           304.21053     -884.78347      23949.643      24927.552      5603.0789      19324.474      2462.7605      6594.5491     -1910.1208      186.79057     -276.92072      43035.53      -30768.115     -517.89915      75785.467      42.318342      42.318342      42.318342      1.0972902     -938.99176     -1161.7043     -553.65436    
      1800   1800           299.05408     -296.36121      24522.304      24849.88       5508.1052      19341.774      2518.2639      6618.8584     -1915.1162      209.0916      -344.50575      43028.707     -30773.525     -517.86462      75790.52       42.319282      42.319282      42.319282      1.097217      -666.90721     -164.50039     -57.676023    
      1900   1900           294.07937     -103.87454      24576.248      24690.787      5416.4788      19274.308      2448.554       6522.7059     -1915.7071      201.2844      -268.15732      43057.116     -30771.488     -519.11298      75608.26       42.285332      42.285332      42.285332      1.099862      -545.366       -441.13691      674.87928    
      2000   2000           297.05631      50.45985       24739.097      24683.627      5471.3095      19212.317      2453.6589      6499.4861     -1949.7718      203.31864     -253.48909      43031.635     -30772.52      -520.70228      75377.487      42.242267      42.242267      42.242267      1.1032293     -919.647       -462.88181      1533.9084    
      2100   2100           298.42587      656.50912      25477.476      24757.002      5496.5346      19260.467      2394.3707      6500.62       -1903.1528      208.44341     -242.42337      43068.2       -30765.591     -521.59004      75249.192      42.218288      42.218288      42.218288      1.1051102     -177.82606      945.03674      1202.3167    
      2200   2200           302.89362     -199.928        24607.035      24826.442      5578.8235      19247.618      2508.2205      6520.8164     -1946.2426      202.06288     -318.26411      43056.075     -30775.05      -521.59133      75249.006      42.218253      42.218253      42.218253      1.1051129      225.31703      880.45046     -1705.5515    
      2300   2300           300.85388     -1373.1043      23357.097      24862.752      5541.2547      19321.497      2528.3383      6568.1771     -1941.8539      202.44419     -323.73623      43058.085     -30769.957     -522.01744      75187.583      42.206763      42.206763      42.206763      1.1060157     -218.16083     -3415.1485     -486.00367    
      2400   2400           299.40275     -829.42676      23973.79       24883.651      5514.5273      19369.124      2446.1209      6709.611      -1929.5613      198.14255     -342.65123      43054.101     -30766.639     -521.80687      75217.923      42.212439      42.212439      42.212439      1.1055696     -219.09635     -1078.7327     -1190.4513    
      2500   2500           296.01161     -104.30389      24731.995      24846.649      5452.0678      19394.582      2508.3248      6586.3191     -1919.1627      201.5393      -267.62973      43049.247     -30764.056     -520.73674      75372.499      42.241335      42.241335      42.241335      1.1033023     -852.19355      334.43304      204.84885    
      2600   2600           296.47193     -1109.9667      23546.95       24771.058      5460.5461      19310.512      2499.8617      6589.8494     -1922.1692      202.62723     -340.53178      43047.574     -30766.699     -519.03571      75619.515      42.28743       42.28743       42.28743       1.0996983     -2953.3184     -1000.572       623.99022    
      2700   2700           293.98209     -751.67685      23928.84       24759.52       5414.6873      19344.833      2507.9005      6582.2869     -1922.3461      193.39608     -304.21387      43054.838     -30767.028     -517.96988      75775.118      42.316416      42.316416      42.316416      1.0974401      513.61709     -2172.4913     -596.1563     
      2800   2800           297.88732     -401.05823      24399.267      24842.69       5486.6154      19356.074      2460.3322      6647.4542     -1913.8859      188.4869      -311.1343       43048.464     -30763.642     -517.72191      75811.413      42.323171      42.323171      42.323171      1.0969147     -293.28574     -361.70545     -548.1835     
      2900   2900           305.2447      -517.54638      24390.248      24962.124      5622.1268      19339.997      2497.0105      6605.7276     -1942.7949      198.3674      -285.95463      43037.773     -30770.132     -518.02932      75766.424      42.314797      42.314797      42.314797      1.097566      -1214.2274     -328.83484     -9.5769342    
      3000   3000           302.33102     -707.8586       24170.528      24950.948      5568.4613      19382.486      2506.5563      6566.4407     -1925.4681      214.96606     -252.95403      43043.481     -30770.536     -519.18893      75597.2        42.28327       42.28327       42.28327       1.1000229     -280.46685     -2278.5597      435.45076    
      3100   3100           300.31145      608.64777      25539.983      24870.127      5531.2639      19338.863      2421.3837      6545.3569     -1882.8179      194.45369     -226.22502      43061.114     -30774.402     -520.10587      75463.923      42.258407      42.258407      42.258407      1.1019656      1672.7482     -13.948212      167.14328    
      3200   3200           302.38144     -909.17027      23832.607      24834.002      5569.39        19264.612      2505.3989      6572.5986     -1920.7609      202.98469     -360.35137      43039.723     -30774.982     -519.69313      75523.857      42.269592      42.269592      42.269592      1.1010912     -745.27333     -1220.7518     -761.48573    
      3300   3300           300.98146     -470.34607      24288.267      24805.78       5543.6046      19262.175      2434.0495      6539.2301     -1906.3773      194.14596     -278.84248      43040.908     -30760.939     -520.23949      75444.54       42.254789      42.254789      42.254789      1.1022488     -1527.9609     -98.574443      215.49716    
      3400   3400           298.38625     -902.79678      23802.645      24795.29       5495.8049      19299.485      2512.6349      6531.6305     -1923.1806      212.79488     -286.83569      43028.357     -30775.916     -520.59826      75392.548      42.24508       42.24508       42.24508       1.1030089     -1759.9726     -910.03655     -38.381228    
      3500   3500           296.27137      655.25498      25500.33       24780.62       5456.8522      19323.767      2464.4925      6562.3134     -1965.8561      214.04009     -226.93989      43049.573     -30773.855     -521.14601      75313.306      42.230275      42.230275      42.230275      1.1041694      257.11233      1049.21        659.44263    
      3600   3600           298.06559     -1413.7012      23228.72       24784.181      5489.8989      19294.282      2552.6193      6582.0626     -1925.4302      205.65182     -386.67166      43038.398     -30772.347     -520.24217      75444.152      42.254717      42.254717      42.254717      1.1022544     -1828.3889     -599.05587     -1813.6588    
      3700   3700           301.72329     -1288.705       23394.616      24811.445      5557.2679      19254.177      2479.5855      6603.162      -1935.6763      202.1919      -373.07926      43047.831     -30769.837     -520.64674      75385.528      42.243769      42.243769      42.243769      1.1031116     -1130.4593     -1528.6522     -1207.0036    
      3800   3800           299.11711      284.14809      25204.074      24892.211      5509.2661      19382.945      2530.7516      6543.877      -1916.708       201.11046     -244.02041      43042.35      -30774.416     -521.54055      75256.333      42.219623      42.219623      42.219623      1.1050054      977.9535      -843.84824      718.33902    
      3900   3900           304.43568      8.3300106      24930.766      24921.634      5607.2257      19314.408      2486.5463      6571.4197     -1907.5472      219.80976     -324.47232      43037.709     -30769.057     -522.12768      75171.707      42.203792      42.203792      42.203792      1.1062493      304.05604     -443.26611      164.2001     
      4000   4000           296.14443     -6.4695178      24777.984      24785.073      5454.514       19330.559      2542.1542      6574.7125     -1934.507       204.67624     -336.29211      43044.514     -30764.699     -522.4066       75131.572      42.196279      42.196279      42.196279      1.1068403     -1304.2166      528.15547      756.65255    
      4100   4100           299.77058     -972.45362      23645.701      24710.444      5521.302       19189.142      2467.5668      6578.0796     -1947.572       207.67148     -393.25754      43044.691     -30768.037     -522.79468      75075.801      42.185836      42.185836      42.185836      1.1076625     -703.00666     -1044.0615     -1170.2927    
      4200   4200           297.56358     -962.07414      23691.882      24743.982      5480.6526      19263.329      2493.5217      6597.0674     -1894.8141      193.33738     -382.95459      43027.207     -30770.036     -523.43002      74984.674      42.16876       42.16876       42.16876       1.1090086     -1411.4131     -1245.5673     -229.24204    
      4300   4300           303.1411       39.091899      24873.551      24830.784      5583.3816      19247.403      2452.7911      6584.9198     -1963.3072      199.61751     -282.88908      43028.377     -30772.106     -523.23021      75013.309      42.174128      42.174128      42.174128      1.1085853      82.565942      538.96267     -504.25292    
      4400   4400           303.9548      -694.49542      24129.262      24891.13       5598.3687      19292.761      2470.5695      6636.592      -2007.7035      221.40149     -306.89226      43049.125     -30770.331     -521.79154      75220.133      42.212852      42.212852      42.212852      1.1055371     -1010.9424     -589.46772     -483.0761     
      4500   4500           300.18258     -353.24435      24494.132      24883.143      5528.8904      19354.252      2508.7788      6590.9082     -1925.1696      218.39108     -308.95105      43043.666     -30773.371     -519.782        75510.943      42.267182      42.267182      42.267182      1.1012795     -550.12336      2.4681823     -512.07787    
      4600   4600           302.05763     -484.77585      24328.802      24864.274      5563.4259      19300.848      2499.4855      6626.9148     -1924.0929      210.12633     -388.43909      43048.751     -30771.898     -518.21682      75739.01       42.309693      42.309693      42.309693      1.0979633     -632.42642     -1143.0067      321.1056     
      4700   4700           298.46596     -376.45903      24409.768      24825.565      5497.273       19328.292      2534.3174      6524.5532     -1942.3458      205.60996     -281.62584      43056.327     -30768.544     -518.25416      75733.554      42.308677      42.308677      42.308677      1.0980424      19.506684     -1396.0727      247.18897    
      4800   4800           298.82886     -671.24504      24071.719      24811.708      5503.9571      19307.751      2487.7628      6612.8218     -1910.2029      202.1868      -377.5875       43059.256     -30766.485     -519.23363      75590.692      42.282057      42.282057      42.282057      1.1001176     -678.47433     -243.21598     -1092.0448    
      4900   4900           299.35434     -315.25429      24422.282      24768.536      5513.6356      19254.9        2476.3518      6509.5862     -1887.4279      208.95152     -310.5471       43038.447     -30780.461     -521.16263      75310.904      42.229826      42.229826      42.229826      1.1042047     -1110.4773     -1108.6185      1273.3329    
      5000   5000           297.69657     -425.55836      24277.569      24743.66       5483.1021      19260.557      2499.3482      6543.7667     -1893.9258      191.83685     -346.10953      43037.743     -30772.102     -522.63141      75099.255      42.190228      42.190228      42.190228      1.1073166     -492.15049     -677.08021     -107.44438    
      5100   5100           303.32605     -386.29252      24364.788      24787.225      5586.7882      19200.437      2411.6518      6527.5539     -1889.6089      188.83743     -331.73673      43059.429     -30765.69      -523.43349      74984.177      42.168667      42.168667      42.168667      1.109016      -413.97967     -1093.7835      348.88558    
      5200   5200           300.24748     -628.42837      24169.563      24856.963      5530.0858      19326.877      2516.6572      6538.7889     -1915.7042      215.13901     -298.81626      43037.131     -30766.319     -523.30342      75002.814      42.172161      42.172161      42.172161      1.1087404      569.42671     -2004.6        -450.11186    
      5300   5300           303.43948      510.49989      25453.032      24894.088      5588.8774      19305.211      2428.6722      6559.103      -1921.2391      204.29714     -242.64566      43043.728     -30766.705     -522.79892      75075.191      42.185722      42.185722      42.185722      1.1076715      275.91395      1077.9343      177.65144    
      5400   5400           297.42847     -438.03759      24360.608      24841.636      5478.164       19363.472      2477.2622      6682.526      -1954.6991      194.31824     -304.67148      43042.611     -30773.875     -521.25245      75297.927      42.2274        42.2274        42.2274        1.104395      -810.12674     -470.98263     -33.0034      
      5500   5500           299.33032     -1399.9434      23190.618      24732.28       5513.1931      19219.087      2485.0831      6526.5043     -1926.2748      192.31381     -315.55514      43028.642     -30771.626     -519.79074      75509.673      42.266945      42.266945      42.266945      1.101298      -775.90055     -1621.946      -1801.9838    
      5600   5600           298.02573     -1025.6104      23586.956      24718.239      5489.1647      19229.074      2502.2285      6577.3475     -1904.4567      181.5625      -391.76803      43034.318     -30770.158     -518.94159      75633.231      42.289987      42.289987      42.289987      1.0994988     -2403.2703      504.35455     -1177.9154    
      5700   5700           298.23359      233.2646       25095.021      24837.412      5492.993       19344.419      2437.5633      6616.5697     -1910.0304      195.81827     -269.02942      43045.213     -30771.685     -518.31664      75724.424      42.306977      42.306977      42.306977      1.0981748     -846.18724      396.10683      1149.8742    
      5800   5800           298.75219     -1246.0356      23538.247      24917.092      5502.5449      19414.547      2539.0011      6694.5667     -1937.209       186.29655     -324.68729      43030.503     -30773.923     -517.27533      75876.863      42.335347      42.335347      42.335347      1.0959685      157.2863      -1856.462      -2038.9311    
      5900   5900           300.67667     -1630.0204      23099.426      24901.494      5537.9908      19363.503      2509.7638      6589.8407     -1910.3178      182.93157     -286.85334      43052.013     -30773.875     -517.76065      75805.741      42.322115      42.322115      42.322115      1.0969967     -2222.1691     -1146.8621     -1521.0301    
      6000   6000           298.29817      56.15917       24886.469      24824.532      5494.1826      19330.35       2465.6914      6634.0212     -1961.8746      195.89233     -293.38998      43055.924     -30765.914     -519.01275      75622.861      42.288054      42.288054      42.288054      1.0996496     -419.31463      616.5697      -28.777564    
      6100   6100           298.80242      239.80432      25025.093      24761.099      5503.47        19257.629      2447.0519      6539.2522     -1930.9566      193.33511     -261.69398      43037.773     -30767.134     -519.95943      75485.176      42.262374      42.262374      42.262374      1.1016554     -161.85879      843.96695      37.304799    
      6200   6200           297.93859     -1192.8569      23443.232      24756.669      5487.5596      19269.109      2473.5519      6555.4679     -1891.5736      198.9159      -342.66939      43037.922     -30762.506     -519.85999      75499.616      42.265069      42.265069      42.265069      1.1014447     -1365.6573     -877.93729     -1334.976     
      6300   6300           303.60907      6.7604011      24941.99       24934.552      5592.0009      19342.551      2451.4981      6616.8822     -1959.9425      203.28702     -260.89726      43050.84      -30759.117     -520.26804      75440.401      42.254016      42.254016      42.254016      1.1023092      76.130592      558.90468     -614.75407    
      6400   6400           301.77034     -165.45408      24776.683      24958.763      5558.1345      19400.629      2443.9218      6673.1601     -1908.3136      211.14324     -287.02733      43038.292     -30770.548     -520.14137      75458.772      42.257446      42.257446      42.257446      1.1020409      275.0369      -836.68774      65.288608    
      6500   6500           299.69663      55.331407      24923.557      24862.683      5519.9399      19342.743      2454.7655      6643.3247     -1949.4652      210.01494     -282.55243      43039.834     -30773.178     -520.29631      75436.301      42.253251      42.253251      42.253251      1.1023691     -68.389954      1072.71       -838.32581    
      6600   6600           296.74608     -944.9851       23736.497      24775.769      5465.5956      19310.173      2505.5247      6551.9676     -1889.9459      185.49598     -317.82868      43044.76      -30769.8       -520.47863      75409.877      42.248317      42.248317      42.248317      1.1027554     -2379.5356     -802.44766      347.02797    
      6700   6700           301.64551     -247.40604      24515.942      24787.692      5555.8352      19231.856      2439.0305      6571.7275     -1941.4887      178.32983     -287.97641      43042.645     -30770.411     -521.13214      75315.311      42.230649      42.230649      42.230649      1.10414       -5.2574008     -1577.0356      840.07491    
      6800   6800           296.77067      373.27627      25234.204      24824.413      5466.0484      19358.365      2479.4281      6662.8444     -1934.6178      202.99806     -321.68604      43049.339     -30779.941     -521.40485      75275.918      42.223285      42.223285      42.223285      1.1047179      453.69132      655.35496      10.782516    
      6900   6900           300.3142      -1063.8721      23725.384      24893.711      5531.3147      19362.396      2538.407       6550.4904     -1843.0238      203.17327     -342.22825      43029.796     -30774.218     -521.23331      75300.693      42.227917      42.227917      42.227917      1.1043544     -1524.3255     -1141.5292     -525.76143    
      7000   7000           304.27988     -273.16105      24722.305      25022.562      5604.3562      19418.206      2524.8769      6633.5873     -1919.6668      193.12699     -289.2467       43048.22      -30772.692     -520.75275      75370.181      42.240902      42.240902      42.240902      1.1033362     -1885.5141      1052.6427      13.388216    
      7100   7100           300.71541      9.0188533      24966.815      24956.87       5538.7043      19418.166      2497.5403      6669.0275     -1963.2301      211.62904     -266.32736      43046.793     -30777.266     -519.14441      75603.683      42.284479      42.284479      42.284479      1.0999286      154.93964     -1579.1058      1451.2227    
      7200   7200           299.41216     -1185.2889      23529.909      24839.336      5514.7005      19324.635      2407.2088      6659.5391     -1927.0717      203.8245      -284.45164      43034.809     -30769.222     -518.14352      75749.726      42.311688      42.311688      42.311688      1.0978079     -2021.8354     -826.36739     -707.66381    
      7300   7300           297.96558     -673.01649      24065.455      24809.058      5488.0568      19321.001      2483.1039      6587.2064     -1935.3051      190.97772     -309.17798      43070.044     -30765.847     -518.07399      75759.892      42.313581      42.313581      42.313581      1.0976606     -2077.4489     -602.03821      660.43769    
      7400   7400           302.75324     -711.98623      24014.254      24799.742      5576.238       19223.504      2430.5614      6558.9004     -1951.9361      208.68073     -292.02285      43036.784     -30767.464     -518.84684      75647.043      42.292561      42.292561      42.292561      1.0992981     -1383.0647     -52.762086     -700.13187    
      7500   7500           298.23554     -589.36913      24135.305      24784.914      5493.029       19291.885      2487.8517      6609.9404     -1979.2743      198.97126     -305.73757      43041.105     -30760.972     -519.32876      75576.846      42.279475      42.279475      42.279475      1.1003192     -669.10473     -1041.7478     -57.254826    
      7600   7600           298.15494     -1108.7235      23597.143      24818.968      5491.5444      19327.423      2508.7616      6662.0669     -1977.2481      197.59085     -329.75158      43032.066     -30766.063     -519.42317      75563.108      42.276913      42.276913      42.276913      1.1005192     -1664.1996     -1231.0977     -430.87335    
      7700   7700           303.74675     -811.80307      23993.037      24888.256      5594.5368      19293.719      2525.9555      6555.4492     -1916.4243      203.65848     -321.15868      43020.848     -30774.609     -519.07305      75614.076      42.286416      42.286416      42.286416      1.0997774     -1358.7256      496.16816     -1572.8518    
      7800   7800           302.23931      672.75299      25629.214      24885.943      5566.7722      19319.171      2467.8075      6526.2515     -1870.9022      200.95341     -276.81514      43040.202     -30768.326     -518.10215      75755.774      42.312814      42.312814      42.312814      1.0977203      858.92992      1113.3579      45.97112     
      7900   7900           296.95076     -1730.2163      22860.897      24775.457      5469.3653      19306.092      2477.445       6568.5089     -1910.4216      202.3444      -297.14344      43036.643     -30771.284     -517.29511      75873.961      42.334807      42.334807      42.334807      1.0960104     -2319.3814     -1966.201      -905.06657    
      8000   8000           295.87266      325.04317      25075.27       24715.9        5449.5085      19266.392      2445.6423      6486.3821     -1952.0941      200.45105     -209.82395      43065.005     -30769.171     -517.73369      75809.688      42.32285       42.32285       42.32285       1.0969396     -148.0984       275.73099      847.49693    
      8100   8100           301.70918      1232.8293      26158.947      24795.547      5557.0081      19238.539      2412.7825      6526.2147     -1993.989       211.36341     -213.82353      43067.38      -30771.39      -517.59073      75830.626      42.326746      42.326746      42.326746      1.0966367      1554.7567      1158.9652      984.76605    
      8200   8200           298.20104     -1997.6677      22652.444      24863.97       5492.3936      19371.576      2517.8083      6569.4758     -1870.2385      217.41337     -340.58355      43047.852     -30770.151     -517.05681      75908.93       42.34131       42.34131       42.34131       1.0955055     -2774.8204     -2539.4682     -678.71451    
      8300   8300           300.47374     -1276.0727      23460.042      24871.061      5534.2531      19336.808      2456.4222      6573.2787     -1895.129       192.60867     -276.20875      43051.203     -30765.366     -517.66564      75819.653      42.324704      42.324704      42.324704      1.0967954     -2287.7506     -588.45815     -952.00927    
      8400   8400           299.88888     -290.08668      24535.904      24856.412      5523.481       19332.931      2442.5519      6654.7791     -1928.7364      186.43016     -305.18237      43053.803     -30770.715     -518.07937      75759.105      42.313435      42.313435      42.313435      1.097672      -1132.9009      1291.6166     -1028.9757    
      8500   8500           298.76206     -451.39231      24333.547      24831.678      5502.7266      19328.951      2435.5473      6558.1607     -1856.0002      201.9614      -288.65913      43048.506     -30770.565     -518.70193      75668.176      42.296499      42.296499      42.296499      1.0989911     -261.8093      -1170.4908      78.123156    
      8600   8600           296.61599     -912.52593      23725.344      24730.317      5463.1994      19267.117      2464.6454      6558.0327     -1890.4383      198.01032     -335.02237      43040.044     -30768.154     -519.75415      75514.989      42.267937      42.267937      42.267937      1.1012205     -1848.5135      613.40889     -1502.4731    
      8700   8700           293.7252      -61.057009      24613.362      24680.494      5409.9556      19270.538      2437.6607      6549.9634     -1947.7865      194.59139     -236.35599      43043.391     -30770.925     -520.60899      75390.994      42.24479       42.24479       42.24479       1.1030316      263.35024     -867.53329      421.01202    
      8800   8800           302.64195      163.38766      24984.532      24804.811      5574.1881      19230.622      2403.3561      6612.893      -1961.2047      212.63489     -303.10005      43039.803     -30773.76      -520.38732      75423.109      42.250788      42.250788      42.250788      1.102562      -1760.7206      669.27096      1581.6127    
      8900   8900           301.32202     -1605.5781      23133.395      24901.012      5549.8772      19351.134      2524.3994      6641.5315     -1918.5002      204.64692     -343.01991      43013.815     -30771.739     -519.93672      75488.474      42.26299       42.26299       42.26299       1.1016073     -2135.3448     -975.02261     -1706.3669    
      9000   9000           301.07749     -1437.5587      23306.357      24888.097      5545.3732      19342.724      2479.4254      6662.1511     -1901.7456      190.23528     -368.82277      43047.511     -30766.03      -520.23248      75445.557      42.254979      42.254979      42.254979      1.1022339     -1163.6652     -2145.8164     -1003.1944    
      9100   9100           299.24139     -105.99155      24711.458      24828.061      5511.5553      19316.506      2406.2197      6677.1919     -1958.2322      198.04531     -253.75676      43019.874     -30772.836     -520.31728      75433.261      42.252683      42.252683      42.252683      1.1024136      38.346724     -332.88969     -23.431675    
      9200   9200           299.08617     -743.26012      23901.272      24719.598      5508.6962      19210.902      2484.7214      6504.3772     -1917.3986      194.51697     -321.41017      43042.466     -30776.371     -519.90234      75493.465      42.263921      42.263921      42.263921      1.1015344     -1523.3187     -484.16552     -222.29616    
      9300   9300           297.82704     -1967.9725      22528.216      24695.42       5485.5052      19209.915      2463.8776      6569.9904     -1921.6508      199.22248     -377.19112      43044.993     -30769.327     -519.78795      75510.079      42.267021      42.267021      42.267021      1.1012921     -1460.8858     -2126.0295     -2317.0024    
      9400   9400           300.21453      427.72492      25339.094      24868.82       5529.4788      19339.341      2445.6216      6615.0967     -1923.4965      206.695       -284.85747      43051.066     -30770.784     -520.61981      75389.427      42.244497      42.244497      42.244497      1.1030546     -434.36466      889.53662      828.00281    
      9500   9500           302.89358      709.85567      25706.342      24926.753      5578.8227      19347.93       2493.8553      6578.0767     -1971.7674      207.34423     -235.81221      43052.027     -30775.793     -521.20825      75304.313      42.228594      42.228594      42.228594      1.1043013     -586.5682       1197.2396      1518.8956    
      9600   9600           295.72772     -377.30808      24491.472      24906.283      5446.8389      19459.444      2545.7881      6664.8385     -1950.7498      215.52073     -289.70935      43045.779     -30772.024     -520.65803      75383.893      42.243464      42.243464      42.243464      1.1031355     -1042.4279      309.70715     -399.20351    
      9700   9700           297.23324     -1010.1446      23711.599      24822.686      5474.5681      19348.118      2462.0723      6627.6919     -1904.2154      199.35154     -317.59365      43049.575     -30768.764     -520.40613      75420.382      42.250278      42.250278      42.250278      1.1026018      66.229476     -1617.2882     -1479.3752    
      9800   9800           298.32883     -479.16217      24200.967      24728.085      5494.7473      19233.338      2478.597       6496.1734     -1927.3586      199.21934     -297.62921      43051.276     -30766.94      -520.33357      75430.899      42.252242      42.252242      42.252242      1.1024481     -868.73026     -1113.0513      544.29508    
      9900   9900           297.38893     -226.78558      24460.874      24710.569      5477.4357      19233.133      2405.6057      6532.3785     -1916.4289      178.03565     -263.04684      43066.02      -30769.431     -519.89227      75494.928      42.264194      42.264194      42.264194      1.1015131     -459.30202     -411.53382      190.4791     
     10000   10000          301.03468     -520.11979      24299.45       24872.725      5544.5848      19328.14       2448.933       6626.1537     -1945.4165      195.00721     -264.08222      43038.132     -30770.587     -519.33473      75575.977      42.279313      42.279313      42.279313      1.1003318     -733.66228     -885.88972      59.192635    
     10100   10100          300.11354     -326.89266      24598.669      24959.8        5527.6189      19432.181      2551.9433      6635.3095     -1929.9377      202.533       -290.74368      43034.227     -30771.15      -518.14139      75750.037      42.311746      42.311746      42.311746      1.0978034     -719.4278      -275.48205      14.231858    
     10200   10200          298.75635     -504.30684      24373.349      24931.598      5502.6215      19428.977      2466.3377      6714.6076     -1975.8372      226.1253      -270.86931      43038.127     -30769.514     -517.09847      75902.814      42.340173      42.340173      42.340173      1.0955938     -30.944642     -1701.8783      219.9024     
     10300   10300          299.20756     -1311.4929      23369.473      24821.863      5510.9321      19310.931      2471.0196      6611.6705     -1919.1065      186.69595     -317.62888      43045.28      -30766.999     -516.88001      75934.895      42.346137      42.346137      42.346137      1.0951309     -292.27377     -857.27992     -2784.925     
     10400   10400          298.49866     -273.17324      24465.749      24768.164      5497.8753      19270.288      2430.0255      6587.395      -1947.0323      206.40967     -296.78087      43061.349     -30771.077     -517.06206      75908.16       42.341167      42.341167      42.341167      1.0955166     -342.3349      -786.88942      309.70462    
     10500   10500          299.12256      292.62163      25114.726      24791.287      5509.3665      19281.921      2402.8376      6522.8497     -1935.4893      209.3484      -201.5701       43058.574     -30774.63      -517.87088      75789.605      42.319112      42.319112      42.319112      1.0972303     -56.484337      351.88135      582.46786    
     10600   10600          300.53656     -704.54146      24134.06       24911.746      5535.4101      19376.336      2491.6455      6660.052      -1944.2743      199.90401     -310.0692       43049.384     -30770.306     -518.57245      75687.07       42.300019      42.300019      42.300019      1.0987167     -26.994813     -1846.6522     -239.97739    
     10700   10700          303.31394      38.430526      25062.005      25019.693      5586.5652      19433.128      2424.6075      6565.3109     -1908.5418      209.22695     -134.95738      43047.779     -30770.298     -519.89634      75494.336      42.264084      42.264084      42.264084      1.1015217     -317.98422     -0.36359548     433.63939    
     10800   10800          303.88384     -651.70615      24217.465      24934.296      5597.0617      19337.235      2496.4071      6598.6838     -1937.2109      213.39477     -303.44678      43036.958     -30767.552     -520.40526      75420.509      42.250302      42.250302      42.250302      1.1026         113.74756     -751.99683     -1316.8692    
     10900   10900          302.37492     -744.31529      24018.635      24836.222      5569.2699      19266.952      2434.3508      6561.9094     -1919.8171      211.00211     -288.18774      43035.165     -30767.471     -521.11089      75318.382      42.231223      42.231223      42.231223      1.104095      -978.02667     -748.07946     -506.83974    
     11000   11000          299.31077     -933.75573      23774.895      24800.572      5512.8331      19287.739      2450.2125      6567.7435     -1882.7757      195.39292     -294.73978      43027.387     -30775.482     -521.11042      75318.451      42.231236      42.231236      42.231236      1.104094      -968.7386      -820.72815     -1011.8004    
     11100   11100          299.80054     -1305.4825      23382.514      24818.818      5521.8538      19296.964      2580.0064      6605.7662     -1951.6548      186.11821     -364.55762      43016.759     -30775.473     -520.27355      75439.601      42.253867      42.253867      42.253867      1.1023209     -1720.718      -1531.7944     -663.93506    
     11200   11200          303.55654      1316.4712      26357.677      24909.212      5591.0335      19318.179      2448.2253      6554.0708     -1941.6655      194.35307     -204.08918      43044.041     -30776.757     -520.24815      75443.284      42.254555      42.254555      42.254555      1.1022671      1415.633       736.32305      1797.4574    
     11300   11300          304.70297     -416.79336      24542.373      25002.258      5612.1488      19390.109      2503.0449      6622.3391     -1896.7804      208.69765     -303.02611      43021.253     -30765.419     -518.77446      75657.598      42.294528      42.294528      42.294528      1.0991447     -1023.6869     -1063.6234      836.93015    
     11400   11400          306.45723     -1239.3486      23594.358      24964.267      5644.4596      19319.807      2559.1728      6621.5656     -1987.1683      193.97932     -346.86413      43046.689     -30767.567     -517.85591      75791.796      42.31952       42.31952       42.31952       1.0971986     -914.07537     -1851.6286     -952.34192    
     11500   11500          301.18144     -512.78509      24232.637      24798.824      5547.2878      19251.537      2447.0919      6584.8686     -1949.9821      201.9102      -298.64323      43036.115     -30769.823     -518.42083      75709.206      42.304143      42.304143      42.304143      1.0983955     -877.08008     -369.46213     -291.81307    
     11600   11600          292.33467     -705.88068      23986.924      24764.956      5384.3443      19380.612      2499.3408      6637.1376     -2006.0678      204.40011     -200.11137      43016.289     -30770.376     -519.32672      75577.142      42.27953       42.27953       42.27953       1.1003148     -808.77376     -1571.6734      262.80511    
     11700   11700          300.27643     -1048.5319      23643.131      24798.963      5530.6191      19268.344      2473.8822      6577.8356     -1972.2421      213.0914      -295.05891      43040.753     -30769.917     -519.27084      75585.274      42.281047      42.281047      42.281047      1.1001965     -2019.3638     -701.36238     -424.86957    
     11800   11800          304.02086     -274.27084      24581.411      24883.633      5599.5855      19284.047      2425.9549      6644.0066     -1968.6932      190.45582     -298.16089      43059.02      -30768.536     -519.47014      75556.275      42.275639      42.275639      42.275639      1.1006187     -179.19282     -499.29211     -144.32758    
     11900   11900          303.84783     -386.30243      24552.056      24976.657      5596.3985      19380.259      2410.4595      6550.87       -1844.9459      199.54991     -228.07391      43059.774     -30767.375     -520.77827      75366.489      42.240212      42.240212      42.240212      1.1033903      12.834615     -535.12402     -636.6179     
     12000   12000          299.75203     -264.00271      24643.95       24934.02       5520.9603      19413.059      2500.9249      6603.7572     -1898.4836      203.07031     -264.08674      43042.722     -30774.844     -520.97061      75338.663      42.235013      42.235013      42.235013      1.1037978     -1408.6929      1189.4935     -572.80877    
     12100   12100          297.22141      632.90174      25523.247      24826.492      5474.3503      19352.142      2435.605       6524.085      -1934.8113      213.50322     -171.2928       43047.728     -30762.675     -519.95245      75486.189      42.262563      42.262563      42.262563      1.1016406     -189.24307      815.08163      1272.8667    
     12200   12200          299.07258     -637.57807      24119.784      24823.794      5508.446       19315.348      2469.714       6637.8538     -1912.9572      192.57819     -344.93321      43044         -30770.908     -518.39555      75712.898      42.30483       42.30483       42.30483       1.0983419     -706.35608     -555.22505     -651.15306    
     12300   12300          295.29401      600.93214      25494.236      24831.081      5438.8506      19392.231      2444.3752      6604.5843     -1919.3321      190.23924     -211.0009       43051.527     -30768.162     -518.70179      75668.197      42.296503      42.296503      42.296503      1.0989908      549.84659      43.495747      1209.4541    
     12400   12400          299.87247     -899.38341      23833.585      24826.12       5523.1787      19302.942      2454.1758      6571.4366     -1921.5649      201.86354     -281.46046      43050.339     -30771.848     -518.68772      75670.249      42.296885      42.296885      42.296885      1.098961      -2008.7334     -534.16751     -155.24932    
     12500   12500          296.83775     -1556.7378      23090.192      24806.422      5467.284       19339.138      2534.1283      6624.8775     -1952.5557      207.37077     -342.38621      43029.233     -30761.53      -519.21493      75593.414      42.282565      42.282565      42.282565      1.100078      -2146.7773     -1355.4125     -1168.0236    
     12600   12600          302.33403     -155.01139      24630.723      24801.121      5568.5167      19232.605      2435.3529      6554.7598     -1962.2661      201.98812     -271.31211      43042.487     -30768.405     -520.72089      75374.793      42.241764      42.241764      42.241764      1.1032687      1134.8391     -1179.2106     -420.66261    
     12700   12700          303.57501      418.70292      25296.288      24836.869      5591.3737      19245.495      2439.5479      6537.7604     -1935.5136      185.94388     -247.36694      43032.282     -30767.158     -521.67994      75236.225      42.215862      42.215862      42.215862      1.1053007      475.99311      409.30457      370.81107    
     12800   12800          305.76363     -334.60074      24553.433      24920.76       5631.6845      19289.075      2470.7336      6620.9179     -1976.1878      192.30385     -301.67535      43049.286     -30766.302     -521.41149      75274.961      42.223106      42.223106      42.223106      1.1047319     -50.161203      226.10031     -1179.7413    
     12900   12900          303.01618     -183.12821      24718.549      24919.749      5581.0809      19338.668      2495.6977      6553.4765     -1951.5913      197.72102     -221.97398      43037.46      -30772.122     -520.99576      75335.026      42.234334      42.234334      42.234334      1.1038511     -264.26029     -39.305671     -245.81867    
     13000   13000          296.27249     -641.39825      24067.942      24775.473      5456.8727      19318.601      2564.9937      6632.4065     -2000.2145      204.70263     -349.63063      43043.136     -30776.793     -518.90667      75638.321      42.290936      42.290936      42.290936      1.0994249     -58.432035     -722.58731     -1143.1754    
     13100   13100          299.93891     -1233.0973      23379.652      24742.715      5524.4025      19218.312      2457.6218      6628.8074     -1950.6499      199.57917     -363.98584      43021.721     -30774.781     -517.83164      75795.348      42.320181      42.320181      42.320181      1.0971472     -2806.0177     -1484.2041      590.92987    
     13200   13200          298.95197     -13.765261      24782.694      24797.902      5506.2246      19291.678      2386.4795      6536.7089     -1893.6758      185.81995     -197.92098      43042.425     -30768.159     -518.1007       75755.985      42.312854      42.312854      42.312854      1.0977172      44.447168      1094.6493     -1180.3923    
     13300   13300          297.04285     -1277.268       23446.228      24858.969      5471.0616      19387.907      2516.7327      6674.7785     -1980.572       199.38551     -271.07827      43021.952     -30773.291     -517.5193       75841.092      42.328693      42.328693      42.328693      1.0964854     -2201.8869     -1439.0754     -190.84173    
     13400   13400          302.34566     -1182.5148      23593.216      24899.475      5568.7309      19330.744      2464.3553      6653.751      -1943.2917      198.58438     -305.18534      43035.128     -30772.598     -518.18443      75743.744      42.310575      42.310575      42.310575      1.0978946      254.09094     -2554.0312     -1247.6041    
     13500   13500          299.9867      -294.93376      24587.177      24911.959      5525.2827      19386.676      2536.7463      6631.2767     -1918.3779      186.83478     -306.49893      43029.762     -30773.067     -519.80448      75507.678      42.266573      42.266573      42.266573      1.1013271     -560.38484     -897.59796      573.18151    
     13600   13600          301.55885     -340.66771      24501.651      24876.124      5554.2391      19321.884      2441.981       6617.9104     -1875.1278      202.18447     -322.13248      43025.688     -30768.619     -520.73698      75372.464      42.241329      42.241329      42.241329      1.1033028     -92.409399     -1135.9452      206.3515     
     13700   13700          303.66642     -1060.0381      23685.209      24848.536      5593.0573      19255.479      2458.3663      6502.2036     -1894.3641      177.33379     -287.4006       43059.96      -30760.62      -521.58685      75249.652      42.218374      42.218374      42.218374      1.1051035     -1245.6176     -884.32822     -1050.1685    
     13800   13800          300.65593     -717.26171      24003.749      24792.165      5537.6088      19254.556      2477.19        6505.891      -1886.93        201.66107     -314.89409      43040.573     -30768.935     -520.74978      75370.611      42.240983      42.240983      42.240983      1.1033299     -1066.1413     -753.65768     -331.98611    
     13900   13900          297.6029       582.88972      25381.45       24739.551      5481.3767      19258.174      2465.6359      6508.8197     -1915.3713      198.37623     -269.06127      43039.926     -30770.15      -519.78848      75510.002      42.267007      42.267007      42.267007      1.1012932     -393.26404      687.28049      1454.6527    
     14000   14000          299.4461       207.55528      24983.007      24754.305      5515.3257      19238.979      2453.834       6435.2117     -1906.3322      192.59585     -231.3393       43068.219     -30773.21      -519.48187      75554.57       42.275321      42.275321      42.275321      1.1006436      164.42422     -226.44905      684.69068    
     14100   14100          300.17326      37.817583      24949.57       24907.861      5528.7188      19379.143      2533.4733      6565.2087     -1902.7902      194.00335     -271.48925      43029.382     -30768.646     -519.01469      75622.579      42.288001      42.288001      42.288001      1.0996537      249.3285      -262.51446      126.63871    
     14200   14200          302.01379     -833.62091      24031.592      24950.944      5562.6185      19388.326      2491.2966      6551.148      -1851.7642      205.22986     -263.86753      43027.864     -30771.581     -519.03164      75620.109      42.287541      42.287541      42.287541      1.0996896     -1249.3744     -284.76357     -966.72475    
     14300   14300          300.39149     -1346.4524      23412.877      24898.173      5532.7381      19365.435      2478.8517      6674.5137     -1931.238       186.86019     -301.94151      43033.966     -30775.577     -518.90141      75639.088      42.291079      42.291079      42.291079      1.0994137     -1919.2615     -1194.0685     -926.02716    
     14400   14400          299.5542      -628.61709      24086.92       24779.647      5517.3166      19262.33       2435.48        6605.2198     -1951.7533      191.39712     -284.53011      43042.356     -30775.839     -519.43513      75561.368      42.276589      42.276589      42.276589      1.1005445      466.73272     -1733.0964     -619.48758    
     14500   14500          297.50796     -476.35963      24199.066      24724.339      5479.6281      19244.711      2489.7913      6528.5647     -1933.5673      198.13907     -302.01073      43036.438     -30772.643     -519.10647      75609.208      42.285509      42.285509      42.285509      1.0998482     -88.441622     -562.24228     -778.39498    
     14600   14600          296.87325     -714.67488      23998.214      24786.992      5467.9377      19319.055      2529.0134      6610.7489     -1943.9081      193.65151     -349.72872      43049.396     -30770.118     -518.63314      75678.213      42.298369      42.298369      42.298369      1.0988453     -1004.8041     -779.93184     -359.28875    
     14700   14700          299.07664     -87.100981      24761.369      24857.346      5508.5208      19348.826      2475.4379      6626.8082     -1944.5247      181.56413     -237.58631      43021.1       -30773.974     -519.46957      75556.359      42.275655      42.275655      42.275655      1.1006175     -876.27099      128.18546      486.78258    
     14800   14800          303.68189     -312.6425       24550.432      24894.392      5593.3423      19301.05       2533.9349      6543.3359     -1888.1417      187.20588     -349.54358      43046.846     -30772.587     -520.29151      75436.998      42.253381      42.253381      42.253381      1.102359       658.1917      -883.629       -712.49021    
     14900   14900          300.57462     -43.040889      24783.014      24830.228      5536.1111      19294.117      2394.5394      6646.3429     -1940.5276      203.4649      -270.79733      43034.221     -30773.126     -521.81547      75216.684      42.212207      42.212207      42.212207      1.1055878     -628.13763     -1030.3278      1529.3428    
     15000   15000          295.28528      594.93157      25319.352      24668.443      5438.6898      19229.753      2382.0048      6572.3564     -1948.8016      195.83983     -244.27083      43047.358     -30774.733     -523.18333      75020.03       42.175387      42.175387      42.175387      1.108486       438.55779      82.055571      1264.1813    
     15100   15100          298.91818      288.50509      25013.06       24697.242      5505.6022      19191.64       2417.2305      6483.1471     -1922.5028      194.96146     -244.3378       43036.27      -30773.128     -522.90644      75059.755      42.18283       42.18283       42.18283       1.1078993      827.10478      792.75656     -754.34607    
     15200   15200          303.3908      -1366.6934      23301.323      24804.331      5587.9809      19216.35       2478.5269      6527.6253     -1868.0707      181.59541     -336.77917      43007.018     -30773.566     -520.49537      75407.452      42.247864      42.247864      42.247864      1.1027909     -1414.0345     -2206.3225     -479.72322    
     15300   15300          299.25607     -43.207962      24804.145      24851.883      5511.8255      19340.058      2522.7276      6550.8852     -1937.6105      202.25519     -277.9471       43047.172     -30767.425     -518.08692      75758.001      42.313229      42.313229      42.313229      1.097688       287.90733     -1556.1745      1138.6433    
     15400   15400          301.04088     -1151.204       23585.382      24861.058      5544.699       19316.359      2518.172       6595.1645     -1938.1585      196.26757     -325.61629      43036.005     -30765.475     -516.55756      75982.296      42.354947      42.354947      42.354947      1.0944477     -1128.155      -652.61041     -1672.8467    
     15500   15500          300.61036     -327.17104      24488.314      24850.65       5536.7694      19313.88       2515.2883      6547.4364     -1948.7495      201.83025     -260.13138      43036.626     -30778.42      -516.85714      75938.255      42.346762      42.346762      42.346762      1.0950825     -1368.3996     -441.785        828.67143    
     15600   15600          294.01534     -310.81289      24479.033      24822.93       5415.2996      19407.631      2472.9657      6581.9062     -1913.358       212.4439      -216.51508      43042.82      -30772.632     -517.34153      75867.153      42.333541      42.333541      42.333541      1.0961088     -295.09424     -318.40622     -318.93823    
     15700   15700          301.87916      133.53248      24981.692      24834.209      5560.1388      19274.07       2379.9977      6613.1598     -1950.6171      205.70458     -233.10239      43032.948     -30774.02      -518.2649       75731.984      42.308385      42.308385      42.308385      1.0980651     -441.44275     -115.6204       957.66059    
     15800   15800          299.74514     -1502.9318      23198.306      24856.417      5520.8334      19335.584      2529.9978      6578.1939     -1954.0531      205.46392     -280.46441      43029.18      -30772.734     -518.8391       75648.172      42.292772      42.292772      42.292772      1.0992817     -1503.0572     -1968.9163     -1036.8219    
     15900   15900          297.55821     -529.23381      24297.362      24880.825      5480.5536      19400.271      2457.0935      6615.8292     -1924.1755      214.99174     -227.82339      43033.919     -30769.564     -519.2081       75594.409      42.28275       42.28275       42.28275       1.1000635     -899.11978     -817.85157      129.26992    
     16000   16000          302.4138       153.49755      25092.176      24922.985      5569.9859      19352.999      2444.3735      6684.0894     -1959.3792      203.78293     -273.66836      43028.746     -30774.945     -519.31486      75578.867      42.279852      42.279852      42.279852      1.1002897      80.019275     -1092.21        1472.6834    
     16100   16100          298.75496      285.38679      25204.382      24889.732      5502.5959      19387.136      2448.4472      6701.6159     -1930.5235      187.58845     -275.27015      43033.162     -30777.884     -519.17394      75599.382      42.283677      42.283677      42.283677      1.0999911      756.5388      -447.87093      547.49249    
     16200   16200          299.64977     -1962.9443      22605.58       24770.855      5519.0768      19251.778      2501.076       6593.5684     -1951.4253      196.19786     -340.21083      43023.671     -30771.099     -518.92183      75636.112      42.290524      42.290524      42.290524      1.099457      -1752.9592     -1715.9979     -2419.8758    
     16300   16300          297.28775      110.15014      24863.938      24742.506      5475.5722      19266.934      2414.4661      6527.4053     -1922.6359      196.62421     -233.78739      43053.923     -30769.061     -519.23001      75591.218      42.282155      42.282155      42.282155      1.1001099     -94.356335      832.27611     -407.46937    
     16400   16400          297.31102     -43.281421      24785.6        24833.361      5476.0008      19357.36       2455.7555      6570.5715     -1907.5633      219.19118     -249.09536      43042.782     -30774.282     -518.71516      75666.247      42.29614       42.29614       42.29614       1.0990191     -507.07072      554.12061     -176.89416    
     16500   16500          298.9475      -1435.6133      23369.259      24953.566      5506.1423      19447.424      2467.593       6695.2751     -1906.6197      209.4482      -306.11296      43061.357     -30773.517     -518.68676      75670.389      42.296911      42.296911      42.296911      1.0989589     -1463.9001     -1504.7226     -1338.2172    
     16600   16600          305.47338     -259.71869      24661.117      24947.163      5626.3386      19320.824      2462.7732      6632.9604     -1960.0239      196.98574     -293.40062      43051.23      -30769.701     -519.72756      75518.854      42.268658      42.268658      42.268658      1.1011641     -454.9354      -188.54573     -135.67495    
     16700   16700          305.17165     -818.65726      23994.006      24894.229      5620.7812      19273.448      2510.1313      6546.246      -1921.7967      199.6029      -311.6162       43030.423     -30779.542     -520.54618      75400.09       42.246489      42.246489      42.246489      1.1028986     -1309.9325     -1193.2788      47.239475    
     16800   16800          299.71379      235.43044      25083.926      24825.312      5520.256       19305.056      2516.771       6596.9308     -1968.0079      190.91386     -293.22656      43038.616     -30776.942     -521.09497      75320.683      42.231653      42.231653      42.231653      1.1040613     -386.35353     -140.75459      1233.3994    
     16900   16900          298.96407      356.68788      25150.397      24758.333      5506.4474      19251.885      2464.1687      6532.9069     -1990.3782      211.14997     -237.41549      43043.564     -30772.111     -520.76081      75369.015      42.240684      42.240684      42.240684      1.1033533      240.89608     -119.4415       948.60908    
     17000   17000          296.45415     -1209.8045      23402.825      24736.649      5460.2186      19276.43       2424.058       6618.6102     -1891.7494      194.01951     -323.30643      43028.699     -30773.901     -519.18682      75597.507      42.283328      42.283328      42.283328      1.1000184     -1496.9614     -1070.1346     -1062.3174    
     17100   17100          299.37642     -837.70559      23953.799      24878.966      5514.0421      19364.924      2567.8848      6543.6564     -1905.8129      190.27583     -301.14849      43037.934     -30767.865     -518.29648      75727.37       42.307526      42.307526      42.307526      1.098132       254.33974     -2198.9567     -568.49986    
     17200   17200          304.08215      214.25779      25194.912      24958.448      5600.7143      19357.734      2457.0317      6588.0066     -1889.4157      203.97892     -265.19708      43038.69      -30775.36      -518.65578      75674.91       42.297754      42.297754      42.297754      1.0988933      597.45356     -920.71287      966.03267    
     17300   17300          301.55149     -1547.4347      23208.318      24917.445      5554.1036      19363.342      2495.8289      6537.4882     -1881.1176      210.95817     -272.6003       43038.537     -30765.753     -518.25663      75733.193      42.30861       42.30861       42.30861       1.0980476     -2631.9997     -242.07244     -1768.232     
     17400   17400          299.57052     -686.79156      24046.05       24805.195      5517.6173      19287.578      2389.2159      6716.8782     -1914.2284      203.74974     -360.22366      43026.255     -30774.069     -517.85374      75792.113      42.319579      42.319579      42.319579      1.097194      -1021.2807     -874.73389     -164.36012    
     17500   17500          295.3189      -337.61195      24389.222      24762.531      5439.3091      19323.222      2482.2055      6570.4677     -1952.7587      199.99088     -225.72157      43026.765     -30777.726     -517.67403      75818.425      42.324476      42.324476      42.324476      1.0968132     -392.7905       659.92551     -1279.9709    
     17600   17600          299.83415     -1433.0815      23214.81       24801.172      5522.473       19278.699      2468.1347      6575.7658     -1930.2677      198.8233      -278.16214      43022.135     -30777.729     -517.10108      75902.431      42.340102      42.340102      42.340102      1.0955993     -2524.0301     -1094.5129     -680.70131    
     17700   17700          301.86763      228.40259      25113.199      24860.203      5559.9264      19300.276      2520.8072      6558.9511     -1980.6705      188.52818     -257.52232      43037.89      -30767.708     -516.76694      75951.51       42.349225      42.349225      42.349225      1.0948913      656.64322     -1149.494       1178.0586    
     17800   17800          302.29556      980.22683      25984.894      24899.373      5567.8081      19331.565      2437.3721      6542.6178     -1912.8792      216.37921     -226.70994      43045.789     -30771.004     -516.88685      75933.889      42.34595       42.34595       42.34595       1.0951454      1273.7339      932.59374      734.35283    
     17900   17900          301.37737     -1294.7408      23472.266      24905.849      5550.8967      19354.952      2572.9425      6605.9704     -1929.6303      204.66846     -353.61564      43025.681     -30771.064     -516.97194      75921.392      42.343627      42.343627      42.343627      1.0953257     -818.22716     -1262.5184     -1803.4769    
     18000   18000          300.28777     -1399.6243      23327.61       24874.806      5530.8278      19343.978      2473.4255      6599.4736     -1919.2962      199.85904     -290.77681      43054.363     -30773.07      -517.81329      75798.034      42.320681      42.320681      42.320681      1.0971083     -2247.8044     -1299.9599     -651.1086     
     18100   18100          297.9445      -76.625735      24761.804      24846.412      5487.6685      19358.744      2467.3927      6656.1967     -1939.4673      212.55677     -307.27776      43039.441     -30770.099     -518.40535      75711.466      42.304563      42.304563      42.304563      1.0983627     -81.928315     -318.1731       170.22421    
     18200   18200          298.91728     -423.92865      24370.009      24837.028      5505.5856      19331.443      2480.0333      6577.0063     -1904.6362      204.02137     -275.49557      43020.551     -30770.037     -519.59501      75538.118      42.272252      42.272252      42.272252      1.1008833     -162.69253     -1552.0817      442.98827    
     18300   18300          298.84235     -1337.4467      23339.876      24811.154      5504.2055      19306.949      2462.8688      6656.5208     -1976.9008      213.53294     -307.47021      43032.902     -30774.505     -520.34185      75429.699      42.252018      42.252018      42.252018      1.1024656     -1852.4321     -531.74094     -1628.1671    
     18400   18400          300.62046     -491.43788      24231.276      24771.876      5536.9555      19234.921      2407.3961      6568.1631     -1916.4674      185.76119     -294.59321      43051.211     -30766.55      -520.35491      75427.807      42.251665      42.251665      42.251665      1.1024933     -1592.325       19.7143        98.297089    
     18500   18500          298.396        2048.5936      26975.322      24720.707      5495.9845      19224.722      2333.062       6519.6738     -1931.3047      208.1313      -189.57728      43060.332     -30775.595     -520.10429      75464.152      42.25845       42.25845       42.25845       1.1019623      1380.5128      3452.4591      1312.809     
     18600   18600          297.87862     -1258.9376      23364.853      24752.616      5486.4551      19266.161      2531.7208      6484.5672     -1883.3923      203.55809     -348.38766      43045.379     -30767.284     -519.27322      75584.929      42.280982      42.280982      42.280982      1.1002015     -2039.8955     -2038.1463      301.22907    
     18700   18700          303.85843     -890.45638      23903.587      24884.776      5596.5938      19288.183      2482.8601      6513.0501     -1882.251       217.94234     -306.15937      43033.599     -30770.858     -519.47756      75555.197      42.275438      42.275438      42.275438      1.1006344     -1886.8197     -1768.7936      984.24414    
     18800   18800          300.9175       625.20004      25613.156      24924.808      5542.4265      19382.382      2465.3379      6634.4598     -1958.7802      207.86287     -239.98621      43045.604     -30772.117     -519.89743      75494.178      42.264054      42.264054      42.264054      1.101524       918.60134      525.76907      431.22972    
     18900   18900          301.16133     -380.48123      24473.237      24891.918      5546.9175      19345          2528.6452      6541.2265     -1906.2304      202.68156     -271.24062      43028.083     -30778.165     -520.18441      75452.529      42.256281      42.256281      42.256281      1.102132      -1132.7105      381.02854     -389.76168    
     19000   19000          298.7734      -881.05844      23803.154      24772.562      5502.9355      19269.626      2434.8666      6550.8679     -1880.3699      199.87384     -316.68906      43052.305     -30771.228     -520.24163      75444.23       42.254731      42.254731      42.254731      1.1022533     -1134.9024     -1189.9632     -318.30978    
     19100   19100          292.51239     -622.72115      24044.889      24729.318      5387.6176      19341.7        2402.9338      6583.522      -1908.3498      214.52797     -252.51682      43062.75      -30761.167     -520.80145      75363.134      42.239586      42.239586      42.239586      1.1034394     -990.54076     -295.90943     -581.71327    
     19200   19200          300.55969     -533.01127      24172.869      24759.041      5535.8362      19223.205      2404.7813      6570.4649     -1919.1555      206.11225     -324.06993      43051.66      -30766.588     -520.49766      75407.12       42.247802      42.247802      42.247802      1.1027957     -375.32877      796.24248     -2019.9475    
     19300   19300          297.52741      697.21589      25556.931      24788.195      5479.9864      19308.209      2460.7796      6580.2838     -1930.5303      202.63393     -272.15619      43040.208     -30773.009     -519.1555       75602.067      42.284178      42.284178      42.284178      1.0999521      2.5155555      705.08645      1384.0457    
     19400   19400          299.22744     -995.05206      23768.052      24869.755      5511.2982      19358.457      2586.4463      6584.5844     -1967.1251      204.35913     -325.27725      43038.573     -30763.103     -516.99712      75917.695      42.34294       42.34294       42.34294       1.095379      -1764.039      -1116.7948     -104.3224     
     19500   19500          305.04769     -2020.3488      22733.291      24976.664      5618.4981      19358.166      2542.8436      6607.5901     -1927.0306      195.85413     -336.60627      43039.906     -30764.392     -515.50388      76137.602      42.383784      42.383784      42.383784      1.0922153     -2381.0387     -1902.1992     -1777.8084    
     19600   19600          302.49532     -788.83723      24102.837      24979.337      5571.4874      19407.849      2509.4425      6626.7968     -1935.2131      197.30241     -237.59659      43020.904     -30773.787     -515.16091      76188.291      42.393188      42.393188      42.393188      1.0914886     -665.92472     -788.28132     -912.30565    
     19700   19700          299.73129     -152.75668      24754.388      24924.042      5520.5784      19403.464      2501.7038      6585.3426     -1905.5751      191.23597     -234.01418      43037.114     -30772.344     -515.39723      76153.357      42.386708      42.386708      42.386708      1.0919893      112.74666     -132.12322     -438.89349    
     19800   19800          299.70028     -199.17197      24655.474      24875.918      5520.0073      19355.91       2431.2771      6627.6068     -1962.714       202.14963     -226.14754      43055.467     -30771.728     -517.17455      75891.649      42.338097      42.338097      42.338097      1.095755       42.373176     -152.75366     -487.13543    
     19900   19900          297.2728      -1785.3841      22854.905      24825.1        5475.2969      19349.803      2482.2795      6566.3778     -1850.9109      191.54509     -294.10332      43022.018     -30767.403     -518.71562      75666.18       42.296127      42.296127      42.296127      1.0990201     -1460.4089     -1804.7095     -2091.0339    
     20000   20000          298.42265      346.18563      25203.687      24822.883      5496.4754      19326.408      2447.7439      6557.0051     -1914.3249      203.13761     -254.70806      43056.522     -30768.968     -520.3726       75425.242      42.251186      42.251186      42.251186      1.1025308      230.61128     -493.64854      1301.5941    
     20100   20100          299.33512     -273.31166      24553.856      24853.976      5513.2815      19340.695      2512.5477      6571.0493     -1934.841       203.46387     -282.9788       43040.584     -30769.131     -521.2786       75294.15       42.226694      42.226694      42.226694      1.1044504     -799.12116     -780.49511      759.68128    
     20200   20200          302.90497      376.29307      25350.75       24938.176      5579.0326      19359.143      2482.3407      6598.3733     -1947.7069      199.51204     -258.77787      43051.772     -30766.37      -522.07323      75179.547      42.205259      42.205259      42.205259      1.106134       398.5834       1313.7067     -583.41085    
     20300   20300          305.68463     -640.49403      24253.115      24955.724      5630.2295      19325.494      2546.5875      6553.9613     -1878.137       194.03778     -346.16445      43026.948     -30771.739     -521.80566      75218.098      42.212472      42.212472      42.212472      1.1055671     -834.62471     -1495.711       408.85362    
     20400   20400          300.35769     -148.20418      24677.775      24840.531      5532.1158      19308.415      2487.8742      6551.0407     -1897.0864      189.96483     -288.38211      43035.363     -30770.359     -521.23122      75300.995      42.227973      42.227973      42.227973      1.10435       -571.36476     -832.88084      959.63307    
     20500   20500          299.00077     -217.55739      24524.271      24763.917      5507.1234      19256.794      2477.5466      6583.046      -1903.5824      192.92446     -376.85677      43049.28      -30765.564     -519.64808      75530.404      42.270813      42.270813      42.270813      1.1009957     -489.91891     -266.34413      103.59088    
     20600   20600          296.1433      -1056.5614      23613.034      24778.847      5454.4933      19324.353      2537.7443      6499.6704     -1917.419       213.44718     -268.64051      43029.516     -30769.966     -518.76793      75658.55       42.294705      42.294705      42.294705      1.0991309     -1226.1362     -636.78628     -1306.7616    
     20700   20700          297.65572     -1462.5164      23206.396      24823.402      5482.3496      19341.053      2469.0672      6580.4973     -1858.79        195.82038     -323.73805      43045.802     -30767.606     -517.72129      75811.503      42.323188      42.323188      42.323188      1.0969134     -2825.6574     -146.04193     -1415.8498    
     20800   20800          303.52778     -832.76912      24056.104      24978.403      5590.5037      19387.9        2449.2471      6685.045      -1931.9599      208.39448     -317.10492      43060.09      -30765.812     -516.84428      75940.144      42.347113      42.347113      42.347113      1.0950552     -1463.7868     -1792.0458      757.52528    
     20900   20900          301.65598     -1356.9396      23512.011      25014.321      5556.0281      19458.293      2546.9653      6607.6048     -1890.8305      218.11491     -312.3906       43054.554     -30765.725     -517.02087      75914.207      42.342291      42.342291      42.342291      1.0954294     -2227.6475     -1007.9898     -835.18137    
     21000   21000          302.38339      253.59661      25219.615      24938.951      5569.4259      19369.525      2449.2564      6573.537      -1929.3508      191.94729     -196.06304      43047.926     -30767.728     -517.20668      75886.933      42.33722       42.33722       42.33722       1.095823      -270.94402      674.91683      356.81702    
     21100   21100          300.29028     -1162.8148      23551.375      24839.36       5530.874       19308.486      2478.7696      6585.3783     -1935.9991      211.83644     -301.69366      43035.237     -30765.043     -516.78098      75949.446      42.348842      42.348842      42.348842      1.0949211     -1857.5248     -661.16627     -969.75324    
     21200   21200          298.29103     -667.3078       24064.095      24802.388      5494.051       19308.337      2474.277       6561.4574     -1950.116       199.32201     -245.94486      43039.319     -30769.977     -517.37377      75862.426      42.332662      42.332662      42.332662      1.0961771     -168.43161     -1455.6585     -377.83331    
     21300   21300          295.97205      312.92042      25122.815      24776.768      5451.3391      19325.429      2460.1776      6583.1031     -1955.0674      197.21225     -226.49889      43032.695     -30766.192     -517.61421      75827.186      42.326106      42.326106      42.326106      1.0966865      399.79208      378.47437      160.49479    
     21400   21400          297.28891     -612.43605      24069.143      24745.789      5475.5936      19270.196      2486.6612      6599.2376     -1997.2932      189.46613     -249.77483      43018.057     -30776.158     -518.09099      75757.405      42.313118      42.313118      42.313118      1.0976967     -497.05117     -448.60244     -891.65455    
     21500   21500          302.99065     -1073.319       23585.001      24770.769      5580.6107      19190.159      2474.4103      6556.7038     -1929.1568      197.93155     -367.47427      43033.446     -30775.702     -518.12645      75752.22       42.312153      42.312153      42.312153      1.0977718     -1090.1865     -1492.6881     -637.08235    
[...]
    495100   495100         299.51384     -834.22395      23881          24798.788      5516.5734      19282.215      2480.1655      6512.0749     -1910.2878      232.59136     -296.55489      43038.044     -30773.818     -520.29221      75436.896      42.253362      42.253362      42.253362      1.1023605     -1365.054      -385.5699      -752.04791    
    495200   495200         301.76972     -225.30568      24662.423      24910.119      5558.123       19351.995      2449.7833      6615.6491     -1872.8803      215.26789     -322.23067      43039.139     -30772.732     -520.66867      75382.353      42.243176      42.243176      42.243176      1.1031581     -897.24293      260.20129     -38.875413    
    495300   495300         297.80578     -20.574717      24891.905      24914.53       5485.1135      19429.417      2492.8244      6689.0366     -1916.8848      218.39756     -290.27528      43011.504     -30775.186     -520.52327      75403.409      42.247109      42.247109      42.247109      1.10285        1102.1797     -834.16739     -329.73645    
    495400   495400         298.43075     -979.83214      23818.63       24897.401      5496.6245      19400.776      2499.0748      6616.2839     -1874.521       206.03824     -300.12562      43031.665     -30777.639     -519.91144      75492.144      42.263675      42.263675      42.263675      1.1015537     -254.79181     -1112.4479     -1572.2567    
    495500   495500         298.45521     -414.76727      24394.561      24852.138      5497.0751      19355.063      2479.6758      6601.7032     -1915.0311      208.29673     -255.24099      43017.087     -30781.428     -518.85731      75645.517      42.292277      42.292277      42.292277      1.0993203      978.7655      -772.04159     -1451.0257    
    495600   495600         298.82764     -626.70065      24085.733      24778.777      5503.9346      19274.842      2453.4654      6586.1898     -1903.6466      198.85986     -308.49595      43029.032     -30780.563     -517.61431      75827.171      42.326103      42.326103      42.326103      1.0966867     -1149.3553     -337.7655      -392.9811     
    495700   495700         293.1263      -382.93171      24216.485      24640.314      5398.9248      19241.389      2406.5519      6604.7764     -1937.5871      193.77753     -297.35775      43049.285     -30778.056     -517.17538      75891.526      42.338074      42.338074      42.338074      1.0957567     -189.30531      18.844605     -978.33442    
    495800   495800         288.15038     -662.46907      23870.005      24603.688      5307.2763      19296.412      2458.1135      6576.2094     -1879.3862      195.81543     -316.86957      43039.383     -30776.854     -516.84962      75939.36       42.346967      42.346967      42.346967      1.0950665     -1274.3459     -1207.6343      494.57296    
    495900   495900         292.65286     -528.87095      24155.663      24740.187      5390.2049      19349.982      2474.772       6587.5462     -1926.4332      229.06047     -273.57241      43037.268     -30778.659     -517.90985      75783.902      42.318051      42.318051      42.318051      1.0973129     -982.09462     -834.96677      230.44853    
    496000   496000         300.29417      124.53101      24952.127      24814.73       5530.9457      19283.784      2395.6065      6552.483      -1899.7415      213.15518     -243.7948       43042.772     -30776.696     -518.8091       75652.546      42.293587      42.293587      42.293587      1.0992181     -1.6924447      170.81811      204.46736    
    496100   496100         298.80616      245.70835      25153.269      24882.719      5503.5389      19379.18       2476.7392      6621.9814     -1940.1062      208.6098      -224.77697      43017.809     -30781.077     -519.85089      75500.936      42.265315      42.265315      42.265315      1.1014254      977.88257     -633.49169      392.73417    
    496200   496200         303.42228     -135.44381      24792.687      24941.553      5588.5605      19352.992      2458.2489      6543.4687     -1912.2503      202.81221     -187.3399       43024.082     -30776.029     -520.79864      75363.54       42.239661      42.239661      42.239661      1.1034335      38.34257       45.0789       -489.75289    
    496300   496300         304.51362     -955.62709      23857.92       24910.383      5608.6614      19301.721      2428.0694      6673.7011     -1953.0756      215.48021     -307.48646      43024.323     -30779.29      -519.74298      75516.612      42.26824       42.26824       42.26824       1.1011968     -2161.8204      362.62341     -1067.6843    
    496400   496400         299.16796     -690.21102      24005.015      24767.731      5510.2027      19257.528      2465.7435      6624.1768     -1934.9667      191.86506     -337.00663      43023.615     -30775.899     -517.99603      75771.294      42.315704      42.315704      42.315704      1.0974955     -939.87716     -281.55588     -849.20002    
    496500   496500         294.63775     -249.99827      24480.44       24757.259      5426.7634      19330.496      2428.4658      6604.2532     -1870.6402      208.9323      -282.82113      43023.56      -30781.254     -516.9484       75924.849      42.34427       42.34427       42.34427       1.0952758     -529.87408      48.617879     -268.73859    
    496600   496600         300.05879     -2172.9375      22420.744      24830.653      5526.6103      19304.042      2535.7222      6606.4731     -1909.699       185.37431     -348.26473      43007.576     -30773.14      -516.12356      76046.187      42.366815      42.366815      42.366815      1.0935282     -2648.1649     -1903.2175     -1967.4301    
    496700   496700         301.30464      459.3063       25399.567      24890.435      5549.5569      19340.878      2392.5688      6645.1397     -1960.0166      205.35011     -213.48567      43048.272     -30776.951     -516.39114      76006.782      42.359496      42.359496      42.359496      1.0940951      173.67213      158.87217      1045.3746    
    496800   496800         302.81257     -790.98989      24027.787      24903.911      5577.3307      19326.58       2488.3282      6612.0906     -1923.598       203.9196      -284.34437      43008.81      -30778.626     -516.78822      75948.382      42.348644      42.348644      42.348644      1.0949364     -658.45577     -1073.407      -641.10689    
    496900   496900         298.90531     -464.11891      24308.632      24821.505      5505.3652      19316.14       2501.0451      6569.9644     -1901.3625      189.92171     -288.06458      43023.613     -30778.977     -517.99525      75771.407      42.315725      42.315725      42.315725      1.0974938     -1267.3858     -564.53587      439.56494    
    497000   497000         301.33424     -670.8359       23954.134      24693.333      5550.1022      19143.23       2392.3215      6475.1153     -1900.2256      220.36612     -291.54553      43026.707     -30779.508     -519.47195      75556.013      42.27559       42.27559       42.27559       1.1006225     -647.58515     -1556.0225      191.09999    
    497100   497100         297.40592     -528.61551      24123.276      24704.75       5477.7487      19227.002      2529.1396      6496.9465     -1945.6599      200.38831     -315.62363      43036.26      -30774.449     -520.37522      75424.861      42.251115      42.251115      42.251115      1.1025363     -198.90897     -1123.7185     -263.21909    
    497200   497200         301.30195     -219.60811      24578.213      24819.641      5549.5075      19270.134      2397.6086      6567.0687     -1914.0312      206.60666     -262.31235      43049.159     -30773.965     -520.67586      75381.312      42.242982      42.242982      42.242982      1.1031733     -96.325594     -881.45302      318.95427    
    497300   497300         298.70093     -512.15848      24314.86       24878.763      5501.6007      19377.162      2493.4849      6639.4513     -1930.1699      195.07915     -267.36861      43029.266     -30782.581     -519.8849       75495.997      42.264394      42.264394      42.264394      1.1014975      80.421243     -1382.7365     -234.16015    
    497400   497400         299.45105     -99.125083      24760.196      24869.616      5515.4168      19354.199      2458.6766      6615.4845     -1891.8431      218.05575     -301.90372      43033.187     -30777.458     -518.55511      75689.6        42.300491      42.300491      42.300491      1.09868       -797.74078      175.88048      324.48505    
    497500   497500         297.65711     -162.22155      24600.505      24779.923      5482.3753      19297.548      2405.1773      6614.7679     -1897.0334      199.33943     -292.49193      43039.128     -30771.339     -517.54693      75837.043      42.32794       42.32794       42.32794       1.0965439     -786.80959     -88.421462      388.56641    
    497600   497600         296.50092     -1790.4303      22652.321      24632.521      5461.0801      19171.441      2439.3372      6564.6937     -1942.7664      205.32858     -358.41702      43036.165     -30772.9       -517.55371      75836.051      42.327755      42.327755      42.327755      1.0965583     -2015.9131     -1393.0136     -1962.3641    
    497700   497700         297.82433     -244.0134       24407.113      24676.586      5485.4551      19191.131      2453.8437      6479.723      -1928.0457      187.60714     -273.74238      43041.97      -30770.225     -518.3288       75722.648      42.306646      42.306646      42.306646      1.0982005     -763.33598     -458.44675      489.74254    
    497800   497800         294.4519       228.24471      25030.212      24778.263      5423.3402      19354.923      2440.24        6594.0599     -1926.8872      197.24528     -215.24643      43039.107     -30773.595     -518.55471      75689.658      42.300501      42.300501      42.300501      1.0986792     -731.76529      537.16132      879.33809    
    497900   497900         297.63988     -515.13346      24290.119      24859.54       5482.0578      19377.483      2464.317       6653.1935     -1900.5337      210.6173      -307.97606      43027.797     -30769.933     -517.83654      75794.63       42.320048      42.320048      42.320048      1.0971575     -581.001       -898.54277     -65.856603    
    498000   498000         298.25687     -1925.2981      22771.79       24900.302      5493.4218      19406.88       2572.6902      6609.7899     -1932.7264      203.88026     -315.68852      43040.041     -30771.106     -517.76036      75805.783      42.322123      42.322123      42.322123      1.0969961     -1561.6504     -1756.5953     -2457.6487    
    498100   498100         300.47577     -568.35009      24245.048      24872.227      5534.2906      19337.937      2407.9863      6594.1834     -1892.9431      209.60183     -225.49721      43021.721     -30777.115     -518.71792      75665.845      42.296065      42.296065      42.296065      1.0990249     -98.778387     -1145.0334     -461.23845    
    498200   498200         293.39276     -645.22967      24020.884      24733.454      5403.8326      19329.622      2501.0358      6628.4712     -1934.9625      208.47657     -336.8158       43033.426     -30770.009     -518.31456      75724.728      42.307034      42.307034      42.307034      1.0981703     -472.22604     -527.38732     -936.07565    
    498300   498300         295.57153     -736.53893      23875.87       24688.786      5443.9621      19244.824      2473.7238      6530.9166     -1897.4899      189.66187     -293.20057      43019.174     -30777.962     -518.62917      75678.793      42.298477      42.298477      42.298477      1.0988369     -947.76104     -1184.8403     -77.015452    
    498400   498400         296.91861     -1759.5554      22826.173      24766.505      5468.7733      19297.732      2548.2829      6571.2843     -1948.6548      196.9479      -317.45918      43025.865     -30778.534     -519.07937      75613.156      42.286245      42.286245      42.286245      1.0997908     -789.69263     -1862.7323     -2626.2412    
    498500   498500         299.63316      350.03661      25188.608      24803.24       5518.7709      19284.469      2486.2715      6516.6672     -1907.5295      211.71467     -273.82478      43036.282     -30785.112     -519.92985      75489.47       42.263176      42.263176      42.263176      1.1015927      172.83498      210.54485      666.73       
    498600   498600         301.07724      297.67461      25159.533      24831.617      5545.3687      19286.249      2426.6318      6570.5988     -1910.983       202.64815     -273.55933      43049.471     -30778.559     -519.62148      75534.27       42.271534      42.271534      42.271534      1.1009394     -479.45105      360.21367      1012.2612    
    498700   498700         299.67968     -1083.2333      23642.185      24838.283      5519.6279      19318.655      2522.3639      6580.6503     -1915.679       200.65664     -315.31691      43024.042     -30778.062     -518.39673      75712.725      42.304798      42.304798      42.304798      1.0983444     -560.82132     -1513.7069     -1175.1715    
    498800   498800         300.91523     -500.84994      24215.571      24769.014      5542.3848      19226.629      2466.0989      6473.5007     -1929.7608      202.56442     -237.32749      43032.74      -30781.186     -518.01458      75768.58       42.315198      42.315198      42.315198      1.0975348     -900.08635     -870.38296      267.9195     
    498900   498900         299.99479     -453.18633      24187.746      24688.941      5525.4315      19163.51       2376.5045      6569.2688     -1971.02        207.33204     -288.80454      43050.874     -30780.645     -517.57876      75832.38       42.327072      42.327072      42.327072      1.0966114     -2006.6513      386.79967      260.29265    
    499000   499000         297.67895      635.0336       25448.026      24746.392      5482.7775      19263.614      2410.9012      6486.6469     -1910.2914      198.27917     -215.09876      43071.173     -30777.996     -518.07513      75759.725      42.31355       42.31355       42.31355       1.097663       103.62866      1213.8545      587.61769    
    499100   499100         296.0979      -1011.9044      23764.835      24882.555      5453.6571      19428.898      2523.9325      6605.0389     -1887.7089      201.86796     -265.22291      43030.877     -30779.887     -518.21952      75738.615      42.30962       42.30962       42.30962       1.097969      -420.68417     -1519.5359     -1095.4933    
    499200   499200         301.40934     -886.72961      23921.774      24899.972      5551.4854      19348.487      2500.7411      6665.326      -1919.4024      195.3033      -357.65732      43037.024     -30772.848     -518.88519      75641.452      42.291519      42.291519      42.291519      1.0993794     -1333.2199     -1085.9113     -241.05762    
    499300   499300         303.13936      1110.0494      26070.447      24852.179      5583.3496      19268.829      2444.9706      6624.322      -1960.6155      181.40408     -287.8515       43038.651     -30772.052     -521.56252      75253.163      42.21903       42.21903       42.21903       1.1050519      1441.5391      1197.6503      690.95875    
    499400   499400         295.99592     -476.13789      24215.7        24736.564      5451.7788      19284.786      2495.4268      6556.5521     -1888.8725      206.15702     -341.70386      43031.014     -30773.788     -523.25744      75009.405      42.173396      42.173396      42.173396      1.108643       459.16482     -733.8447      -1153.7338    
    499500   499500         298.24033     -476.54174      24216.487      24737.788      5493.1173      19244.67       2520.207       6539.6852     -1912.1922      200.88112     -373.20861      43039.734     -30770.436     -523.2626       75008.665      42.173257      42.173257      42.173257      1.1086539     -876.46061     -591.09429      37.92969     
    499600   499600         298.1374      -143.31684      24622.389      24779.366      5491.2215      19288.144      2427.7082      6584.6308     -1886.7775      199.85799     -298.89379      43035.313     -30773.694     -522.59843      75103.993      42.191116      42.191116      42.191116      1.1072467     -1018.8855     -258.50144      847.43644    
    499700   499700         299.93461     -777.9122       23958.063      24812.034      5524.3233      19287.711      2473.1531      6607.3536     -1933.2407      205.9864      -327.84441      43033.508     -30771.206     -521.42811      75272.561      42.222657      42.222657      42.222657      1.1047671     -1089.3041     -296.12791     -948.30457    
    499800   499800         296.24674     -175.08196      24643.042      24835.853      5456.3985      19379.454      2475.5803      6587.3817     -1917.4247      204.33118     -231.21145      43038.639     -30777.842     -519.77801      75511.523      42.267291      42.267291      42.267291      1.101271      -1242.5894     -413.52821      1130.8718    
    499900   499900         300.7101      -1609.1708      23142.152      24923.199      5538.6066      19384.592      2538.6448      6616.4071     -1931.3179      207.25885     -307.38957      43036.842     -30775.854     -517.1706       75892.228      42.338204      42.338204      42.338204      1.0957466     -1572.3506     -1723.5448     -1531.6171    
    500000   500000         309.16001     -113.16251      24894.851      25020.459      5694.2405      19326.218      2487.1038      6568.2472     -1946.7868      188.63789     -250.097        43054.666     -30775.553     -515.69632      76109.19       42.378512      42.378512      42.378512      1.092623      -362.6445      -375.84968      399.00666    
Loop time of 1329.51 on 1 procs for 500000 steps with 7520 atoms

Performance: 32.493 ns/day, 0.739 hours/ns, 376.080 timesteps/s, 2.828 Matom-step/s
100.0% CPU use with 1 MPI tasks x 1 OpenMP threads

MPI task timing breakdown:
Section |  min time  |  avg time  |  max time  |%varavg| %total
---------------------------------------------------------------
Pair    | 147.7      | 147.7      | 147.7      |   0.0 | 11.11
Bond    | 137.98     | 137.98     | 137.98     |   0.0 | 10.38
Kspace  | 562.92     | 562.92     | 562.92     |   0.0 | 42.34
Neigh   | 122.48     | 122.48     | 122.48     |   0.0 |  9.21
Comm    | 15.34      | 15.34      | 15.34      |   0.0 |  1.15
Output  | 5.8673     | 5.8673     | 5.8673     |   0.0 |  0.44
Modify  | 298.23     | 298.23     | 298.23     |   0.0 | 22.43
Other   |            | 38.98      |            |       |  2.93

Nlocal:           7520 ave        7520 max        7520 min
Histogram: 1 0 0 0 0 0 0 0 0 0
Nghost:          20279 ave       20279 max       20279 min
Histogram: 1 0 0 0 0 0 0 0 0 0
Neighs:              0 ave           0 max           0 min
Histogram: 1 0 0 0 0 0 0 0 0 0
FullNghs:  4.73285e+06 ave 4.73285e+06 max 4.73285e+06 min
Histogram: 1 0 0 0 0 0 0 0 0 0

Total # of neighbors = 4732850
Ave neighs/atom = 629.36835
Ave special neighs/atom = 5.7207447
Neighbor list builds = 17737
Dangerous builds = 0
System init for write_data ...
PPPM Kokkos initialization ...
  using 12-bit tables for long-range coulomb
  G vector (1/distance) = 0.33232395
  grid = 45 45 45
  stencil order = 5
  estimated absolute RMS force accuracy = 0.00029713703
  estimated relative force accuracy = 8.9481933e-07
  using double precision cuFFT
  3d grid and FFT values/proc = 140608 91125
Generated 15 of 15 mixed pair_coeff terms from sixthpower/sixthpower mixing rule
STAGE COMPLETE: NPT T=300.0->300.0K P=-500.0->-500.0atm steps=500000
