LAMMPS data file via write_data, version 22 Jul 2025, timestep = 2000000, units = real

7020 atoms
5 atom types
7010 bonds
5 bond types
13000 angles
8 angle types
14970 dihedrals
9 dihedral types
8000 impropers
7 improper types

4.190232728470203 45.13090019151401 xlo xhi
4.190232728470203 45.13090019151401 ylo yhi
4.190232728470203 45.13090019151401 zlo zhi

Masses

1 12.01115
2 1.00797
3 1.00797
4 15.9994
5 15.9994

Pair Coeffs # lj/class2/coul/long/kk

1 0.054 4.01
2 0.02 2.995
3 0.013 1.098
4 0.24 3.535
5 0.24 3.535

Bond Coeffs # class2/kk

1 1.53 299.67 -501.77 679.81
2 1.101 345 -691.89 844.6
3 1.42 400.395 -835.195 1313.01
4 1.42 400.395 -835.195 1313.01
5 0.965 532.506 -1282.9 2004.77

Angle Coeffs # class2/kk

1 110.77 41.453 -10.604 5.129
2 111.27 54.5381 -8.3642 -13.0838
3 111.27 54.5381 -8.3642 -13.0838
4 104.5 35.7454 -10.0067 -6.2729
5 105.8 52.7061 -12.109 -9.8681
6 107.66 39.641 -12.921 -2.4318
7 108.728 58.5446 -10.8088 -12.4006
8 108.728 58.5446 -10.8088 -12.4006

BondBond Coeffs

1 3.3872 1.53 1.101
2 11.4318 1.53 1.42
3 11.4318 1.53 1.42
4 -7.1131 1.42 1.42
5 -9.6879 1.42 0.965
6 5.3316 1.101 1.101
7 23.1979 1.101 1.42
8 23.1979 1.101 1.42

BondAngle Coeffs

1 20.754 11.421 1.53 1.101
2 2.6868 20.4033 1.53 1.42
3 2.6868 20.4033 1.53 1.42
4 -2.8112 -2.8112 1.42 1.42
5 28.58 18.9277 1.42 0.965
6 18.103 18.103 1.101 1.101
7 4.6189 55.327 1.101 1.42
8 4.6189 55.327 1.101 1.42

Dihedral Coeffs # class2/kk

1 -0.5203 0 -0.3028 0 -0.345 0
2 -0.6732 0 -0.4778 0 -0.167 0
3 0.5302 0 0 0 -0.3966 0
4 -0.1432 0 0.0617 0 -0.1083 0
5 -0.1435 0 0.253 0 -0.0905 0
6 -0.1435 0 0.253 0 -0.0905 0
7 0.1863 0 -0.4338 0 -0.2121 0
8 -0.182 0 -0.1084 0 -0.7047 0
9 -0.182 0 -0.1084 0 -0.7047 0

AngleAngleTorsion Coeffs

1 -19.0059 111.27 104.5
2 -12.1038 111.27 105.8
3 -16.4438 104.5 108.728
4 -12.564 110.77 110.77
5 -20.2006 110.77 111.27
6 -20.2006 110.77 111.27
7 -10.5093 108.728 105.8
8 -14.0484 111.27 111.27
9 -14.0484 111.27 111.27

EndBondTorsion Coeffs

1 -0.2456 1.0517 -0.7795 0.4741 1.2635 0.5576 1.53 1.42
2 -0.58 0.9004 0 0 0.5343 0.9025 1.53 0.965
3 -0.162 0.1564 -1.1408 -0.6054 1.3339 0.9648 1.42 1.101
4 0.213 0.312 0.0777 0.213 0.312 0.0777 1.101 1.101
5 0.9681 0.9551 0.0436 0.5903 0.6669 0.8584 1.101 1.42
6 0.9681 0.9551 0.0436 0.5903 0.6669 0.8584 1.101 1.42
7 -1.7554 1.3145 0.2263 0.2493 0.6803 0 1.101 0.965
8 1.0165 0.7553 -0.4609 1.0165 0.7553 -0.4609 1.42 1.42
9 1.0165 0.7553 -0.4609 1.0165 0.7553 -0.4609 1.42 1.42

MiddleBondTorsion Coeffs

1 -5.9288 -2.7007 -0.3175 1.42
2 1.2472 0 0.7485 1.42
3 -6.8007 -4.6546 -1.4101 1.42
4 -14.261 -0.5322 -0.4864 1.53
5 -16.7975 -1.2296 -0.275 1.53
6 -16.7975 -1.2296 -0.275 1.53
7 0 0.9241 -0.5889 1.42
8 -17.2585 -3.6157 -0.8364 1.53
9 -17.2585 -3.6157 -0.8364 1.53

BondBond13 Coeffs

1 0 1.53 1.42
2 0 1.53 0.965
3 0 1.42 1.101
4 0 1.101 1.101
5 0 1.101 1.42
6 0 1.101 1.42
7 0 1.101 0.965
8 0 1.42 1.42
9 0 1.42 1.42

AngleTorsion Coeffs

1 -2.7466 1.4877 -0.8955 0.5676 0.945 0.0703 111.27 104.5
2 -3.5903 2.5225 0.4888 0.8726 -0.3577 0.3888 111.27 105.8
3 -0.7777 0.434 -0.6653 -1.8234 1.6393 0.5144 104.5 108.728
4 -0.8085 0.5569 -0.2466 -0.8085 0.5569 -0.2466 110.77 110.77
5 2.3668 2.492 -1.0122 -0.1892 0.4918 0.7273 110.77 111.27
6 2.3668 2.492 -1.0122 -0.1892 0.4918 0.7273 110.77 111.27
7 -3.406 1.6396 0.0737 0 -0.281 -0.5944 108.728 105.8
8 0.5511 0.9737 -0.6673 0.5511 0.9737 -0.6673 111.27 111.27
9 0.5511 0.9737 -0.6673 0.5511 0.9737 -0.6673 111.27 111.27

Improper Coeffs # class2/kk

1 0 0
2 0 0
3 0 0
4 0 0
5 0 0
6 0 0
7 0 0

AngleAngle Coeffs

1 0.2738 -0.4825 0.2738 110.77 110.77 107.66
2 3.9177 2.5926 0.1689 110.77 111.27 108.728
3 0.1689 2.5926 3.9177 111.27 110.77 108.728
4 0.1689 2.5926 3.9177 111.27 110.77 108.728
5 -0.3157 -0.3157 -0.3157 107.66 107.66 107.66
6 2.4259 2.4259 2.1283 107.66 108.728 108.728
7 2.4259 2.4259 2.1283 107.66 108.728 108.728

Atoms # full/kk

2469 4 2 0.053 4.220358754566874 7.442216301677275 4.981558374015238 0 1 1
6179 9 2 0.053 44.99246569061431 6.33750103049298 9.569818327650767 0 1 1
6185 9 2 0.053 8.027948817937542 4.303147014321265 7.662863551728037 1 1 1
6171 9 2 0.053 4.64381831222835 9.34887903904514 5.986317439226786 1 1 1
6170 9 1 0.027 4.497832805873462 9.396382506524805 7.062383467176408 1 1 1
6177 9 1 0.027 4.463328657191621 5.991589947414797 8.63193077658115 1 1 1
608 1 2 0.053 7.594970833195815 9.441053294336854 8.03041170612858 1 1 -1
606 1 1 0.027 7.661096666992118 10.12545268780326 8.860835880888152 1 1 -1
607 1 2 0.053 6.863438064176563 9.895069141409449 9.605668367680984 1 1 -1
6182 9 2 0.053 5.321283465196529 45.09315456493676 9.5138439247572 1 0 1
2470 4 4 -0.266 4.614646285641121 5.371708551977103 5.148430501279471 0 1 1
2459 4 2 0.053 6.479643062418932 10.201580628334538 4.820265466514922 0 1 1
2457 4 1 0.027 7.509962493126094 10.087683324379615 4.781715601058482 0 1 1
6183 9 4 -0.266 5.9696635447356 4.4357461971763765 7.527882333486518 1 1 1
6176 9 4 -0.266 4.909585790909111 7.128235007641427 7.914227338890246 1 1 1
6180 9 1 0.027 5.598270333201945 4.9963520090090565 8.77285133000656 1 1 1
2465 4 2 0.053 6.6573119974299555 7.220270264890326 5.505212146751839 0 1 1
6181 9 2 0.053 6.440230691085182 5.62072490365951 9.173588651825225 1 1 1
2458 4 2 0.053 7.910387838733137 9.971369266399755 5.747336701940908 0 1 1
4222 7 2 0.053 9.771829494881596 5.065134933947185 5.4743190550217555 1 1 0
4220 7 1 0.027 10.864008883716089 5.16811821718828 5.23427383598381 1 1 0
6178 9 2 0.053 44.60341807387681 5.523574953202468 8.071674604331292 0 1 1
4218 7 2 0.053 9.989833428797336 6.035244671050375 7.648802861372629 1 1 0
4223 7 1 0.027 11.321832722501064 44.83714762724601 4.517611755375366 1 0 0
4221 7 2 0.053 10.991122203129787 6.0523839305332086 4.562539477889426 1 1 0
4217 7 2 0.053 11.266659798091396 7.156624372265222 7.0969519198336295 1 1 0
4215 7 2 0.053 11.385401245864934 5.20337554162573 9.536226699745411 1 1 0
2061 3 2 0.053 15.572176970426169 4.3043543056224705 8.638734520782588 0 1 0
2048 3 4 -0.266 15.675114727026468 5.470629876142953 44.96281906395793 0 1 -1
4156 6 2 0.053 13.102596778731249 7.863544313371689 4.64274258929789 0 0 0
4157 6 2 0.053 11.770327253076108 9.09933845993746 4.46818050851487 0 0 0
4155 6 1 0.027 12.87722303624989 8.956891359337195 4.421209934485494 0 0 0
4214 7 2 0.053 12.932545610220807 5.465310530918904 8.648699312943423 1 1 0
4216 7 1 0.027 11.106123610459136 6.108082022147929 7.465952278241537 1 1 0
4213 7 1 -0.159 11.908063950754482 5.866764033925089 8.824644743807033 1 1 0
2057 3 2 0.053 14.902976517128296 6.43047477912039 7.932573193546534 0 1 0
4219 7 4 -0.266 11.605426677824651 5.170697237463169 6.470057378928956 1 1 0
2051 3 2 0.053 14.506896954034822 6.1501657162021015 5.681776879926006 0 1 0
2049 3 1 0.027 15.563422537371492 6.269987797935916 5.173070313336586 0 1 0
2050 3 2 0.053 15.581582158496698 7.397337488352478 4.93916110466008 0 1 0
4913 7 2 0.053 12.112486422517694 6.8678377913703965 9.31240702928106 1 1 0
2059 3 1 0.027 16.019896192181236 5.149790960343709 9.190439932880151 0 1 0
2054 3 2 0.053 16.663087710276855 4.673783378118235 6.303252722900952 0 1 0
2056 3 1 0.027 15.9454877071378 6.37481666156553 8.296479637185628 0 1 0
1564 3 2 0.053 20.96766524227187 8.99985202488896 11.211606340842406 0 1 0
1558 3 4 -0.266 20.635942154924386 6.781404616950114 9.605237626261834 0 1 0
1554 3 2 0.053 21.59840860521651 4.506303481241073 8.446065277573759 0 1 0
2060 3 2 0.053 17.156786818810954 4.866811886398046 9.379424137460214 0 1 0
2058 3 2 0.053 16.189403665861963 7.289589623436941 8.864710133214988 0 1 0
4138 6 2 0.053 19.629999040297847 9.43870926192367 7.4366377153294705 0 0 0
2052 3 1 0.027 16.730281207857153 5.771282095355552 6.060725062022996 0 1 0
2055 3 4 -0.266 16.91825232947528 6.469472520800105 7.240852421597684 0 1 0
4143 6 2 0.053 17.382946564809476 9.734662647641638 8.635089519000486 0 0 0
2053 3 2 0.053 17.630317217405533 5.989010530333557 5.50296161447797 0 1 0
1553 3 2 0.053 20.85936085324099 4.635801106415448 6.92811859120223 0 1 0
1555 3 1 0.027 20.14855394195856 6.187090799029822 8.402133497201332 0 1 0
1556 3 2 0.053 19.753924606352697 6.916315956595842 7.740616764018394 0 1 0
1552 3 1 0.027 21.206788907210033 5.272884839080864 7.756565108925416 0 1 0
1557 3 2 0.053 19.305402960074602 5.668196180635171 8.780405557100288 0 1 0
1550 3 2 0.053 21.48067986272589 6.503156185525462 5.393378803185684 0 1 0
1548 3 1 0.027 22.181878389387602 6.879951053021468 6.1539924002175885 0 1 0
1551 3 4 -0.266 22.29751752961904 5.986024305296201 7.261601247066519 0 1 0
1549 3 2 0.053 21.810794425844477 7.821220240264116 6.547364623893879 0 1 0
1559 3 1 0.027 21.586973190595383 7.8244969673940705 9.482401540695495 0 1 0
4127 6 1 0.027 24.166980217580665 10.523683004932508 7.349157387029323 0 0 0
4123 6 1 0.027 26.535339879715597 10.021516169819321 7.288303055037128 0 0 0
921 2 2 0.053 25.268844576680074 4.847886271555145 7.113508129056357 0 0 1
1560 3 2 0.053 21.390028243310184 8.718768068580985 8.811405704314076 0 1 0
4128 6 2 0.053 24.119895482511875 10.51382638450061 8.421204287436899 0 0 0
920 2 1 0.027 25.149339382615032 4.665258504690119 8.21179463860459 0 0 1
923 2 1 0.027 25.185376763015228 5.883082132034077 9.100953121183759 0 0 1
924 2 2 0.053 24.637678935102425 6.6245071423025035 8.592653968772776 0 0 1
4518 7 2 0.053 26.13685173107626 5.826323478892299 5.087378679081382 0 0 0
4125 6 2 0.053 26.59897487004889 10.077496363194232 8.370163428645034 0 0 0
1546 3 2 0.053 24.359464345013443 7.254219078140462 6.121125849615029 0 1 0
1545 3 1 0.027 23.576799535622342 6.994034513405982 5.500104042228099 0 1 0
4129 6 2 0.053 23.952495585901147 9.466912033202604 7.177143304932234 0 0 0
925 2 2 0.053 26.15679753288898 6.372311628871092 9.085651590089599 0 0 1
4124 6 2 0.053 26.329173260397162 8.972653578434997 6.9850468996356705 0 0 0
4517 7 1 0.027 26.834115248347672 5.092218599199984 4.544388722758285 0 0 0
3657 6 4 -0.266 30.02526277317055 8.147292347996126 9.434703928122323 0 0 0
3667 6 2 0.053 33.11982247204414 44.85969725724536 9.488190616338233 0 -1 0
4120 6 1 0.027 27.82973681796256 10.524419918939484 6.600070602825038 0 0 0
900 2 2 0.053 33.14093976262502 4.659272865479838 6.649874126494985 0 0 1
3658 6 1 0.027 29.921163272531828 6.807371698742345 10.014974221837841 0 0 0
3655 6 2 0.053 28.097759827032345 9.176696938564955 9.50528052792686 0 0 0
3659 6 2 0.053 28.92928430546516 6.275394248375283 9.8217369116742 0 0 0
3661 6 1 0.027 31.161763073396077 5.978603567476161 9.59123189672005 0 0 0
4520 7 4 -0.266 28.169304205193292 5.411818289331857 4.871630308443027 0 0 0
4522 7 2 0.053 28.085440664505896 7.430264940958957 4.229170280917072 0 0 0
4122 6 2 0.053 28.660366841105247 9.89398308186633 6.707374823186279 0 0 0
4525 7 2 0.053 30.19170512203805 6.228198630280888 6.313413287570443 0 0 0
3662 6 2 0.053 31.155768034790217 5.812135490382182 8.510597981500222 0 0 0
4521 7 1 0.027 28.780852826467253 6.689961285791003 4.623096512482332 0 0 0
4527 7 4 -0.266 30.41120475644726 8.102720126785957 5.511786586829714 0 0 0
4530 7 2 0.053 31.777093552204434 7.641091891966541 7.027457843752644 0 0 0
4524 7 1 0.027 29.568823646141034 7.04938614838478 5.930266870282114 0 0 0
4528 7 1 0.027 31.49465716144416 8.471396501004232 6.326312374034387 0 0 0
4526 7 2 0.053 28.96144839099081 7.367464873873381 6.786525266362628 0 0 0
4529 7 2 0.053 31.16743436493886 9.3716538445539 6.973850658818903 0 0 0
4531 7 1 0.027 32.791401304598836 8.851029016677142 5.634979331633132 0 0 0
2499 4 1 0.027 35.36364869055779 9.756421402781513 9.562850537209655 -1 1 1
2500 4 2 0.053 36.137998536161234 9.56185402676591 10.336244254785115 -1 1 1
893 2 2 0.053 35.609067453926535 4.858209279033645 5.0402705288119956 0 0 1
4533 7 2 0.053 32.869142411688046 8.29175533109531 4.67787908973183 0 0 0
884 2 4 -0.266 36.936916518610246 8.605795166716934 4.731587937971952 0 0 1
890 2 2 0.053 37.47891689741482 6.202556416329065 4.321841208038691 0 0 1
72 1 2 0.053 39.58979249085478 6.755685338561532 5.86469736097999 -1 1 0
2493 4 2 0.053 35.84931857278427 6.058741894100644 9.37118296584608 -1 1 1
2489 4 2 0.053 38.52672430948783 5.605394220852893 8.29801531988258 -1 1 1
2487 4 2 0.053 38.328441962118475 4.515379855819302 5.862308064933793 -1 1 1
4532 7 2 0.053 33.65192771980645 8.54328970054394 6.207186490367495 0 0 0
2488 4 1 0.027 37.75650926034611 4.92250058108823 7.857840339035873 -1 1 1
2491 4 4 -0.266 36.56404897659293 5.594597188335456 7.445873100583966 -1 1 1
2495 4 1 0.027 35.92941966478213 7.876901373351152 8.260970601785797 -1 1 1
2494 4 2 0.053 34.70527476632665 6.045493484409226 7.9921696925059065 -1 1 1
2492 4 1 0.027 35.758632986241906 6.344432757348258 8.293716557768494 -1 1 1
2497 4 2 0.053 36.91411259878423 8.066041012746997 8.630309630170474 -1 1 1
2498 4 4 -0.266 34.91244644872249 8.575394296579802 8.935718253974898 -1 1 1
2496 4 2 0.053 36.026795809930675 8.217823514115041 7.163587066432831 -1 1 1
82 1 2 0.053 38.98338162657973 10.031841559710887 9.015722250322012 -1 1 0
78 1 1 0.027 40.44690500741578 10.447170154780615 7.4636808952241624 -1 1 0
86 1 2 0.053 40.86392396011473 7.843265016655867 8.94095681408981 -1 1 0
81 1 1 0.027 39.98808588637061 10.450529724008579 8.943052258360916 -1 1 0
6174 9 2 0.053 44.0308202996508 7.629120346454279 6.921006318356637 0 1 1
73 1 2 0.053 41.35437798467318 6.655949928178819 5.868285297179087 -1 1 0
85 1 1 0.027 40.58645099084154 8.32870789739952 9.877733961909462 -1 1 0
77 1 4 -0.266 40.18380576288766 9.10054567772423 6.924310023847179 -1 1 0
93 1 2 0.053 42.407720068702844 5.813189533733947 9.531651439084415 -1 1 0
71 1 1 0.027 40.53754547190863 7.221338666936601 5.437500147232965 -1 1 0
84 1 4 -0.266 40.73958995487047 9.736384221792703 9.918425085106993 -1 1 0
2473 4 2 0.053 43.62716408270394 5.734634606751527 5.6909107051303724 -1 1 1
2471 4 1 0.027 44.22258773823182 5.018968830669996 5.065089562720659 -1 1 1
2480 4 2 0.053 42.16158470549102 45.04336649282885 7.228365914886893 -1 0 1
75 1 2 0.053 41.82842460834645 8.996250643790752 5.692636794344122 -1 1 0
74 1 1 0.027 40.701245262036394 8.725025931296365 5.672929294763571 -1 1 0
6173 9 1 0.027 44.790056982203964 8.061552902905305 7.627132481757037 0 1 1
6175 9 2 0.053 44.21736075419507 8.328235804291658 8.545188264777765 0 1 1
76 1 2 0.053 40.12662803272897 9.134313957468443 4.846380065197624 -1 1 0
2452 4 2 0.053 9.31643943658294 11.811256338162309 6.550141901339139 0 1 1
6167 9 2 0.053 4.603977213375394 12.01128051840849 6.557801326999342 1 1 1
2873 5 2 0.053 4.429031379457313 12.028619924730792 11.020092086984777 1 0 0
6168 9 2 0.053 4.7397149625822985 11.726969159275718 8.347357666356055 1 1 1
2456 4 4 -0.266 7.97462734990906 11.287002193142069 45.059573437440804 0 1 0
5416 8 2 0.053 4.781647295840447 14.883486408789395 4.936735530545503 0 0 1
2450 4 1 0.027 9.461840415614951 12.546776470985566 5.750121135919962 0 1 1
615 1 2 0.053 9.280115688822264 12.945604017615466 8.421744303798304 1 1 -1
609 1 4 -0.266 7.498344246360054 11.346988614696636 8.130704416541322 1 1 -1
616 1 4 -0.266 8.498725931817384 14.776515999991545 9.13213388022958 1 1 -1
611 1 2 0.053 6.8016373253974045 13.16315343544724 7.884182586769208 1 1 -1
612 1 2 0.053 6.438232217466562 12.571410498387339 9.496187437307045 1 1 -1
613 1 1 0.027 8.521873491306225 13.34684376869317 9.12443489655949 1 1 -1
610 1 1 0.027 7.2224920896005464 12.580070506943878 8.743271904158199 1 1 -1
614 1 2 0.053 9.052558976166864 13.058060448677995 10.085520971868572 1 1 -1
617 1 1 0.027 8.829589549287416 15.25645227896902 7.831399845305449 1 1 -1
619 1 2 0.053 9.864188220110798 14.89969091389665 7.531032449835302 1 1 -1
618 1 2 0.053 8.05791690480864 14.883556315115346 7.103673933747821 1 1 -1
2451 4 2 0.053 8.61723855964525 13.311177408093707 5.7879295406135265 0 1 1
6172 9 2 0.053 5.466621554375369 9.540459578982018 7.486062685182877 1 1 1
2443 4 1 0.027 12.65181254809195 14.248235574460248 5.233554647757465 0 1 1
2445 4 2 0.053 12.952816737308368 14.34906202344413 6.312726787180816 0 1 1
654 1 2 0.053 14.163213303200711 13.220355495469542 10.127824178414672 1 1 -1
2448 4 2 0.053 10.582289391481865 15.152291597710727 5.519553107416007 0 1 1
2440 4 2 0.053 15.140893328372158 15.614384260027029 5.03609768637885 0 1 1
657 1 2 0.053 12.362200100648218 14.219816852317589 8.379121195428779 1 1 -1
658 1 4 -0.266 11.559127560093447 14.00461708956268 10.201156583879653 1 1 -1
652 1 1 0.027 14.044199474435072 14.259018933370692 9.737686271231745 1 1 -1
4148 6 1 0.027 13.733874284256128 11.419137074462952 7.197673095230229 0 0 0
4149 6 2 0.053 14.073794122848062 12.206391257874664 6.514299005581515 0 0 0
651 1 4 -0.266 14.917556598226158 14.485931353693337 8.694198877937394 1 1 -1
4150 6 2 0.053 12.995503446703893 11.832138756501504 7.935779835349185 0 0 0
4147 6 4 -0.266 14.817864772299952 10.98443545013456 7.969906454408651 0 0 0
4154 6 4 -0.266 13.551738627101239 9.846990687698991 5.338876480950927 0 0 0
4152 6 2 0.053 11.934064872726886 10.540216818785677 6.393998963350775 0 0 0
4151 6 1 0.027 12.962722128103742 10.251391616046298 6.524594310960342 0 0 0
4153 6 2 0.053 13.014251223673968 9.346766159244586 7.217912962110988 0 0 0
6344 10 2 0.053 19.530845559002984 12.319066554112243 10.055740060671821 0 0 0
4146 6 2 0.053 15.934573459812029 10.04256641088971 6.608398216088026 0 0 0
6340 10 1 0.027 21.193950960571172 13.626496130200557 9.949224800014608 0 0 0
649 1 2 0.053 16.76376801041547 13.776954827890318 9.34644179023682 1 1 -1
648 1 1 0.027 16.308782450127655 14.762337087666857 9.150554771529661 1 1 -1
646 1 2 0.053 17.323308674380094 15.098386119098858 7.30079908819423 1 1 -1
6333 10 1 0.027 20.935216172739935 15.608245228869789 6.738408516109476 0 0 0
5522 8 2 0.053 18.91378259510448 12.918933505508615 5.3017199522068745 0 0 1
4144 6 1 0.027 16.028814211574264 10.869599645828888 7.281615834808874 0 0 0
4145 6 2 0.053 16.28784229083343 11.769084149807426 6.6486043292118975 0 0 0
6339 10 4 -0.266 20.600996150080217 14.241844369736729 8.799503812534155 0 0 0
6336 10 1 0.027 21.38510200869291 15.289224046436159 8.180469500559457 0 0 0
4134 6 1 0.027 20.64647025604503 11.083861117184554 6.634081434771321 0 0 0
4135 6 2 0.053 20.679591521165644 12.155842425875985 6.656551840661634 0 0 0
4140 6 4 -0.266 18.318994678869323 11.0553447470371 7.250021022653269 0 0 0
4141 6 1 0.027 17.27873729041429 10.733319778466283 8.161454275576704 0 0 0
4142 6 2 0.053 17.2796371568563 11.525382115483925 9.007117381134343 0 0 0
4136 6 2 0.053 20.421090873303935 10.738910393924115 5.607603005950332 0 0 0
6334 10 2 0.053 21.30336131067653 14.66064256131424 6.154052760557744 0 0 0
4139 6 2 0.053 19.90393801971804 10.79090830393531 8.572491744107975 0 0 0
4137 6 1 0.027 19.55364332652271 10.504798155088949 7.579515450347972 0 0 0
1574 3 2 0.053 26.22123399334064 12.4124745936126 9.836078328853285 0 1 0
1571 3 2 0.053 25.380395364327207 10.24506861799065 10.902981366190952 0 1 0
1573 3 1 0.027 25.50601170668592 12.92739378407087 10.487983227807929 0 1 0
6342 10 2 0.053 22.013286404178807 12.909541689920703 9.61801786946405 0 0 0
1575 3 2 0.053 25.999862621070807 13.244050911628959 11.439208537528385 0 1 0
1567 3 2 0.053 22.667523432792898 10.782338183644157 12.313830534591693 0 1 0
1579 3 4 -0.266 26.09299165109676 15.087453683841266 9.410286973812958 0 1 0
6788 10 1 0.027 25.563127931992373 15.118098620030862 5.203350906976141 0 0 1
6790 10 2 0.053 24.91323770181189 14.935452007796318 6.097669756616195 0 0 1
6791 10 1 0.027 25.15339521787958 16.499508617625743 4.587950761289589 0 0 1
4132 6 2 0.053 23.036206713872527 12.320269668826771 6.86035466206642 0 0 0
6337 10 2 0.053 22.497230338701982 15.199669795928136 8.411768370337992 0 0 0
4130 6 1 0.027 23.052760715273376 11.209152993191825 6.639024055594377 0 0 0
6789 10 2 0.053 26.611216494689305 15.113039533367814 5.503521734434203 0 0 1
4131 6 2 0.053 23.15905412438889 11.054797134196004 5.59099989853277 0 0 0
4133 6 4 -0.266 21.862392880049843 10.580407268084125 7.164517437704633 0 0 0
4126 6 4 -0.266 25.42951615323041 10.814726493487 6.770218844302549 0 0 0
4115 6 2 0.053 29.57308143502621 13.447812099706145 8.479426437617981 0 0 0
4539 7 2 0.053 33.37462712551286 12.359336188986685 44.833537104777875 0 0 -1
959 2 2 0.053 31.765291949394417 15.02739737867637 9.10437246828944 0 0 1
4543 7 2 0.053 31.583225055774534 14.79146386502064 4.555530620843825 0 0 0
4538 7 1 0.027 32.36974803412827 12.276768260666513 4.334661742961918 0 0 0
4117 6 2 0.053 29.38062799823624 12.399617132613912 5.607465222821688 0 0 0
4540 7 2 0.053 32.36590284762684 12.659288965492285 5.409506444593603 0 0 0
4535 7 1 0.027 31.957324813038426 10.813925615594837 4.543337521035034 0 0 0
4110 6 2 0.053 29.744779828271387 16.080168652689558 8.28122440305772 0 0 0
4118 6 2 0.053 30.243154118990574 11.448969105237776 6.925570335953736 0 0 0
4109 6 1 0.027 29.708813198398634 15.796200495257274 7.170907018469139 0 0 0
4113 6 1 0.027 29.895316754611454 13.438207524023733 7.418871501367555 0 0 0
4116 6 1 0.027 29.427714627154593 12.16481654341846 6.692054907178223 0 0 0
4119 6 4 -0.266 28.15634509420734 11.824301045772344 7.171040114181689 0 0 0
4112 6 4 -0.266 29.299168910719153 14.531965372307424 6.800485069620533 0 0 0
4114 6 2 0.053 30.965520891758068 13.380148031795049 7.332372216597161 0 0 0
4537 7 2 0.053 30.929408813082873 10.683766174816851 4.912360921650855 0 0 0
3653 6 2 0.053 30.47889849229695 10.48513087321352 8.962182736888515 0 0 0
4121 6 2 0.053 27.559173619330974 10.79373798206121 5.535837296597694 0 0 0
4534 7 4 -0.266 32.94111003934383 10.271402924485198 5.430455604240219 0 0 0
878 2 1 0.027 36.18664472968449 11.067501758716624 4.531999731168395 0 0 1
872 2 2 0.053 36.25915797633978 14.778051266553177 6.301935968517179 0 0 1
873 2 2 0.053 37.08564993470797 14.909437846519054 4.679458071298699 0 0 1
2502 4 1 0.027 35.819767191623086 10.959188224063382 8.666256945937354 -1 1 1
964 2 2 0.053 34.542399357301505 15.668637878218592 8.984113465821851 0 0 1
2509 4 1 0.027 37.6772472552973 14.046141007918207 9.35436577802349 -1 1 1
880 2 2 0.053 35.310500810446044 10.828990117978917 5.152194299441524 0 0 1
2512 4 4 -0.266 37.54491661756444 15.353830811384817 8.799278222000531 -1 1 1
2505 4 4 -0.266 36.42426198545846 11.930603941200644 9.504351899483659 -1 1 1
2503 4 2 0.053 34.948572731597295 11.439326620381173 8.17755749068909 -1 1 1
871 2 1 0.027 36.09136823837562 14.73213265474878 5.197699037577058 0 0 1
2508 4 2 0.053 35.62551268326044 13.689398934208986 8.812852699813872 -1 1 1
2507 4 2 0.053 36.889083413611274 12.998503997536123 7.726914952400924 -1 1 1
2504 4 2 0.053 36.515340010747806 10.662897315764724 7.80864205562845 -1 1 1
2506 4 1 0.027 36.60149467690211 13.161784128485852 8.763114424254605 -1 1 1
2510 4 2 0.053 38.727569241946824 13.608923892430704 9.36196496088862 -1 1 1
874 2 1 0.027 35.604623741411004 13.335789936715559 4.823830465811771 0 0 1
877 2 4 -0.266 36.66163090498098 12.362000793108407 4.874558833571775 0 0 1
882 2 2 0.053 38.20652454066614 10.232969237675007 4.372577825364137 0 0 1
883 2 2 0.053 37.487156872814225 10.06544061688091 5.990979902946339 0 0 1
881 2 1 0.027 37.272379164698194 9.977644592274208 4.915694768543207 0 0 1
2514 4 2 0.053 39.53510586154053 15.870257927717839 8.496583841005753 -1 1 1
6164 9 2 0.053 43.342476734967704 12.36700017326784 8.638138874028044 0 1 1
5406 8 2 0.053 43.60703383601208 16.806637318427526 8.197711832048672 -1 0 1
6160 9 2 0.053 42.616789101244564 14.995760723008514 7.095962141372249 0 1 1
6163 9 1 0.027 43.93308432975023 12.728719508831805 7.735642068711697 0 1 1
6156 9 1 0.027 41.219220723906545 14.198440283328 5.548901667621144 0 1 1
6161 9 2 0.053 41.45092504490128 13.609133263344887 7.67181863438071 0 1 1
6159 9 1 0.027 42.11979960419441 13.99896793124957 6.849627294924717 0 1 1
6162 9 4 -0.266 43.15982258251303 13.050618391622013 6.582122801554425 0 1 1
6169 9 4 -0.266 44.46240137989979 10.347903380808628 7.39003395390388 0 1 1
6166 9 1 0.027 45.01314851527874 11.659219593818708 7.476802944820764 0 1 1
6157 9 2 0.053 41.051261057161256 13.248881340144235 5.019693073146742 0 1 1
6165 9 2 0.053 44.48545825574921 13.64952251359563 8.067159103335923 0 1 1
80 1 2 0.053 39.87397642938075 11.186874285588805 6.923788743857796 -1 1 0
83 1 2 0.053 39.95286862339047 11.50562733300741 9.349648940192203 -1 1 0
6155 9 4 -0.266 41.823232754669434 15.096222551175254 4.664454352409136 0 1 1
6158 9 2 0.053 40.28137865429933 14.658049151696156 5.8909586246937105 0 1 1
2559 4 2 0.053 43.90968911573658 13.057491062150513 44.52254764694724 -1 1 0
79 1 2 0.053 41.50344559089524 10.718181569422775 7.470365524562827 -1 1 0
5412 8 1 0.027 4.910356623563657 16.646892895671478 6.230705124772718 0 0 1
620 1 1 0.027 8.691933977755085 16.85112482590325 7.821007632461967 1 1 -1
622 1 2 0.053 9.102993717689138 17.31554657828447 8.747772228459462 1 1 -1
5417 8 2 0.053 4.646881369982659 16.51183155814349 4.1979428848190805 0 0 1
5414 8 2 0.053 5.610006066619084 17.514839886995446 6.380904760779891 0 0 1
6563 10 4 -0.266 7.683679796691712 21.732126059384957 6.445533787867162 0 0 0
6559 10 2 0.053 8.803233584271918 20.56066218383889 45.096708506434744 0 0 -1
5409 8 2 0.053 5.543761203308743 16.050191148914287 9.439193800251862 0 0 1
5411 8 4 -0.266 5.0938898288163355 15.825225534118362 7.501970126503171 0 0 1
5418 8 4 -0.266 6.558210429017746 15.754270341997982 4.707628685662808 0 0 1
5415 8 1 0.027 5.176556259405322 15.90026071495207 4.906754748903425 0 0 1
201 1 2 0.053 45.1103191482797 19.053582007208348 7.3670727115093575 -1 0 0
6570 10 4 -0.266 7.121217175689619 21.8259584961616 9.27918746863259 0 0 0
621 1 2 0.053 7.633535073004828 17.018673438556576 7.816070914134383 1 1 -1
626 1 2 0.053 8.49492673716697 19.156232435044707 6.111005916540648 1 1 -1
623 1 4 -0.266 9.425483766639243 17.36333186566614 6.729469929154839 1 1 -1
624 1 1 0.027 9.475229855361718 18.769048013479257 6.580506051039326 1 1 -1
5424 8 2 0.053 8.94373217985208 15.965852229082115 45.03633393421177 0 0 0
629 1 2 0.053 10.725594607699835 18.549165471819165 4.852923728477291 1 1 -1
3254 5 2 0.053 14.981647093619236 18.793171072444384 10.839761088218696 1 0 1
625 1 2 0.053 9.594968732562135 19.207677689446644 7.602517919698913 1 1 -1
655 1 1 0.027 12.592963347768883 14.55252615428715 9.387902571721792 1 1 -1
3252 5 2 0.053 12.725244126016397 19.372122653304295 10.31795606903879 1 0 1
3246 5 1 0.027 12.45563464525991 21.47906843098037 9.016384146668571 1 0 1
656 1 2 0.053 12.518027584018581 15.690219868029777 9.317107982354177 1 1 -1
3249 5 4 -0.266 13.563458424548692 21.209504280449764 9.798780490125683 1 0 1
3248 5 2 0.053 11.761016244088466 20.654412922932593 8.738425471064865 1 0 1
628 1 2 0.053 10.70900967628899 20.225493380935408 5.454966935875088 1 1 -1
627 1 1 0.027 10.684773260802778 19.148570867698048 5.748979866876124 1 1 -1
631 1 1 0.027 13.015078206809914 18.925876243934802 5.666994481248103 1 1 -1
630 1 4 -0.266 11.834035341966658 18.851626652648722 6.496982188723237 1 1 -1
635 1 2 0.053 14.222097371585807 17.642472016809858 6.933627623806149 1 1 -1
634 1 1 0.027 14.211279674095433 18.708649841007343 6.665615504638204 1 1 -1
636 1 2 0.053 13.924225180004294 19.38946739039643 7.536275773173821 1 1 -1
632 1 2 0.053 13.04347704473102 19.832696088011048 5.086152305207763 1 1 -1
633 1 2 0.053 12.989459310138805 18.051186406054708 4.992717070010283 1 1 -1
637 1 4 -0.266 15.474427103519337 19.12229285614547 6.064029437008904 1 1 -1
828 2 4 -0.266 20.107334879509786 18.351803656487597 9.263121093428179 0 0 1
650 1 2 0.053 16.406456317214243 15.063354471610916 10.270813277515527 1 1 -1
6335 10 2 0.053 19.795484122520563 15.684044114477745 6.732820151024743 0 0 0
645 1 1 0.027 17.118469924503582 15.655296893421381 8.256751456686528 1 1 -1
647 1 2 0.053 18.124219326942388 15.83096167957193 8.758132220628811 1 1 -1
831 2 2 0.053 20.32940388026314 20.299068490357115 9.186411621095301 0 0 1
830 2 2 0.053 20.348515997922597 19.556474565178853 7.6211590572120445 0 0 1
639 1 2 0.053 16.45819419671645 19.342773482973683 7.9814362751949375 1 1 -1
638 1 1 0.027 16.61699102704248 19.074466369031207 6.89166617857288 1 1 -1
6331 10 2 0.053 19.962871798791824 17.387855308874347 4.938743571594729 0 0 0
644 1 4 -0.266 16.458232815708758 16.869297278257832 8.059018174677478 1 1 -1
641 1 1 0.027 17.256121700165053 17.69878588551741 7.173981276336986 1 1 -1
643 1 2 0.053 17.44651321135909 17.201299051529915 6.175479540072461 1 1 -1
642 1 2 0.053 18.308491913257875 17.818486031142562 7.608769277767528 1 1 -1
640 1 2 0.053 17.369360689649632 19.743136804338313 6.421089126803689 1 1 -1
829 2 1 0.027 20.775221330127298 19.453520427718026 8.648867132555193 0 0 1
6329 10 1 0.027 21.06088749147875 17.23990461703542 4.993972216024889 0 0 0
6332 10 4 -0.266 21.534237500949313 16.788289455179516 6.234680703471357 0 0 0
6330 10 2 0.053 21.410497071486706 16.50708228911362 4.2070366728816655 0 0 0
6338 10 2 0.053 21.20997681575927 16.26700740152721 8.732095843113683 0 0 0
6328 10 2 0.053 21.03862880090581 19.26235131694156 5.39148060416636 0 0 0
6326 10 1 0.027 21.57909741948098 18.59877521368104 4.718314225633169 0 0 0
843 2 1 0.027 26.060664948501437 22.10664881223385 4.836146069188825 0 0 1
1580 3 1 0.027 25.64067029871634 16.42979500842674 9.135047006764486 0 1 0
1584 3 2 0.053 25.523650827072373 18.535216865301926 10.044851099068687 0 1 0
834 2 2 0.053 22.617188512321754 19.58299251205068 9.73263585125646 0 0 1
1582 3 2 0.053 24.755724419930587 16.51879903072496 8.413439759570625 0 1 0
833 2 2 0.053 22.599337102964657 18.35651502591757 8.535668490273899 0 0 1
832 2 1 0.027 22.322519489376575 19.376522375158807 8.70430413894015 0 0 1
835 2 4 -0.266 22.766911428560334 20.322378763741686 7.724411781919562 0 0 1
841 2 2 0.053 23.855518152002528 20.908813328807362 5.584462311338544 0 0 1
837 2 2 0.053 24.74328158438228 19.395423462973355 7.617990599761206 0 0 1