units real
atom_style full
boundary p p p

# --- Force Field (injected via PAIR_STYLE_BLOCK) ---
pair_style lj/class2/coul/cut 9.5 9.5
dielectric 1.000000
bond_style class2
angle_style class2
dihedral_style class2
improper_style class2
special_bonds lj/coul 0 0 1
pair_modify mix sixthpower tail yes
neighbor 2.0 bin
neigh_modify delay 0 every 1 check yes
neigh_modify one 4000
# KOKKOS: package loaded via -pk kokkos on the command line

read_data /home/arz2/PolyJarvis/data/PLA3/lammps/equil/nvt_softheat/nvt_softheat_out.data
Reading data file ...
  orthogonal box = (0 0 0) to (45.633123 45.633123 45.633123)
  1 by 1 by 1 MPI processor grid
WARNING: Pair style lj/class2/coul/long/kk in data file differs from currently defined pair style lj/class2/coul/cut/kk (src/read_data.cpp:811)
  reading atoms ...
  4520 atoms
  reading velocities ...
  4520 velocities
  scanning bonds ...
  4 = max bonds/atom
  scanning angles ...
  12 = max angles/atom
  scanning dihedrals ...
  21 = max dihedrals/atom
  scanning impropers ...
  8 = max impropers/atom
  orthogonal box = (0 0 0) to (45.633123 45.633123 45.633123)
  1 by 1 by 1 MPI processor grid
  reading bonds ...
  4510 bonds
  reading angles ...
  8000 angles
  reading dihedrals ...
  9970 dihedrals
  reading impropers ...
  4500 impropers
Finding 1-2 1-3 1-4 neighbors ...
  special bond factors lj:    0        0        1       
  special bond factors coul:  0        0        1       
     4 = max # of 1-2 neighbors
     6 = max # of 1-3 neighbors
    10 = max # of special neighbors
  special bonds CPU = 0.003 seconds
  read_data CPU = 0.259 seconds
include /home/arz2/PolyJarvis/data/PLA3/lammps/equil/emc_build.params
# LAMMPS parameters created by EMC v9.4.4, build Jul 31 2025 20:33:44

# Variables

variable	seed		index	472913
variable	ntotal		index	4520
variable	fshape		index	1
variable	output		index	emc_build
variable	field		index	pcff/pcff
variable	location1	index	/home/arz2/emc/field/
variable	nav		index	0.6022141179
variable	temperature	index	300
variable	radius		index	5
variable	nrelax		index	100
variable	weight_nonbond	index	0.0001
variable	weight_bond	index	0.0001
variable	weight_focus	index	1
variable	cutoff		index	9.5
variable	charge_cutoff	index	9.5
variable	kappa		index	4
variable	density1	index	0.63
variable	lprevious	index	0
variable	lphase		index	45.6331234262
variable	f_poly		index	10
variable	chem_repeat	index	*C(C)C(=O)O*
variable	chem_cap	index	*[H]
variable	lg_repeat	index	9
variable	lg_cap		index	1
variable	norm_poly	index	100
variable	l_poly		index	452
variable	mg_repeat	index	44.05358
variable	mg_cap		index	0
variable	m_poly		index	2202.679
variable	n_poly		index	10
variable	mtotal		index	36052.2247
variable	nphase1		index	4520
variable	mphase1		index	36052.2247
variable	vphase1		index	95025.5927105
variable	lbox		index	45.6331234262
variable	lphase1		index	45.6331234262
variable	lxx		index	45.6331234262
variable	lyy		index	45.6331234262
variable	lzz		index	45.6331234262
variable	lzy		index	0
variable	lzx		index	0
variable	lyx		index	0
variable	vtotal		index	95025.5927105
variable	nl_poly		index	10

# Types

variable	type_c		index	1
variable	type_c1		index	2
variable	type_c_1	index	3
variable	type_hc		index	4
variable	type_ho2	index	5
variable	type_o_1	index	6
variable	type_o_2	index	7

variable	type_bond_c_c	index	1
variable	type_bond_c_c1	index	2
variable	type_bond_c_c_1	index	3
variable	type_bond_c_hc	index	4
variable	type_bond_c1_c_1 index	5
variable	type_bond_c1_hc	index	6
variable	type_bond_c1_o_2 index	7
variable	type_bond_c_1_o_1 index	8
variable	type_bond_c_1_o_2 index	9
variable	type_bond_ho2_o_2 index	10

variable	type_angle_c_c_c_1 index	1
variable	type_angle_c_c_hc index	2
variable	type_angle_c_c1_c_1 index	3
variable	type_angle_c_c1_hc index	4
variable	type_angle_c_c1_o_2 index	5
variable	type_angle_c_c_1_o_1 index	6
variable	type_angle_c_c_1_o_2 index	7
variable	type_angle_c1_c_hc index	8
variable	type_angle_c1_c_1_o_1 index	9
variable	type_angle_c1_c_1_o_2 index	10
variable	type_angle_c1_o_2_c_1 index	11
variable	type_angle_c_1_c_hc index	12
variable	type_angle_c_1_c1_hc index	13
variable	type_angle_c_1_c1_o_2 index	14
variable	type_angle_c_1_o_2_ho2 index	15
variable	type_angle_hc_c_hc index	16
variable	type_angle_hc_c1_o_2 index	17
variable	type_angle_o_1_c_1_o_2 index	18

# Clusters

variable	n0_poly		index	1
variable	n1_poly		index	10
variable	nl_poly		index	10

# Flags

variable	flag_charged	index	1

# Masses

mass		1    12.01115  # c
mass		2    12.01115  # c1
mass		3    12.01115  # c_1
mass		4     1.00797  # hc
mass		5     1.00800  # ho2
mass		6    15.99940  # o_1
mass		7    15.99940  # o_2

# Potentials

pair_modify	mix sixthpower tail yes
special_bonds	lj/coul 0 0 1

# Pair Coeffs

pair_coeff	 1  1    0.05400    4.01000  # c,c
pair_coeff	 2  2    0.05400    4.01000  # c1,c1
pair_coeff	 3  3    0.12000    3.81000  # c_1,c_1
pair_coeff	 4  4    0.02000    2.99500  # hc,hc
pair_coeff	 5  5    0.01300    1.11000  # ho2,ho2
pair_coeff	 6  6    0.26700    3.30000  # o_1,o_1
pair_coeff	 7  7    0.24000    3.42000  # o_2,o_2

# Bond Coeffs

bond_coeff	 1    1.53000  299.67000 -501.77000  679.81000  # c,c
bond_coeff	 2    1.53000  299.67000 -501.77000  679.81000  # c,c1
bond_coeff	 3    1.52020  253.70670 -423.03700  396.90000  # c,c_1
bond_coeff	 4    1.10100  345.00000 -691.89000  844.60000  # c,hc
bond_coeff	 5    1.52020  253.70670 -423.03700  396.90000  # c1,c_1
bond_coeff	 6    1.10100  345.00000 -691.89000  844.60000  # c1,hc
bond_coeff	 7    1.43000  326.72730 -608.53060  689.03330  # c1,o_2
bond_coeff	 8    1.20200  851.14030 -1918.48820 2160.76590  # c_1,o_1
bond_coeff	 9    1.36830  367.14810 -794.79080 1055.23190  # c_1,o_2
bond_coeff	10    0.95200  534.29940 -1287.19370 1889.13960  # ho2,o_2

# Angle Coeffs

angle_coeff	 1  108.52950   51.97470   -9.48510  -10.99850  # c,c,c_1
angle_coeff	 2  110.77000   41.45300  -10.60400    5.12900  # c,c,hc
angle_coeff	 3  108.52950   51.97470   -9.48510  -10.99850  # c,c1,c_1
angle_coeff	 4  110.77000   41.45300  -10.60400    5.12900  # c,c1,hc
angle_coeff	 5  107.41000   63.39070  -13.45130    1.66500  # c,c1,o_2
angle_coeff	 6  123.14510   55.54310  -17.21230    0.13480  # c,c_1,o_1
angle_coeff	 7  100.31820   38.86310   -3.83230   -7.98020  # c,c_1,o_2
angle_coeff	 8  110.77000   41.45300  -10.60400    5.12900  # c1,c,hc
angle_coeff	 9  123.14510   55.54310  -17.21230    0.13480  # c1,c_1,o_1
angle_coeff	10  100.31820   38.86310   -3.83230   -7.98020  # c1,c_1,o_2
angle_coeff	11  113.28800   61.28680  -28.97860    7.99290  # c1,o_2,c_1
angle_coeff	12  107.73360   40.60990  -28.81210    0.00000  # c_1,c,hc
angle_coeff	13  107.73360   40.60990  -28.81210    0.00000  # c_1,c1,hc
angle_coeff	14  109.50000   60.00000    0.00000    0.00000  # c_1,c1,o_2
angle_coeff	15  112.87400   53.25120  -14.99790    2.46400  # c_1,o_2,ho2
angle_coeff	16  107.66000   39.64100  -12.92100   -2.43180  # hc,c,hc
angle_coeff	17  107.68800   65.48010  -10.34980    5.88660  # hc,c1,o_2
angle_coeff	18  120.79700   95.34460  -32.28690    6.37780  # o_1,c_1,o_2

# BondBond Coeffs

angle_coeff	 1 bb    5.41990    1.53000    1.52020  # c,c,c_1
angle_coeff	 2 bb    3.38720    1.53000    1.10100  # c,c,hc
angle_coeff	 3 bb    5.41990    1.53000    1.52020  # c,c1,c_1
angle_coeff	 4 bb    3.38720    1.53000    1.10100  # c,c1,hc
angle_coeff	 5 bb   23.26470    1.53000    1.43000  # c,c1,o_2
angle_coeff	 6 bb   46.06850    1.52020    1.20200  # c,c_1,o_1
angle_coeff	 7 bb   19.10690    1.52020    1.36830  # c,c_1,o_2
angle_coeff	 8 bb    3.38720    1.53000    1.10100  # c1,c,hc
angle_coeff	 9 bb   46.06850    1.52020    1.20200  # c1,c_1,o_1
angle_coeff	10 bb   19.10690    1.52020    1.36830  # c1,c_1,o_2
angle_coeff	11 bb   45.45030    1.43000    1.36830  # c1,o_2,c_1
angle_coeff	12 bb    0.71150    1.52020    1.10100  # c_1,c,hc
angle_coeff	13 bb    0.71150    1.52020    1.10100  # c_1,c1,hc
angle_coeff	14 bb    0.00000    1.52020    1.43000  # c_1,c1,o_2
angle_coeff	15 bb    9.56710    1.36830    0.95200  # c_1,o_2,ho2
angle_coeff	16 bb    5.33160    1.10100    1.10100  # hc,c,hc
angle_coeff	17 bb    5.64540    1.10100    1.43000  # hc,c1,o_2
angle_coeff	18 bb  121.48800    1.20200    1.36830  # o_1,c_1,o_2

# BondAngle Coeffs

angle_coeff	 1 ba   18.16780   15.87580    1.53000    1.52020  # c,c,c_1
angle_coeff	 2 ba   20.75400   11.42100    1.53000    1.10100  # c,c,hc
angle_coeff	 3 ba   18.16780   15.87580    1.53000    1.52020  # c,c1,c_1
angle_coeff	 4 ba   20.75400   11.42100    1.53000    1.10100  # c,c1,hc
angle_coeff	 5 ba   23.39200   47.94870    1.53000    1.43000  # c,c1,o_2
angle_coeff	 6 ba   34.99820   37.12980    1.52020    1.20200  # c,c_1,o_1
angle_coeff	 7 ba    1.34350    4.69780    1.52020    1.36830  # c,c_1,o_2
angle_coeff	 8 ba   20.75400   11.42100    1.53000    1.10100  # c1,c,hc
angle_coeff	 9 ba   34.99820   37.12980    1.52020    1.20200  # c1,c_1,o_1
angle_coeff	10 ba    1.34350    4.69780    1.52020    1.36830  # c1,c_1,o_2
angle_coeff	11 ba   41.91160   46.46080    1.43000    1.36830  # c1,o_2,c_1
angle_coeff	12 ba   12.46320    9.17650    1.52020    1.10100  # c_1,c,hc
angle_coeff	13 ba   12.46320    9.17650    1.52020    1.10100  # c_1,c1,hc
angle_coeff	14 ba    0.00000    0.00000    1.52020    1.43000  # c_1,c1,o_2
angle_coeff	15 ba   37.91630   21.43640    1.36830    0.95200  # c_1,o_2,ho2
angle_coeff	16 ba   18.10300   18.10300    1.10100    1.10100  # hc,c,hc
angle_coeff	17 ba    8.68640   57.49750    1.10100    1.43000  # hc,c1,o_2
angle_coeff	18 ba   76.26140   71.87610    1.20200    1.36830  # o_1,c_1,o_2

# Dihedral Coeffs

dihedral_coeff	 1    0.04420    0.00000    0.02920    0.00000    0.05620    0.00000  # c,c,c_1,o_1
dihedral_coeff	 2    1.83410    0.00000    2.06030    0.00000   -0.01950    0.00000  # c,c,c_1,o_2
dihedral_coeff	 3    0.04420    0.00000    0.02920    0.00000    0.05620    0.00000  # c,c1,c_1,o_1
dihedral_coeff	 4    1.83410    0.00000    2.06030    0.00000   -0.01950    0.00000  # c,c1,c_1,o_2
dihedral_coeff	 5    0.00000    0.00000    0.00000    0.00000   -0.19320    0.00000  # c,c1,o_2,c_1
dihedral_coeff	 6   -2.55940    0.00000    2.20130    0.00000    0.03250    0.00000  # c,c_1,o_2,c1
dihedral_coeff	 7   -2.55940    0.00000    2.20130    0.00000    0.03250    0.00000  # c1,c_1,o_2,c1
dihedral_coeff	 8   -2.91260    0.00000    1.01990    0.00000   -0.20770    0.00000  # c1,c_1,o_2,ho2
dihedral_coeff	 9    0.00000    0.00000    2.20890    0.00000    0.00000    0.00000  # c1,o_2,c_1,o_1
dihedral_coeff	10   -0.02280    0.00000    0.02800    0.00000   -0.18630    0.00000  # c_1,c,c,hc
dihedral_coeff	11   -0.02280    0.00000    0.02800    0.00000   -0.18630    0.00000  # c_1,c1,c,hc
dihedral_coeff	12    0.00000    0.00000    0.00000    0.00000   -0.19320    0.00000  # c_1,c1,o_2,c_1
dihedral_coeff	13    0.00000    0.00000    0.00000    0.00000   -0.19320    0.00000  # c_1,o_2,c1,hc
dihedral_coeff	14   -0.14320    0.00000    0.06170    0.00000   -0.10830    0.00000  # hc,c,c,hc
dihedral_coeff	15   -0.14320    0.00000    0.06170    0.00000   -0.10830    0.00000  # hc,c,c1,hc
dihedral_coeff	16    0.00000    0.00000    0.00000    0.00000   -0.25000    0.00000  # hc,c,c1,o_2
dihedral_coeff	17   -0.18040    0.00000    0.00120    0.00000    0.03710    0.00000  # hc,c,c_1,o_1
dihedral_coeff	18   -0.63590    0.00000    1.48070    0.00000   -0.04380    0.00000  # hc,c,c_1,o_2
dihedral_coeff	19   -0.18040    0.00000    0.00120    0.00000    0.03710    0.00000  # hc,c1,c_1,o_1
dihedral_coeff	20   -0.63590    0.00000    1.48070    0.00000   -0.04380    0.00000  # hc,c1,c_1,o_2
dihedral_coeff	21    0.00000    0.00000    2.20890    0.00000    0.00000    0.00000  # ho2,o_2,c_1,o_1
dihedral_coeff	22    0.00000  180.00000    0.00000    0.00000    0.00000    0.00000  # o_1,c_1,c1,o_2
dihedral_coeff	23    0.00000  180.00000    0.00000    0.00000    0.00000    0.00000  # o_2,c1,c_1,o_2

# MiddleBondTorsion Coeffs

dihedral_coeff	 1 mbt    0.33880   -0.10960    0.12190    1.52020  # c,c,c_1,o_1
dihedral_coeff	 2 mbt  -17.32800   -5.79000   -3.21140    1.52020  # c,c,c_1,o_2
dihedral_coeff	 3 mbt    0.33880   -0.10960    0.12190    1.52020  # c,c1,c_1,o_1
dihedral_coeff	 4 mbt  -17.32800   -5.79000   -3.21140    1.52020  # c,c1,c_1,o_2
dihedral_coeff	 5 mbt   -5.43500    0.00000    0.00000    1.43000  # c,c1,o_2,c_1
dihedral_coeff	 6 mbt    1.34450    3.55150   -4.92020    1.36830  # c,c_1,o_2,c1
dihedral_coeff	 7 mbt    1.34450    3.55150   -4.92020    1.36830  # c1,c_1,o_2,c1
dihedral_coeff	 8 mbt    2.14520    0.54820   -2.36930    1.36830  # c1,c_1,o_2,ho2
dihedral_coeff	 9 mbt    4.26000    0.00000    0.00000    1.36830  # c1,o_2,c_1,o_1
dihedral_coeff	10 mbt   -3.50390    1.24580   -0.76100    1.53000  # c_1,c,c,hc
dihedral_coeff	11 mbt   -3.50390    1.24580   -0.76100    1.53000  # c_1,c1,c,hc
dihedral_coeff	12 mbt    0.00000    0.00000    0.00000    1.43000  # c_1,c1,o_2,c_1
dihedral_coeff	13 mbt    0.00000    0.00000    0.00000    1.43000  # c_1,o_2,c1,hc
dihedral_coeff	14 mbt  -14.26100   -0.53220   -0.48640    1.53000  # hc,c,c,hc
dihedral_coeff	15 mbt  -14.26100   -0.53220   -0.48640    1.53000  # hc,c,c1,hc
dihedral_coeff	16 mbt    0.00000    0.00000    0.00000    1.53000  # hc,c,c1,o_2
dihedral_coeff	17 mbt    0.23590    0.91390    0.95940    1.52020  # hc,c,c_1,o_1
dihedral_coeff	18 mbt  -13.76860   -2.59590    1.19340    1.52020  # hc,c,c_1,o_2
dihedral_coeff	19 mbt    0.23590    0.91390    0.95940    1.52020  # hc,c1,c_1,o_1
dihedral_coeff	20 mbt  -13.76860   -2.59590    1.19340    1.52020  # hc,c1,c_1,o_2
dihedral_coeff	21 mbt    4.26000    0.00000    0.00000    1.36830  # ho2,o_2,c_1,o_1
dihedral_coeff	22 mbt    0.00000    0.00000    0.00000    1.52020  # o_1,c_1,c1,o_2
dihedral_coeff	23 mbt    0.00000    0.00000    0.00000    1.52020  # o_2,c1,c_1,o_2

# EndBondTorsion Coeffs

dihedral_coeff	 1 ebt    0.26540    0.05030    0.10460   -0.28100    0.08160   -0.15220    1.53000    1.20200  # c,c,c_1,o_1
dihedral_coeff	 2 ebt    0.00000    0.00000    0.00000    0.00000    0.00000    0.00000    1.53000    1.36830  # c,c,c_1,o_2
dihedral_coeff	 3 ebt    0.26540    0.05030    0.10460   -0.28100    0.08160   -0.15220    1.53000    1.20200  # c,c1,c_1,o_1
dihedral_coeff	 4 ebt    0.00000    0.00000    0.00000    0.00000    0.00000    0.00000    1.53000    1.36830  # c,c1,c_1,o_2
dihedral_coeff	 5 ebt    0.00000    0.00000    0.00000    0.00000    0.00000    0.00000    1.53000    1.36830  # c,c1,o_2,c_1
dihedral_coeff	 6 ebt    0.00000    0.00000    0.00000    0.00000    0.00000    0.00000    1.52020    1.43000  # c,c_1,o_2,c1
dihedral_coeff	 7 ebt    0.00000    0.00000    0.00000    0.00000    0.00000    0.00000    1.52020    1.43000  # c1,c_1,o_2,c1
dihedral_coeff	 8 ebt    0.00000    0.00000    0.00000    0.00000    0.00000    0.00000    1.52020    0.95200  # c1,c_1,o_2,ho2
dihedral_coeff	 9 ebt    0.00000    0.00000    0.00000    0.00000    0.00000    0.00000    1.43000    1.20200  # c1,o_2,c_1,o_1
dihedral_coeff	10 ebt   -0.02040    0.36280   -0.44260   -0.00970   -0.03150   -0.07550    1.52020    1.10100  # c_1,c,c,hc
dihedral_coeff	11 ebt   -0.02040    0.36280   -0.44260   -0.00970   -0.03150   -0.07550    1.52020    1.10100  # c_1,c1,c,hc
dihedral_coeff	12 ebt    0.00000    0.00000    0.00000    0.00000    0.00000    0.00000    1.52020    1.36830  # c_1,c1,o_2,c_1
dihedral_coeff	13 ebt    0.00000    0.00000    0.00000    0.00000    0.00000    0.00000    1.36830    1.10100  # c_1,o_2,c1,hc
dihedral_coeff	14 ebt    0.21300    0.31200    0.07770    0.21300    0.31200    0.07770    1.10100    1.10100  # hc,c,c,hc
dihedral_coeff	15 ebt    0.21300    0.31200    0.07770    0.21300    0.31200    0.07770    1.10100    1.10100  # hc,c,c1,hc
dihedral_coeff	16 ebt    0.00000    0.00000    0.00000    0.00000    0.00000    0.00000    1.10100    1.43000  # hc,c,c1,o_2
dihedral_coeff	17 ebt    1.21430    0.28310    0.39160   -0.22980    0.03540    0.38530    1.10100    1.20200  # hc,c,c_1,o_1
dihedral_coeff	18 ebt    0.00000    0.00000    0.00000    0.00000    0.00000    0.00000    1.10100    1.36830  # hc,c,c_1,o_2
dihedral_coeff	19 ebt    1.21430    0.28310    0.39160   -0.22980    0.03540    0.38530    1.10100    1.20200  # hc,c1,c_1,o_1
dihedral_coeff	20 ebt    0.00000    0.00000    0.00000    0.00000    0.00000    0.00000    1.10100    1.36830  # hc,c1,c_1,o_2
dihedral_coeff	21 ebt    0.00000    0.00000    0.00000    0.00000    0.00000    0.00000    0.95200    1.20200  # ho2,o_2,c_1,o_1
dihedral_coeff	22 ebt    0.00000    0.00000    0.00000    0.00000    0.00000    0.00000    1.20200    1.43000  # o_1,c_1,c1,o_2
dihedral_coeff	23 ebt    0.00000    0.00000    0.00000    0.00000    0.00000    0.00000    1.43000    1.36830  # o_2,c1,c_1,o_2

# AngleTorsion Coeffs

dihedral_coeff	 1 at    0.08850   -1.37030   -0.54520    0.67500    0.59650    0.67250  108.52950  123.14510  # c,c,c_1,o_1
dihedral_coeff	 2 at    0.00000    0.00000    0.00000    0.00000    0.00000    0.00000  108.52950  100.31820  # c,c,c_1,o_2
dihedral_coeff	 3 at    0.08850   -1.37030   -0.54520    0.67500    0.59650    0.67250  108.52950  123.14510  # c,c1,c_1,o_1
dihedral_coeff	 4 at    0.00000    0.00000    0.00000    0.00000    0.00000    0.00000  108.52950  100.31820  # c,c1,c_1,o_2
dihedral_coeff	 5 at    0.00000    0.00000    0.00000    0.00000    0.00000    0.00000  107.41000  113.28800  # c,c1,o_2,c_1
dihedral_coeff	 6 at    0.00000    0.00000    0.00000    0.00000    0.00000    0.00000  100.31820  113.28800  # c,c_1,o_2,c1
dihedral_coeff	 7 at    0.00000    0.00000    0.00000    0.00000    0.00000    0.00000  100.31820  113.28800  # c1,c_1,o_2,c1
dihedral_coeff	 8 at    0.00000    0.00000    0.00000    0.00000    0.00000    0.00000  100.31820  112.87400  # c1,c_1,o_2,ho2
dihedral_coeff	 9 at    0.00000    0.00000    0.00000    0.00000    0.00000    0.00000  113.28800  120.79700  # c1,o_2,c_1,o_1
dihedral_coeff	10 at   -0.74660   -0.94480   -0.63210    0.01620    1.42110   -1.40920  108.52950  110.77000  # c_1,c,c,hc
dihedral_coeff	11 at   -0.74660   -0.94480   -0.63210    0.01620    1.42110   -1.40920  108.52950  110.77000  # c_1,c1,c,hc
dihedral_coeff	12 at    0.00000    0.00000    0.00000    0.00000    0.00000    0.00000  109.50000  113.28800  # c_1,c1,o_2,c_1
dihedral_coeff	13 at    0.00000    0.00000    0.00000    0.00000    0.00000    0.00000  113.28800  107.68800  # c_1,o_2,c1,hc
dihedral_coeff	14 at   -0.80850    0.55690   -0.24660   -0.80850    0.55690   -0.24660  110.77000  110.77000  # hc,c,c,hc
dihedral_coeff	15 at   -0.80850    0.55690   -0.24660   -0.80850    0.55690   -0.24660  110.77000  110.77000  # hc,c,c1,hc
dihedral_coeff	16 at    0.00000    0.00000    0.00000    0.00000    0.00000    0.00000  110.77000  107.41000  # hc,c,c1,o_2
dihedral_coeff	17 at    9.12990   -0.48470    0.35820   -1.49460    0.73080   -0.20830  107.73360  123.14510  # hc,c,c_1,o_1
dihedral_coeff	18 at    0.00000    0.00000    0.00000    0.00000    0.00000    0.00000  107.73360  100.31820  # hc,c,c_1,o_2
dihedral_coeff	19 at    9.12990   -0.48470    0.35820   -1.49460    0.73080   -0.20830  107.73360  123.14510  # hc,c1,c_1,o_1
dihedral_coeff	20 at    0.00000    0.00000    0.00000    0.00000    0.00000    0.00000  107.73360  100.31820  # hc,c1,c_1,o_2
dihedral_coeff	21 at    0.00000    0.00000    0.00000    0.00000    0.00000    0.00000  112.87400  120.79700  # ho2,o_2,c_1,o_1
dihedral_coeff	22 at    0.00000    0.00000    0.00000    0.00000    0.00000    0.00000  123.14510  109.50000  # o_1,c_1,c1,o_2
dihedral_coeff	23 at    0.00000    0.00000    0.00000    0.00000    0.00000    0.00000  109.50000  100.31820  # o_2,c1,c_1,o_2

# AngleAngleTorsion Coeffs

dihedral_coeff	 1 aat   -8.01900  108.52950  123.14510  # c,c,c_1,o_1
dihedral_coeff	 2 aat    0.00000  108.52950  100.31820  # c,c,c_1,o_2
dihedral_coeff	 3 aat   -8.01900  108.52950  123.14510  # c,c1,c_1,o_1
dihedral_coeff	 4 aat    0.00000  108.52950  100.31820  # c,c1,c_1,o_2
dihedral_coeff	 5 aat    0.00000  107.41000  113.28800  # c,c1,o_2,c_1
dihedral_coeff	 6 aat    0.00000  100.31820  113.28800  # c,c_1,o_2,c1
dihedral_coeff	 7 aat    0.00000  100.31820  113.28800  # c1,c_1,o_2,c1
dihedral_coeff	 8 aat    0.00000  100.31820  112.87400  # c1,c_1,o_2,ho2
dihedral_coeff	 9 aat    0.00000  113.28800  120.79700  # c1,o_2,c_1,o_1
dihedral_coeff	10 aat   -5.36240  108.52950  110.77000  # c_1,c,c,hc
dihedral_coeff	11 aat   -5.36240  108.52950  110.77000  # c_1,c1,c,hc
dihedral_coeff	12 aat    0.00000  109.50000  113.28800  # c_1,c1,o_2,c_1
dihedral_coeff	13 aat    0.00000  113.28800  107.68800  # c_1,o_2,c1,hc
dihedral_coeff	14 aat  -12.56400  110.77000  110.77000  # hc,c,c,hc
dihedral_coeff	15 aat  -12.56400  110.77000  110.77000  # hc,c,c1,hc
dihedral_coeff	16 aat    0.00000  110.77000  107.41000  # hc,c,c1,o_2
dihedral_coeff	17 aat  -15.34960  107.73360  123.14510  # hc,c,c_1,o_1
dihedral_coeff	18 aat    0.00000  107.73360  100.31820  # hc,c,c_1,o_2
dihedral_coeff	19 aat  -15.34960  107.73360  123.14510  # hc,c1,c_1,o_1
dihedral_coeff	20 aat    0.00000  107.73360  100.31820  # hc,c1,c_1,o_2
dihedral_coeff	21 aat    0.00000  112.87400  120.79700  # ho2,o_2,c_1,o_1
dihedral_coeff	22 aat    0.00000  123.14510  109.50000  # o_1,c_1,c1,o_2
dihedral_coeff	23 aat    0.00000  109.50000  100.31820  # o_2,c1,c_1,o_2

# BondBond13 Coeffs

dihedral_coeff	 1 bb13    0.00000    1.53000    1.20200  # c,c,c_1,o_1
dihedral_coeff	 2 bb13    0.00000    1.53000    1.36830  # c,c,c_1,o_2
dihedral_coeff	 3 bb13    0.00000    1.53000    1.20200  # c,c1,c_1,o_1
dihedral_coeff	 4 bb13    0.00000    1.53000    1.36830  # c,c1,c_1,o_2
dihedral_coeff	 5 bb13    0.00000    1.53000    1.36830  # c,c1,o_2,c_1
dihedral_coeff	 6 bb13    0.00000    1.52020    1.43000  # c,c_1,o_2,c1
dihedral_coeff	 7 bb13    0.00000    1.52020    1.43000  # c1,c_1,o_2,c1
dihedral_coeff	 8 bb13    0.00000    1.52020    0.95200  # c1,c_1,o_2,ho2
dihedral_coeff	 9 bb13    0.00000    1.43000    1.20200  # c1,o_2,c_1,o_1
dihedral_coeff	10 bb13    0.00000    1.52020    1.10100  # c_1,c,c,hc
dihedral_coeff	11 bb13    0.00000    1.52020    1.10100  # c_1,c1,c,hc
dihedral_coeff	12 bb13    0.00000    1.52020    1.36830  # c_1,c1,o_2,c_1
dihedral_coeff	13 bb13    0.00000    1.36830    1.10100  # c_1,o_2,c1,hc
dihedral_coeff	14 bb13    0.00000    1.10100    1.10100  # hc,c,c,hc
dihedral_coeff	15 bb13    0.00000    1.10100    1.10100  # hc,c,c1,hc
dihedral_coeff	16 bb13    0.00000    1.10100    1.43000  # hc,c,c1,o_2
dihedral_coeff	17 bb13    0.00000    1.10100    1.20200  # hc,c,c_1,o_1
dihedral_coeff	18 bb13    0.00000    1.10100    1.36830  # hc,c,c_1,o_2
dihedral_coeff	19 bb13    0.00000    1.10100    1.20200  # hc,c1,c_1,o_1
dihedral_coeff	20 bb13    0.00000    1.10100    1.36830  # hc,c1,c_1,o_2
dihedral_coeff	21 bb13    0.00000    0.95200    1.20200  # ho2,o_2,c_1,o_1
dihedral_coeff	22 bb13    0.00000    1.20200    1.43000  # o_1,c_1,c1,o_2
dihedral_coeff	23 bb13    0.00000    1.43000    1.36830  # o_2,c1,c_1,o_2

# Improper Coeffs

improper_coeff	 1    0.00000    0.00000  # c,c,hc,c_1
improper_coeff	 2    0.00000    0.00000  # c,c,hc,hc
improper_coeff	 3    0.00000    0.00000  # c,c1,hc,hc
improper_coeff	 4    0.00000    0.00000  # c,c_1,hc,hc
improper_coeff	 5    0.00000    0.00000  # c,hc,hc,hc
improper_coeff	 6    0.00000    0.00000  # c1,c,hc,c_1
improper_coeff	 7    0.00000    0.00000  # c1,c,hc,o_2
improper_coeff	 8    0.00000    0.00000  # c1,c,o_2,c_1
improper_coeff	 9    0.00000    0.00000  # c1,c_1,hc,o_2
improper_coeff	10   46.92640    0.00000  # c_1,c,o_2,o_1
improper_coeff	11   46.92640    0.00000  # c_1,c1,o_2,o_1

# AngleAngle Coeffs

improper_coeff	 1 aa    1.08270   -1.82020    2.04030  110.77000  108.52950  107.73360  # c,c,hc,c_1
improper_coeff	 2 aa    0.27380   -0.48250    0.27380  110.77000  110.77000  107.66000  # c,c,hc,hc
improper_coeff	 3 aa    0.27380   -0.48250    0.27380  110.77000  110.77000  107.66000  # c,c1,hc,hc
improper_coeff	 4 aa   -3.38670   -3.49760   -3.38670  107.73360  107.73360  107.66000  # c,c_1,hc,hc
improper_coeff	 5 aa   -0.31570   -0.31570   -0.31570  107.66000  107.66000  107.66000  # c,hc,hc,hc
improper_coeff	 6 aa    1.08270   -1.82020    2.04030  110.77000  108.52950  107.73360  # c1,c,hc,c_1
improper_coeff	 7 aa    0.00000    0.00000    0.00000  110.77000  107.41000  107.68800  # c1,c,hc,o_2
improper_coeff	 8 aa    0.00000    0.00000    0.00000  107.41000  108.52950  109.50000  # c1,c,o_2,c_1
improper_coeff	 9 aa    0.00000    0.00000    0.00000  107.73360  109.50000  107.68800  # c1,c_1,hc,o_2
improper_coeff	10 aa    0.00000    0.00000    0.00000  100.31820  123.14510  120.79700  # c_1,c,o_2,o_1
improper_coeff	11 aa    0.00000    0.00000    0.00000  100.31820  123.14510  120.79700  # c_1,c1,o_2,o_1


# --- Thermo Output ---
thermo_style custom step time temp press enthalpy etotal ke pe ebond eangle edihed eimp evdwl ecoul vol lx ly lz density pxx pyy pzz
thermo_modify flush yes
thermo 1000

# --- Trajectory ---
dump dump_comp all custom 2000 npt_compress.dump id type mol x y z ix iy iz vx vy vz

restart 10000 compress_1.rst compress_2.rst
velocity all create 600.0 187537 mom yes rot yes dist gaussian
# SHAKE disabled

# --- NPT Compression ---
# High pressure compresses the cell from low to target density
# P ramp: 1.0 -> 50000.0 atm
timestep 0.5
fix npt_comp all npt temp 700.0 700.0 100.0 iso 1.0 50000.0 1000.0

run 300000
Generated 21 of 21 mixed pair_coeff terms from sixthpower/sixthpower mixing rule
Neighbor list info ...
  update: every = 1 steps, delay = 0 steps, check = yes
  max neighbors/atom: 4000, page size: 100000
  master list distance cutoff = 11.5
  ghost atom cutoff = 11.5
  binsize = 11.5, bins = 4 4 4
  1 neighbor lists, perpetual/occasional/extra = 1 0 0
  (1) pair lj/class2/coul/cut/kk, perpetual
      attributes: full, newton off, kokkos_device
      pair build: full/bin/kk/device
      stencil: full/bin/3d
      bin: kk/device
Per MPI rank memory allocation (min/avg/max) = 20.91 | 20.91 | 20.91 Mbytes
   Step          Time           Temp          Press         Enthalpy        TotEng         KinEng         PotEng         E_bond        E_angle        E_dihed        E_impro         E_vdwl         E_coul         Volume           Lx             Ly             Lz          Density          Pxx            Pyy            Pzz      
         0   0              600           -432.06062      27144.868      27743.64       8082.1684      19661.471      4184.2972      6107.8717     -3441.2249      368.37802     -781.98393      13224.133      95025.593      45.633123      45.633123      45.633123      0.62999999    -342.84736     -677.13852     -276.19597    
      1000   500            699.48609      426.59314      29329.925      28749.801      9422.274       19327.527      4266.5282      6062.9923     -3418.5463      353.0806      -854.32316      12917.795      93246.249      45.346502      45.346502      45.346502      0.64202178     438.75382     -380.89807      1221.9237    
      2000   1000           713.31398      104.69116      28648.81       28510.728      9608.5395      18902.188      4130.7014      6033.0226     -3440.6863      327.49022     -774.95193      12626.612      90438.314      44.88668       44.88668       44.88668       0.66195531    -307.28989      1174.7613     -553.39792    
      3000   1500           696.67229     -164.11639      30003.411      30212.01       9384.3713      20827.639      4236.2616      6175.4401     -3375.2439      348.45922     -953.65571      14396.377      87153.404      44.336505      44.336505      44.336505      0.68690515     203.16792      238.86615     -934.38324    
      4000   2000           708.05678      179.4502       30972.892      30753.752      9537.7235      21216.028      4176.2914      5985.9197     -3320.6161      334.6208      -853.02102      14892.834      83733.975      43.74891       43.74891       43.74891       0.71495617     1074.8738     -426.72527     -109.79796    
      5000   2500           697.9995       1154.2303      30181.767      28821.539      9402.2491      19419.289      4088.6773      5938.1441     -3320.2814      325.12138     -877.54478      13265.173      80805.982      43.232913      43.232913      43.232913      0.74086251     1388.0633      1111.0959      963.5318     
      6000   3000           691.78737      263.85905      30196.334      29898.005      9318.57        20579.435      4092.1092      5867.2528     -3261.3473      398.16911     -984.23825      14467.49       77526.016      42.639865      42.639865      42.639865      0.77220687     1114.6138     -1075.4678      752.43119    
      7000   3500           702.95809      707.38104      29270.328      28506.407      9469.0428      19037.364      4214.8263      6019.3712     -3344.4124      334.73502     -978.21901      12791.063      74049.083      41.992645      41.992645      41.992645      0.80846541     1117.8325      3068.3736     -2064.0629    
      8000   4000           717.01364      1105.7562      31699.874      30548.229      9658.3749      20889.854      4091.0697      5974.0519     -3263.3799      311.59233     -1055.0901      14831.61       71414.044      41.488514      41.488514      41.488514      0.83829621     903.93618      469.45571      1943.8767    
      9000   4500           699.19638      899.3848       29356.558      28452.541      9418.3715      19034.169      4235.5471      6040.9291     -3380.4196      346.90408     -1181.1929      12972.401      68921.61       41.000121      41.000121      41.000121      0.86861178     2231.8612      209.36602      256.92717    
     10000   5000           685.07248      120.95421      27998.655      27882.291      9228.1185      18654.173      4060.6022      5937.2706     -3290.0326      361.47026     -1151.3477      12736.21       65966.162      40.405493      40.405493      40.405493      0.90752774    -298.83662      734.73221     -73.032973    
     11000   5500           695.34565      808.87603      30673.621      29923.398      9366.501       20556.897      4012.7017      6014.3625     -3199.7623      323.01866     -1195.901       14602.477      63596.372      39.915733      39.915733      39.915733      0.94134493     1265.4156      1529.4441     -368.23154    
     12000   6000           704.54397      1371.3119      31023.22       29795.53       9490.405       20305.125      4144.0085      5950.7225     -3219.1381      354.82721     -1302.1329      14376.838      61387.035      39.448051      39.448051      39.448051      0.9752242      1512.2561      608.36448      1993.3151    
     13000   6500           692.32813      1926.8544      31055.07       29363.921      9325.8542      20038.067      4043.3482      5961.421      -3266.1044      351.91274     -1273.9529      14221.442      60180.683      39.187934      39.187934      39.187934      0.99477307     2698.1514      2633.8655      448.54644    
     14000   7000           711.08682      1422.3393      30479.408      29268.223      9578.539       19689.684      3976.0725      6043.3669     -3170.9464      355.20153     -1426.6666      13912.656      58389.047      38.795123      38.795123      38.795123      1.0252971      2038.3313      1444.3628      784.32365    
     15000   7500           686.57066      2096.6166      30305.058      28565.123      9248.2994      19316.823      4163.9174      6047.0743     -3206.8447      394.77623     -1513.9692      13431.869      56903.411      38.463261      38.463261      38.463261      1.0520656      1954.732       1907.9693      2427.1484    
     16000   8000           698.7419       713.18148      28194.28       27610.32       9412.2495      18198.07       4048.5835      5850.4604     -3165.783       341.19553     -1504.1346      12627.749      56144.5        38.291502      38.291502      38.291502      1.0662865      1737.8235      1071.5291     -669.80816    
     17000   8500           699.89722      4317.0567      32428.813      28990.39       9427.8119      19562.578      4162.1832      5867.0098     -3148.0697      354.47725     -1516.3548      13843.333      54612.946      37.940105      37.940105      37.940105      1.0961892      3253.8962      8453.1612      1244.1126    
     18000   9000           694.16127      3329.6621      30661.981      28057.149      9350.5471      18706.602      3989.2807      5873.4801     -3220.7067      320.7662      -1612.1563      13355.938      53641.843      37.713881      37.713881      37.713881      1.116034       3111.1981      4286.8004      2590.9878    
     19000   9500           715.09865      2274.304       29222.306      27464.104      9632.5795      17831.524      4033.7757      6073.7145     -3144.3623      357.51452     -1551.8623      12062.744      53008.358      37.564832      37.564832      37.564832      1.1293714      3077.0293      4753.6869     -1007.8043    
     20000   10000          702.32385      1749.6827      29141.786      27792.683      9460.4993      18332.184      3910.9623      6087.8309     -3092.1803      341.5452      -1740.2577      12824.284      52870.046      37.532132      37.532132      37.532132      1.1323259      4888.794       2134.1945     -1773.9404    
     21000   10500          699.41476      3789.8296      31889.072      29001.844      9421.3131      19580.531      3996.5439      5882.3862     -3147.7492      367.08479     -1566.8532      14049.119      52237.872      37.381939      37.381939      37.381939      1.1460291      3272.8276      5038.5119      3058.1495    
     22000   11000          703.01551      4897.9904      29783.867      26084.882      9469.8162      16615.066      4000.3827      5955.9264     -3180.2803      337.60875     -1559.2463      11060.675      51783.183      37.273163      37.273163      37.273163      1.156092       2215.3486      6584.3054      5894.3173    
     23000   11500          712.38714      3285.6283      30097.115      27610.214      9596.0546      18014.159      4133.6953      5845.5713     -3064.7054      327.18302     -1729.6638      12502.079      51899.624      37.30108       37.30108       37.30108       1.1534982      3787.0402      5862.6583      207.18633    
     24000   12000          692.92335      4036.2612      31928.249      28930.17       9333.872       19596.298      4186.8901      5984.2444     -3068.2648      356.327       -1779.1668      13916.268      50931.668      37.067728      37.067728      37.067728      1.1754204      5959.4574      1431.2591      4718.0671    
     25000   12500          698.22332      4557.2761      31932.691      28565.567      9405.264       19160.303      4003.7615      5952.6407     -3091.9175      325.46203     -1686.1252      13656.481      50661.491      37.002067      37.002067      37.002067      1.1816889      4616.1822      4762.5919      4293.0541    
     26000   13000          689.13062      2940.3655      29620.314      27462.877      9282.7828      18180.095      4023.4268      6026.7638     -3117.4191      341.30702     -1905.0925      12811.109      50310.748      36.916478      36.916478      36.916478      1.1899271      5322.4455      2541.0098      957.64114    
     27000   13500          693.75941      4775.8433      30382.361      26874.734      9345.134       17529.6        3967.9859      5913.2647     -3094.6481      364.02361     -1745.103       12124.077      50360.199      36.928569      36.928569      36.928569      1.1887586      3831.3643      5070.7613      5425.4043    
     28000   14000          702.59781      3898.5323      29987.304      27144.577      9464.1897      17680.387      3957.6953      6013.8252     -3110.237       389.50585     -1816.6465      12246.244      49998.639      36.839981      36.839981      36.839981      1.197355       4068.8921      5418.393       2208.3117    
     29000   14500          711.49766      4907.9092      31690.258      28142.158      9584.0732      18558.085      4093.3202      5999.0586     -3107.2939      330.35123     -1933.6777      13176.326      49570.515      36.734529      36.734529      36.734529      1.2076962      5498.0661      4973.4346      4252.227     
     30000   15000          694.50147      5092.226       31782.458      28104.369      9355.1296      18749.239      4011.9485      5941.6117     -3090.6781      340.56847     -1735.6171      13281.406      49526.622      36.723684      36.723684      36.723684      1.2087665      5292.0638      3223.7897      6760.8246    
     31000   15500          707.663        5798.5916      31992.698      27848.536      9532.4192      18316.117      3929.9253      5841.9755     -3069.8895      361.6205      -1873.5201      13126.005      49004.77       36.594244      36.594244      36.594244      1.2216387      6619.1284      7474.8716      3301.7746    
     32000   16000          684.74055      7712.929       32946.53       27404.601      9223.6473      18180.953      4049.2622      6018.5843     -3124.6448      322.95952     -1814.0474      12728.84       49268.09       36.659672      36.659672      36.659672      1.2151095      8433.7552      6519.9326      8185.0992    
     33000   16500          695.38023      8280.8921      32976          27113.749      9366.9669      17746.782      4044.2238      5967.8421     -3075.1703      356.46339     -1793.3373      12246.76       48541.298      36.478513      36.478513      36.478513      1.2333029      9036.4219      8307.8842      7498.3702    
     34000   17000          716.07277      4577.3988      32125.207      28880.514      9645.7011      19234.813      4091.5015      5979.6055     -3059.1671      343.45753     -1923.8233      13803.239      48604.789      36.494411      36.494411      36.494411      1.2316918      4066.7015      5029.2799      4636.215     
     35000   17500          695.65192      7087.2277      32185.032      27166.239      9370.6266      17795.612      4114.6743      6086.0222     -2991.7751      346.56678     -1768.1258      12008.25       48556.461      36.482311      36.482311      36.482311      1.2329177      7810.8157      7900.6493      5550.2181    
     36000   18000          711.95656      5043.8465      31549.978      27995.412      9590.2547      18405.158      3915.2917      5853.9019     -2950.2605      319.89216     -1900.207       13166.539      48322.431      36.423605      36.423605      36.423605      1.2388889      7315.9805      4629.9025      3185.6566    
     37000   18500          702.90677      7188.801       32264.79       27206.232      9468.3514      17737.881      3947.5684      5839.8953     -2949.4325      368.19786     -1859.9103      12391.562      48249.674      36.405315      36.405315      36.405315      1.240757       7406.8072      6475.4489      7684.147     
     38000   19000          697.26416      5884.1429      31305.701      27159.081      9392.344       17766.737      4178.9251      5835.5752     -3104.1398      376.48279     -1846.2991      12326.193      48320.918      36.423225      36.423225      36.423225      1.2389277      4867.7392      7243.3877      5541.3017    
     39000   19500          698.69983      5844.9215      31328.371      27230.254      9411.6828      17818.571      3866.5125      5940.7096     -2978.8457      347.43712     -1939.1799      12581.938      48076.164      36.361624      36.361624      36.361624      1.245235       4804.4118      5494.3606      7235.9922    
     40000   20000          684.12054      6537.0752      31414.015      26856.03       9215.2956      17640.735      4057.9634      5912.4452     -3038.0805      355.21785     -1825.8506      12179.039      47809.419      36.29425       36.29425       36.29425       1.2521826      7882.9687      7619.2351      4109.0217    
     41000   20500          696.16896      6493.3965      32395.616      27879.108      9377.5912      18501.517      3958.0862      6109.1723     -3078.7253      362.77877     -1870.4397      13020.644      47693.036      36.264775      36.264775      36.264775      1.2552382      6205.752       5602.1114      7672.326     
     42000   21000          694.85723      2873.8181      28377.163      26384.275      9359.9218      17024.353      4167.89        5897.1287     -2968.4654      350.45872     -1904.1943      11481.535      47549.688      36.228406      36.228406      36.228406      1.2590224      6040.1747      2247.9171      333.36236    
     43000   21500          702.39231      9187.8614      34506.164      28154.94       9461.4215      18693.518      3926.4139      6119.9082     -3024.1612      357.10244     -1921.0889      13235.344      47398.777      36.190038      36.190038      36.190038      1.263031       10593.41       6446.592       10523.582    
     44000   22000          709.19776      9453.8935      35721.774      29275.255      9553.0928      19722.163      3913.3534      5933.9456     -3020.2661      338.22214     -1917.7682      14474.676      46756.14       36.025738      36.025738      36.025738      1.2803906      10006.47       8580.9218      9774.2891    
     45000   22500          689.81519      5933.0512      31927.073      27814.308      9292.0042      18522.304      4017.3217      5936.4455     -3017.8999      379.18339     -1983.2852      13190.538      47531.325      36.223742      36.223742      36.223742      1.2595088      3832.2989      7071.1165      6895.7383    
     46000   23000          690.78305      8497.5532      34115.203      28273.565      9305.0415      18968.524      4031.7637      5819.3641     -3036.7903      341.65296     -1808.6132      13621.147      47137.318      36.123372      36.123372      36.123372      1.2700367      7505.3606      9134.5743      8852.7248    
     47000   23500          688.05552      8737.0023      33970.756      27983.19       9268.301       18714.889      4071.0186      5904.6938     -3035.2161      377.08252     -1876.8605      13274.171      46990.703      36.085881      36.085881      36.085881      1.2739993      10358.042      7783.0927      8069.8726    
     48000   24000          701.54752      8288.095       32230.6        26547.534      9450.0419      17097.492      3845.885       5833.1266     -3067.0128      316.76798     -1887.3221      12056.047      47016.697      36.092534      36.092534      36.092534      1.273295       7951.7271      7953.563       8958.995     
     49000   24500          694.94182      6844.6383      32054.927      27423.256      9361.0613      18062.195      3932.9597      5839.0583     -3019.2313      346.90064     -1827.7474      12790.255      46399.283      35.93385       35.93385       35.93385       1.2902381      6292.8417      5908.7107      8332.3625    
     50000   25000          694.63565      9056.7166      34406.031      28236.134      9356.9372      18879.196      4061.5115      5933.8927     -3108.969       355.60907     -1907.5056      13544.658      46712.299      36.014475      36.014475      36.014475      1.2815923      9172.0996      11135.796      6862.254     
     51000   25500          719.70717      7880.6591      33847.811      28471.765      9694.6576      18777.107      4163.1115      6104.4079     -3108.7575      355.01565     -1966.8358      13230.165      46776.163      36.03088       36.03088       36.03088       1.2798425      8623.1816      9200.7013      5818.0944    
     52000   26000          705.99362      9542.8793      36065.332      29601.929      9509.9321      20091.997      3942.884       5883.7813     -3048.9861      342.89479     -1965.5808      14937.004      46441.467      35.944737      35.944737      35.944737      1.2890661      7867.431       10170.745      10590.462    
     53000   26500          696.39554      10404.14       35891.159      28846.863      9380.6434      19466.219      4070.0249      6057.2013     -3030.4505      340.7088      -1939.089       13967.824      46425.391      35.940589      35.940589      35.940589      1.2895125      7277.5255      8356.4016      15578.492    
     54000   27000          700.03761      10883.255      37141.161      29769.37       9429.7031      20339.667      3993.4159      6021.8344     -3029.6118      326.92809     -1896.7758      14923.876      46444.925      35.945629      35.945629      35.945629      1.2889702      12324.766      10168.106      10156.894    
     55000   27500          696.57105      10826.581      36132.502      28778.741      9383.0075      19395.733      3892.3177      5966.0437     -3020.2543      383.01724     -1924.0848      14098.694      46573.871      35.978864      35.978864      35.978864      1.2854015      12391.1        11396.018      8692.625     
     56000   28000          707.21457      8356.3306      32923.241      27302.345      9526.3787      17775.966      3949.4139      5942.1087     -2946.5746      324.67072     -2031.0786      12537.426      46122.634      35.862291      35.862291      35.862291      1.2979771      9618.5931      7769.7129      7680.6857    
     57000   28500          713.65064      10213.358      37255.263      30401.745      9613.0744      20788.67       3969.4936      5986.2578     -2848.462       363.23158     -1978.9571      15297.106      46011.793      35.83354       35.83354       35.83354       1.3011039      10006.877      9103.562       11529.635    
     58000   29000          708.86994      11439.101      37563.985      29904.089      9548.6769      20355.412      3889.2837      5970.3074     -2944.7536      355.02003     -1887.2985      14972.853      45915.053      35.808409      35.808409      35.808409      1.3038452      10452.509      11640.71       12224.084    
     59000   29500          705.04397      10215.813      34725.537      27874.994      9497.1402      18377.853      4051.0856      5992.1806     -3018.0674      381.46999     -1877.1618      12848.346      45980.763      35.825483      35.825483      35.825483      1.3019819      10323.161      8273.2626      12051.015    
     60000   30000          718.77108      9940.2066      34733.616      28074.545      9682.0481      18392.497      3829.318       5911.3912     -2930.4367      339.56711     -1944.7321      13187.389      45934.85       35.813555      35.813555      35.813555      1.3032833      9854.4327      10520.51       9445.6768    
     61000   30500          687.01004      9701.9261      34512.635      28033.49       9254.218       18779.272      3956.0254      5874.4952     -2910.4323      350.34459     -1801.0044      13309.844      45791.393      35.776234      35.776234      35.776234      1.3073663      11359.077      9182.9554      8563.7455    
     62000   31000          700.44434      9305.0381      32962.732      26766.179      9435.1818      17330.997      4004.9407      5959.4651     -3018.7176      324.73064     -1880.8532      11941.432      45662.124      35.742536      35.742536      35.742536      1.3110674      7519.6302      11015.149      9380.3352    
     63000   31500          699.53341      9715.5239      35318.298      28812.54       9422.9113      19389.629      3936.3652      5758.4742     -2866.383       348.83692     -1904.3952      14116.731      45915.124      35.808428      35.808428      35.808428      1.3038432      11115.39       7932.3963      10098.785    
     64000   32000          714.75759      10651.903      36318.721      29213.471      9627.9853      19585.486      4035.366       6018.5643     -2970.8437      355.07852     -1810.6953      13958.016      45737.9        35.762297      35.762297      35.762297      1.3088953      11732.501      10740.531      9482.6774    
     65000   32500          697.38441      9661.4811      35383.585      28982.501      9393.9637      19588.537      4017.8377      5904.4934     -2949.2289      336.5939      -1938.7948      14217.636      45429.082      35.681627      35.681627      35.681627      1.3177929      6593.8292      9575.1159      12815.498    
     66000   33000          711.78062      11224.681      35481.186      28015.124      9587.8847      18427.239      3932.7678      5865.559      -2997.8954      347.30089     -2001.0677      13280.574      45608.073      35.728428      35.728428      35.728428      1.3126212      12919.941      9331.532       11422.57     
     67000   33500          702.31899      13563.88       38214.614      29251.859      9460.4338      19791.425      3942.2572      6075.6185     -3037.5316      375.43729     -1924.5341      14360.178      45308.71       35.650085      35.650085      35.650085      1.3212939      14502.152      13207.734      12981.753    
     68000   34000          707.84775      12507.075      36714.229      28450.965      9534.9078      18916.057      4062.7103      5935.2134     -2967.3821      311.85306     -1883.7791      13457.442      45302.273      35.648396      35.648396      35.648396      1.3214817      13372.058      11122.359      13026.809    
     69000   34500          695.73764      12063.131      37390.413      29455.94       9371.7812      20084.159      3990.3906      5984.091      -2938.8447      330.76986     -1904.2353      14621.988      45100.578      35.595413      35.595413      35.595413      1.3273915      13523.461      10629.405      12036.528    
     70000   35000          697.09592      10937.645      36091.76       28878.607      9390.0776      19488.529      3770.9948      6094.3672     -2823.5646      371.25641     -1981.1524      14056.628      45219.468      35.626663      35.626663      35.626663      1.3239015      11170.388      13703.394      7939.1528    
     71000   35500          691.27119      12602.552      37080.741      28870.921      9311.6169      19559.304      3982.4833      5923.2381     -2920.284       364.7043      -1851.5578      14060.72       44668.285      35.481319      35.481319      35.481319      1.3402378      13452.611      12598.03       11757.013    
     72000   36000          691.60409      10944.546      34355.73       27172.876      9316.1012      17856.775      3908.8083      5861.085      -2958.2654      325.07247     -1924.553       12644.627      45001.13       35.569231      35.569231      35.569231      1.3303249      9282.2885      14023.747      9527.6026    
     73000   36500          694.94633      11445.806      34690.506      27219.594      9361.1221      17858.472      3902.5697      5878.8565     -2953.7263      365.90237     -1789.0336      12453.903      44756.006      35.504531      35.504531      35.504531      1.3376109      8871.0333      12203.405      13262.98     
     74000   37000          701.32147      12476.829      36059.507      27946.98       9446.997       18499.983      3927.2577      5993.5705     -2934.1825      339.7939      -1963.4068      13136.95       44583.692      35.458907      35.458907      35.458907      1.3427807      13712.265      14280.349      9437.8745    
     75000   37500          696.65415      11782.112      36600.879      28915.376      9384.127       19531.249      3934.9818      5980.8626     -2856.2836      354.66837     -1881.2608      13998.28       44727.362      35.496954      35.496954      35.496954      1.3384676      12528.536      11169.038      11648.764    
     76000   38000          703.12296      14631.911      37941.392      28505.334      9471.2636      19034.07       3833.5318      5938.5525     -3023.5381      326.34283     -1825.0774      13784.259      44219.482      35.362087      35.362087      35.362087      1.3538404      14434.818      14433.102      15027.813    
     77000   38500          686.89337      11632.866      36330.922      28744.37       9252.6465      19491.724      3864.9483      5862.5334     -2898.5744      318.72351     -1996.454       14340.547      44717.943      35.494463      35.494463      35.494463      1.3387495      10941.453      12858.583      11098.564    
     78000   39000          699.50402      12848.748      36870.688      28546.479      9422.5154      19123.964      3897.4604      5912.1014     -3015.1942      341.84818     -1894.6059      13882.354      44422.833      35.41621       35.41621       35.41621       1.3476431      9444.2184      17475.551      11626.473    
     79000   39500          700.15518      12291.593      36882.699      28943.347      9431.2868      19512.06       4020.6211      5955.9708     -2889.2383      385.65553     -1923.5375      13962.589      44289.523      35.380747      35.380747      35.380747      1.3516994      10304.819      11354.693      15215.268    
     80000   40000          700.29578      12573.406      36027.763      27872.068      9433.1807      18438.888      3978.2103      5963.5179     -2923.3546      352.42121     -1822.4886      12890.581      44476.654      35.430507      35.430507      35.430507      1.3460123      15625.668      11479.981      10614.568    
     81000   40500          700.60675      12687.713      36527.298      28335.614      9437.3695      18898.244      3904.9087      5840.624      -2839.2393      328.26074     -1887.1303      13550.821      44270.451      35.375668      35.375668      35.375668      1.3522817      12860.215      12269.492      12933.433    
     82000   41000          717.08168      13366.087      37626.754      28971.053      9659.2915      19311.761      3919.7354      5904.5357     -2890.9535      358.7085      -2013.1293      14032.865      44403.996      35.411203      35.411203      35.411203      1.3482147      13469.524      12985.382      13643.355    
     83000   41500          695.77903      12113.427      35720.3        27960.86       9372.3388      18588.521      3901.9129      5673.5949     -2887.2159      350.5984      -1850.8892      13400.52       43922.542      35.282755      35.282755      35.282755      1.3629931      13090.139      12759.813      10490.33     
     84000   42000          712.82143      15219.351      38504.816      28634.307      9601.9047      19032.403      4032.1966      5754.3344     -2999.819       322.02984     -1875.7243      13799.385      44470.039      35.428751      35.428751      35.428751      1.3462125      14649.884      12925.461      18082.708    
     85000   42500          689.55341      17674.155      39817.104      28571.646      9288.478       19283.168      3883.2838      5969.1397     -2892.4282      334.99685     -1857.072       13845.248      43627.729      35.203637      35.203637      35.203637      1.3722035      18998.829      16768.901      17254.735    
     86000   43000          708.20771      12492.137      35975.69       27910.856      9539.7566      18371.099      3769.6325      5840.1141     -2917.1983      347.72056     -1976.6629      13307.493      44267.277      35.374823      35.374823      35.374823      1.3523787      8515.2675      14334.545      14626.598    
     87000   43500          705.93463      16179.299      38751.668      28395.835      9509.1376      18886.697      4002.9938      6021.2284     -2923.363       349.85718     -1903.2441      13339.225      43888.372      35.273603      35.273603      35.273603      1.3640543      15172.383      17070.486      16295.028    
     88000   44000          718.74505      16733.977      40212.636      29537.148      9681.6975      19855.451      4029.9394      5784.951      -2920.9373      378.47112     -1763.897       14346.924      43743.414      35.234726      35.234726      35.234726      1.3685745      17031.671      17934.964      15235.296    
     89000   44500          711.92533      15011.22       38986.495      29310.498      9589.834       19720.664      3888.2149      5877.1729     -2916.0783      353.19741     -1811.6764      14329.833      44198.127      35.356393      35.356393      35.356393      1.3544946      15200.249      15885.487      13947.923    
     90000   45000          700.44099      16345.089      38872.031      28390.203      9435.1367      18955.067      3897.1935      5795.3772     -2898.0558      393.27761     -1775.8817      13543.156      43971.759      35.295929      35.295929      35.295929      1.3614675      14945.337      16296.072      17793.858    
     91000   45500          695.82906      16215.029      38000.139      27670.778      9373.0127      18297.766      3787.2613      5862.7597     -2951.5701      334.95659     -1847.7623      13112.12       43679.716      35.217614      35.217614      35.217614      1.3705703      15704.391      17287.357      15653.341    
     92000   46000          680.62457      11613.716      34921.276      27489.701      9168.204       18321.497      4015.6973      5882.4278     -2954.325       336.52053     -1909.0013      12950.177      43876.685      35.270472      35.270472      35.270472      1.3644176      11595.901      12864.193      10381.054    
     93000   46500          706.51787      18464.922      40766.067      29074.385      9516.994       19557.391      3903.3783      6031.8434     -3039.1968      368.21648     -1879.476       14172.626      43416.381      35.146699      35.146699      35.146699      1.3788833      15332.669      19320.304      20741.794    
     94000   47000          690.15254      13103.238      37099.221      28773.273      9296.5483      19476.724      4025.1872      6010.8049     -2921.6994      378.78887     -1887.2106      13870.853      43569.158      35.187876      35.187876      35.187876      1.3740482      10390.115      13480.531      15439.068    
     95000   47500          709.4154       13802.41       38062.42       29334.9        9556.0245      19778.875      3868.2756      5846.7009     -2837.683       364.53288     -1860.006       14397.055      43357.081      35.13069       35.13069       35.13069       1.3807692      13974.467      13473.562      13959.202    
     96000   48000          706.80762      14970.639      37895.632      28414.683      9520.8969      18893.786      3909.1584      5860.8507     -2901.7403      312.1944      -1891.0069      13604.33       43424.575      35.14891       35.14891       35.14891       1.3786231      13098.086      16059.683      15754.149    
     97000   48500          693.14663      16466.3        39080.159      28677.751      9336.8796      19340.871      3784.2838      5898.3935     -2907.2743      345.95922     -1795.6211      14015.13       43317.359      35.119958      35.119958      35.119958      1.3820354      17728.66       14488.481      17181.759    
     98000   49000          676.77551      17848.237      39790.08       28557.121      9116.356       19440.765      3764.5387      5812.7599     -2846.2815      362.27176     -1778.0862      14125.562      43154.188      35.075805      35.075805      35.075805      1.387261       16061.604      16715.388      20767.718    
     99000   49500          705.63334      18091.729      40829.436      29435.084      9505.0791      19930.005      3873.5112      5975.4388     -2923.7918      345.11362     -1834.1567      14493.89       43185.073      35.084171      35.084171      35.084171      1.3862689      19233.92       16596.866      18444.402    
    100000   50000          703.57663      16975.706      41049.009      30352.854      9477.3747      20875.479      3850.9698      5967.0511     -2870.7886      376.14457     -1865.9307      15418.033      43204.003      35.089297      35.089297      35.089297      1.3856615      16207          17940.026      16780.092    
    101000   50500          690.51369      15530.192      37847.774      28113.751      9301.4132      18812.338      3880.2576      5955.0697     -2904.1378      370.10505     -1716.0626      13227.106      42977.35       35.027828      35.027828      35.027828      1.3929691      15813.42       14766.59       16010.566    
    102000   51000          701.58119      19795.675      42020.427      29523.496      9450.4956      20073.001      3772.4609      5868.3971     -2882.3998      327.71541     -1824.9616      14811.789      43286.966      35.111742      35.111742      35.111742      1.3830057      19408.313      18515.725      21462.988    
    103000   51500          699.91901      21973.268      42288.973      28561.039      9428.1055      19132.934      3726.4694      6005.455      -2964.193       353.98365     -1796.2384      13807.457      42838.536      34.990075      34.990075      34.990075      1.3974829      21575.715      23604.27       20739.819    
    104000   52000          708.26962      16764.891      40123.729      29621.773      9540.5905      20081.183      3842.9691      5854.6415     -2729.2991      345.18682     -1920.7253      14688.41       42953.006      35.021213      35.021213      35.021213      1.3937586      14936.138      16421.296      18937.241    
    105000   52500          702.16586      16001.26       38373.387      28316.486      9458.3712      18858.115      3936.5327      5901.7029     -2803.5099      360.60049     -1959.7291      13422.518      43095.717      35.059956      35.059956      35.059956      1.3891432      15037.821      16528.444      16437.513    
    106000   53000          698.98231      18558.25       41467.223      29910.568      9415.4878      20495.081      3813.9954      5969.2231     -2831.779       321.82051     -1881.0978      15102.918      42699.149      34.952084      34.952084      34.952084      1.4020449      19011.945      19506.739      17156.067    
    107000   53500          681.94961      20184.334      41953.872      29353.018      9186.0526      20166.965      3823.7723      5875.153      -2845.8184      347.18343     -1846.6867      14813.362      42806.496      34.981349      34.981349      34.981349      1.3985289      20369.049      18844.262      21339.691    
    108000   54000          697.09864      20407.989      40962.56       28239.913      9390.1143      18849.799      4064.8909      5850.4175     -2899.2854      377.72993     -1745.59        13201.636      42746.58       34.965021      34.965021      34.965021      1.4004892      19287.245      19638.634      22298.088    
    109000   54500          697.60008      17793.023      41964.172      30846.27       9396.8688      21449.401      4032.56        5993.1986     -2905.0393      316.91932     -1878.1644      15889.927      42844.709      34.991756      34.991756      34.991756      1.3972816      18453.432      18431.867      16493.769    
    110000   55000          700.2391       18311.681      40717.347      29365.47       9432.4171      19933.053      3959.4779      5940.022      -2830.8951      353.16699     -1716.4127      14227.694      42507.307      34.89966       34.89966       34.89966       1.4083725      15164.43       18768.057      21002.556    
    111000   55500          713.04134      19292.796      41158.37       29157.688      9604.867       19552.821      3903.6865      5957.7091     -2896.5962      360.51038     -1839.0409      14066.552      42651.552      34.939092      34.939092      34.939092      1.4036095      18658.814      19619.089      19600.486    
    112000   56000          708.52045      17973.86       41807.426      30622.27       9543.9693      21078.301      3797.1689      5865.4105     -2823.6235      321.67927     -1915.6938      15833.359      42670.212      34.944186      34.944186      34.944186      1.4029957      16878.051      16753.628      20289.901    
    113000   56500          709.07353      20596.845      42820.802      30133.376      9551.4195      20581.957      3770.874       5804.7943     -2860.4941      349.15529     -1772.4742      15290.101      42237.375      34.825629      34.825629      34.825629      1.4173732      20826.648      20549.272      20414.614    
    114000   57000          699.65063      19054.959      40564.891      28697.06       9424.4903      19272.569      3875.3515      5950.0597     -2821.6215      377.96184     -1917.3725      13808.19       42705.858      34.953914      34.953914      34.953914      1.4018246      21007.033      16105.219      20052.624    
    115000   57500          689.2456       19108.693      40338.09       28514.3        9284.3316      19229.968      3756.9105      5814.0859     -2863.3539      328.85927     -1737.321       13930.787      42427.735      34.877869      34.877869      34.877869      1.4110139      19880.116      18345.18       19100.784    
    116000   58000          697.95369      23154.231      44876.164      30552.182      9401.6321      21150.549      3867.8033      5874.2659     -2864.9056      371.77044     -1766.1715      15667.787      42418.717      34.875398      34.875398      34.875398      1.4113138      20305.547      23054.369      26102.777    
    117000   58500          705.63882      17521.273      38945.194      28087.549      9505.1529      18582.396      3918.317       5818.382      -2801.3173      343.00137     -1782.2704      13086.284      42490.72       34.89512       34.89512       34.89512       1.4089223      18835.628      18527.506      15200.684    
    118000   59000          698.44203      21204.152      42701.954      29570.059      9408.2101      20161.849      3721.6253      5850.656      -2806.9757      369.19136     -1753.3554      14780.708      42464.947      34.888063      34.888063      34.888063      1.4097774      19621.481      20773.363      23217.613    
    119000   59500          694.94535      24936.651      46864.829      31532.449      9361.1089      22171.34       3719.2832      5796.1718     -2734.6896      375.08659     -1790.6778      16806.166      42159.512      34.804216      34.804216      34.804216      1.4199909      24375.327      25428.165      25006.462    
    120000   60000          709.37004      19558.775      41265.953      29147.737      9555.4134      19592.323      3829.5269      5847.8456     -2838.7124      360.82589     -1821.1797      14214.017      42483.584      34.893166      34.893166      34.893166      1.409159       18729.052      22089.623      17857.65     
    121000   60500          697.3952       20447.444      42427.895      29851.914      9394.1091      20457.805      3930.5233      6053.0138     -2879.3627      381.72855     -1782.4577      14754.36       42172.268      34.807726      34.807726      34.807726      1.4195614      19856.131      17540.287      23945.915    
    122000   61000          711.9795       23485.642      44723.248      30253.715      9590.5636      20663.152      3924.4216      5822.3748     -2744.8962      341.44781     -1779.3126      15099.116      42245.083      34.827748      34.827748      34.827748      1.4171145      22523.456      26542.144      21391.327    
    123000   61500          690.60116      21240.883      43559.415      30476.69       9302.5914      21174.098      3936.783       5843.5993     -2879.7563      351.40726     -1770.5306      15692.596      42232.789      34.824369      34.824369      34.824369      1.4175271      23075.043      18684.119      21963.486    
    124000   62000          705.23949      16165.406      38303.07       28345.399      9499.7739      18845.625      3874.241       5774.8623     -2776.945       355.6654      -1864.6223      13482.423      42237.214      34.825585      34.825585      34.825585      1.4173786      12744.186      17199.993      18552.039    
    125000   62500          697.27868      20765.858      42283.495      29637.967      9392.5395      20245.427      4006.9926      5924.0645     -2807.019       380.53798     -1848.5374      14589.389      41755.262      34.692618      34.692618      34.692618      1.4337384      19290.441      19482.427      23524.707    
    126000   63000          701.01172      21225.949      41300.861      28270.672      9442.8246      18827.847      3771.6499      5925.3226     -2833.7473      328.4258      -1911.1817      13547.378      42092.788      34.785846      34.785846      34.785846      1.4222418      23162.92       20219.79       20295.138    
    127000   63500          705.61929      20851.273      41944.955      29212.094      9504.8899      19707.204      3749.3484      5830.1934     -2798.231       323.60339     -1769.602       14371.892      41871.407      34.724755      34.724755      34.724755      1.4297614      22077.535      19997.835      20478.448    
    128000   64000          703.8644       20798.613      40945.621      28204.995      9481.251       18723.744      3929.4939      5839.8618     -2781.2311      345.60415     -1743.4818      13133.497      42003.02       34.761099      34.761099      34.761099      1.4252814      19665.81       20349.41       22380.617    
    129000   64500          708.06422      19372.316      40632.583      28805.592      9537.8237      19267.768      3936.2404      5885.0771     -2786.3493      341.27428     -1807.7398      13699.265      41861.698      34.72207       34.72207       34.72207       1.430093       15934.159      18927.015      23255.775    
    130000   65000          695.1716       23197.192      43165.228      28988.472      9364.1566      19624.316      3783.1849      5936.1715     -2835.666       339.70039     -1805.6606      14206.586      41904.973      34.734031      34.734031      34.734031      1.4286162      22810.96       21957.994      24822.621    
    131000   65500          682.97367      22008.463      42859.785      29423.558      9199.847       20223.711      3908.1823      5829.3191     -2816.0783      365.60171     -1801.4687      14738.155      41861.205      34.721934      34.721934      34.721934      1.4301099      22185.469      20740.379      23099.54     
    132000   66000          687.4763       23603.893      43088.987      28677.573      9260.4987      19417.074      3861.057       5856.9821     -2846.0585      313.80353     -1750.6263      13981.916      41864.611      34.722876      34.722876      34.722876      1.4299935      19762.02       23697.834      27351.824    
    133000   66500          698.35597      22965.179      42615.426      28655.54       9407.0509      19248.489      3775.2906      5871.1135     -2763.2569      322.03655     -1700.2802      13743.585      41680.81       34.671986      34.671986      34.671986      1.4362994      25131.723      20702.653      23061.16     
    134000   67000          705.21071      23525.389      43248.374      28959.85       9499.3861      19460.464      3792.9201      5886.6365     -2757.3827      371.88249     -1766.0323      13932.44       41646.131      34.662367      34.662367      34.662367      1.4374954      26958.128      20707.906      22910.132    
    135000   67500          696.36694      21821.288      42547.38       29324.82       9380.2581      19944.562      3952.8251      5882.4601     -2813.7255      346.98474     -1722.2168      14298.234      41548.877      34.635365      34.635365      34.635365      1.4408602      25001.355      21915.778      18546.731    
    136000   68000          693.21283      19864.961      40980.976      28938.527      9337.7714      19600.756      3946.0737      5992.1658     -2791.9839      335.41507     -1824.7879      13943.873      41567.243      34.640467      34.640467      34.640467      1.4402235      19581.447      19304.979      20708.456    
    137000   68500          693.89805      21940.622      41935.128      28686.366      9347.0014      19339.364      3666.4142      5911.7924     -2874.7419      345.56209     -1693.8094      13984.147      41404.779      34.595278      34.595278      34.595278      1.4458747      21142.194      23514.844      21164.829    
    138000   69000          698.72118      25577.968      44384.486      28847.575      9411.9703      19435.605      3613.1902      5845.2229     -2773.2579      328.36035     -1776.7086      14198.798      41650.739      34.663646      34.663646      34.663646      1.4373364      26390.987      25617.167      24725.752    
    139000   69500          697.39088      24018.679      43150.725      28646.579      9394.0508      19252.528      3754.7274      6036.3154     -2890.4216      378.46989     -1639.8242      13613.261      41406.37       34.595721      34.595721      34.595721      1.4458192      25658.36       21264.663      25133.016    
    140000   70000          716.62487      27004.485      45175.804      28875.03       9653.1381      19221.892      3750.327       5698.4302     -2852.9106      389.92786     -1742.6715      13978.789      41390.096      34.591188      34.591188      34.591188      1.4463876      29055.749      25545.293      26412.414    
    141000   70500          702.79871      22332.853      43735.966      30203.621      9466.8959      20736.725      3857.299       5859.7936     -2817.3744      414.53665     -1758.154       15180.625      41548.27       34.635196      34.635196      34.635196      1.4408812      19474.975      21842.538      25681.046    
    142000   71000          710.74185      23841.413      43490.325      29155.84       9573.8921      19581.948      3881.5184      5705.1921     -2809.6225      415.4336      -1753.6457      14143.072      41226.286      34.545494      34.545494      34.545494      1.4521347      21388.891      24170.578      25964.77     
    143000   71500          698.99322      22508.404      42532.215      28947.277      9415.6348      19531.643      3724.7476      5787.2597     -2717.043       364.76881     -1805.8071      14177.717      41384.437      34.589611      34.589611      34.589611      1.4465854      23119.033      21838.762      22567.416    
    144000   72000          694.32796      23622.912      43823.986      29536.141      9352.7925      20183.349      3847.734       5859.6644     -2858.0438      360.54095     -1663.4974      14636.95       41472.232      34.614054      34.614054      34.614054      1.443523       22426.246      24284.134      24158.357    
    145000   72500          706.60161      23530.267      44476.939      30287.706      9518.122       20769.584      3821.7541      5727.8393     -2777.0283      344.43425     -1689.1758      15341.761      41348.157      34.579501      34.579501      34.579501      1.4478547      22919.572      24810.76       22860.468    
    146000   73000          694.1179       26348.335      45663.503      29876.155      9349.9629      20526.192      3746.4825      5947.4502     -2781.5315      335.18609     -1691.2194      14969.824      41084.7        34.505901      34.505901      34.505901      1.4571391      25637.316      27171.829      26235.859    
    147000   73500          702.63567      21770.098      42095.36       29021.253      9464.6997      19556.554      3893.3018      6031.4947     -2838.8003      298.76098     -1723.9659      13895.763      41178.993      34.532279      34.532279      34.532279      1.4538025      18523.124      25391.087      21396.084    
    148000   74000          691.87575      25919.26       45552.794      30039.473      9319.7605      20719.712      3845.2362      5837.0238     -2803.3344      334.14493     -1762.6647      15269.306      41039.901      34.493355      34.493355      34.493355      1.4587297      25255.251      24814.177      27688.352    
    149000   74500          693.06141      25872.527      47325.092      31788.917      9335.7317      22453.186      3788.6751      5989.5838     -2826.7391      370.78254     -1796.3625      16927.246      41174.598      34.53105       34.53105       34.53105       1.4539577      32188.268      20666.42       24762.894    
    150000   75000          700.65159      28693.171      47807.609      30740.1        9437.9736      21302.126      3838.8583      5867.3386     -2844.8066      364.04945     -1578.742       15655.428      40786.431      34.422196      34.422196      34.422196      1.4677951      26138.552      29646.32       30294.64     
    151000   75500          701.99565      27295.394      47587.714      31333.028      9456.0784      21876.95       3811.3818      5969.8742     -2841.99        361.84109     -1592.5945      16168.437      40833.191      34.435345      34.435345      34.435345      1.4661142      26149.712      27822.16       27914.31     
    152000   76000          702.87759      25917.903      46219.628      30669.481      9467.9584      21201.523      3800.2558      5916.5763     -2820.6409      345.88409     -1749.7631      15709.21       41139.477      34.521229      34.521229      34.521229      1.4551989      22417.499      28654.811      26681.399    
    153000   76500          694.02769      21417.934      42773.453      29893.578      9348.7477      20544.831      3858.4042      5999.9063     -2855.601       381.12296     -1780.5701      14941.568      41234.256      34.54772       34.54772       34.54772       1.4518541      21792.802      22158.767      20302.234    
    154000   77000          697.21609      26001.447      45544.451      30085.713      9391.6964      20694.017      3829.028       6006.989      -2744.3851      368.89968     -1627.1332      14860.618      40766.238      34.416514      34.416514      34.416514      1.4685221      22579.253      29174.089      26251        
    155000   77500          712.92156      22542.756      43704.861      30212.032      9603.2535      20608.778      3988.701       5969.0959     -2800.6114      394.07226     -1701.3257      14758.846      41041.207      34.493721      34.493721      34.493721      1.4586833      21171.473      22741.251      23715.544    
    156000   78000          713.15308      26079.365      45156.789      29719.9        9606.3722      20113.528      3792.3767      5983.7423     -2803.879       315.83981     -1727.6288      14553.077      40586.992      34.365998      34.365998      34.365998      1.4750076      27547.178      24901.809      25789.107    
    157000   78500          697.2686       24995.096      43893.242      29003.317      9392.4037      19610.913      3786.8108      6048.5739     -2818.7678      348.59257     -1643.0356      13888.739      40847.156      34.43927       34.43927       34.43927       1.465613       26837.517      22613.05       25534.721    
    158000   79000          693.00918      23886.72       43310.532      29066.859      9335.0281      19731.831      3729.2346      5793.56       -2741.2565      395.27855     -1730.4131      14285.427      40887.41       34.45058       34.45058       34.45058       1.4641701      23149.153      24280.859      24230.148    
    159000   79500          687.36399      26160.162      45270.772      29643.898      9258.9858      20384.912      3865.8438      5962.1153     -2782.8457      372.93412     -1712.2502      14679.114      40959.608      34.470845      34.470845      34.470845      1.4615892      27075.106      24235.366      27170.015    
    160000   80000          708.8334       28265.583      48671.332      31882.74       9548.1848      22334.555      3639.1427      5989.7468     -2841.9411      367.46936     -1555.5488      16735.686      40726.814      34.405416      34.405416      34.405416      1.4699437      25627.906      28638.621      30530.221    
    161000   80500          703.18825      26484.967      46109.058      30283.799      9472.1431      20811.656      3792.535       5842.933      -2810.4352      398.31268     -1667.1466      15255.457      40970.899      34.474012      34.474012      34.474012      1.4611864      27916.897      26398.667      25139.338    
    162000   81000          693.37463      27176.626      45457.722      29334.43       9339.9508      19994.479      3786.316       5901.1384     -2804.6029      365.97124     -1671.8697      14417.526      40680.126      34.392264      34.392264      34.392264      1.4716307      25618.625      25537.071      30374.18     
[...]
    249000   124500         713.62675      41157.297      56672.581      33645.555      9612.7525      24032.803      3677.7611      5966.758      -2642.4251      334.78954     -1044.6806      17740.6        38363.225      33.726533      33.726533      33.726533      1.5605081      42796.87       40460.047      40214.974    
    250000   125000         712.81985      42572.986      55469.806      31503.176      9601.8833      21901.292      3774.7464      5877.9606     -2601.6971      390.48556     -1168.1328      15627.93       38600.86       33.796028      33.796028      33.796028      1.5509013      42830.892      38238.295      46649.772    
    251000   125500         698.07408      40636.513      53787.4        30977.878      9403.2537      21574.625      3729.6328      5991.2144     -2685.4223      350.97295     -1065.0579      15253.285      38487.869      33.76302       33.76302       33.76302       1.5554543      39775.574      40716.55       41417.414    
    252000   126000         698.55131      40481.88       53032.901      30371.021      9409.6822      20961.339      3824.4017      5819.5193     -2757.1666      379.21264     -1109.9469      14805.319      38384.807      33.732857      33.732857      33.732857      1.5596307      40548.926      41002.464      39894.25     
    253000   126500         692.37213      40593.719      55523.04       32696.636      9326.4469      23370.189      3694.6119      5888.6278     -2655.0867      353.85794     -1275.4481      17363.626      38556.958      33.783211      33.783211      33.783211      1.5526672      38570.133      44827.533      38383.49     
    254000   127000         679.48693      42302.098      54847.184      31112.108      9152.8796      21959.228      3709.2742      5815.8305     -2596.1662      404.69884     -1133.4789      15759.07       38472.716      33.758589      33.758589      33.758589      1.556067       43716.903      41540.276      41649.114    
    255000   127500         693.39627      43683.242      57708.143      33158.411      9340.2423      23818.168      3731.9004      5969.4802     -2607.5923      332.34473     -1160.8652      17552.901      38535.057      33.776813      33.776813      33.776813      1.5535496      45581.345      40764.518      44703.864    
    256000   128000         689.62487      44930.983      56519.655      31425.553      9289.4405      22136.112      3774.4625      5787.6146     -2657.974       346.57601     -1050.6572      15936.09       38295.687      33.70673       33.70673       33.70673       1.5632602      45190.604      46998.687      42603.657    
    257000   128500         705.35756      39875.605      54662.561      32282.622      9501.3643      22781.258      3791.784       5933.1818     -2694.9991      375.14287     -1096.4376      16472.586      38483.603      33.761773      33.761773      33.761773      1.5556267      40922.635      38927.408      39776.773    
    258000   129000         702.15622      43797.473      56740.11       32210.412      9458.2413      22752.17       3699.9193      5959.2053     -2635.5978      374.40912     -1104.831       16459.065      38403.187      33.73824       33.73824       33.73824       1.5588842      42901.139      44740.991      43750.29     
    259000   129500         698.764        44152.055      57146.629      32481.349      9412.5472      23068.802      3676.4048      5719.9068     -2630.0937      360.30164     -924.10808      16866.39       38305.333      33.70956       33.70956       33.70956       1.5628665      44846.085      43177.089      44432.99     
    260000   130000         692.47811      44382.823      57207.24       32395.466      9327.8745      23067.591      3742.5738      5839.4652     -2662.6852      334.7129      -1112.0351      16925.56       38332.488      33.717524      33.717524      33.717524      1.5617594      45276.77       42864.103      45007.594    
    261000   130500         705.64956      41258.251      54255.66       31114.082      9505.2976      21608.784      3908.9869      5847.5889     -2626.3484      358.80863     -1131.5235      15251.272      38459.734      33.754791      33.754791      33.754791      1.5565922      41746.451      41982.337      40045.964    
    262000   131000         671.03422      42149.223      54962.336      31442.011      9039.0192      22402.992      3626.636       5849.1769     -2548.6572      348.36005     -975.9192       16103.396      38262.896      33.697107      33.697107      33.697107      1.5645999      41476.701      39916.329      45054.639    
    263000   131500         691.27633      43442.315      55021.902      30824.234      9311.6861      21512.547      3758.4978      5942.0491     -2723.9154      352.2971      -954.79425      15138.413      38193.08       33.676599      33.676599      33.676599      1.5674599      41137.398      42042.011      47147.534    
    264000   132000         710.10073      43590.631      55515.893      31150.136      9565.2562      21584.88       3628.5517      5833.4164     -2628.3098      376.76549     -1033.0784      15407.535      38327.532      33.71607       33.71607       33.71607       1.5619613      42424.704      41484.99       46862.199    
    265000   132500         689.50557      44941.277      57441.14       32402.382      9287.8335      23114.548      3621.5833      5902.4839     -2567.3195      359.32187     -917.98628      16716.465      38202.475      33.67936       33.67936       33.67936       1.5670744      44544.422      42879.923      47399.484    
    266000   133000         699.7211       47424.565      59091.317      32603.996      9425.4396      23178.556      3732.0193      5639.4021     -2637.8197      363.59485     -1095.1226      17176.483      38296.474      33.706961      33.706961      33.706961      1.5632281      47417.867      47499.903      47355.927    
    267000   133500         698.97393      47215.108      59822.205      33555.909      9415.375       24140.534      3778.5814      5776.1437     -2665.8864      363.53708     -984.81008      17872.969      38145.381      33.662574      33.662574      33.662574      1.56942        47977.884      44032.078      49635.363    
    268000   134000         705.4432       46365.312      59548.843      33645.81       9502.5179      24143.292      3647.2449      5842.0851     -2660.7564      363.28851     -984.79457      17936.224      38307.3        33.710137      33.710137      33.710137      1.5627863      47488.129      44130.538      47477.271    
    269000   134500         699.12906      44777.547      57642.092      32717.639      9417.4646      23300.174      3720.6567      5876.5784     -2684.0757      319.21299     -917.68563      16985.488      38167.126      33.668969      33.668969      33.668969      1.5685258      42740.233      45236.925      46355.482    
    270000   135000         689.73325      46250.479      55371.577      29789.25       9290.9005      20498.35       3550.9583      5935.876      -2613.0949      346.99399     -881.66081      14159.277      37926.95       33.598197      33.598197      33.598197      1.5784586      45650.417      46697.349      46403.672    
    271000   135500         700.02701      43578.319      55805.299      31472.832      9429.5603      22043.272      3690.3681      5813.0446     -2715.7262      349.79907     -1027.9445      15933.731      38285.981      33.703882      33.703882      33.703882      1.5636565      42796.111      42295.772      45643.074    
    272000   136000         692.7534       45136.748      56769.145      31524.723      9331.5827      22193.14       3627.0775      5896.5837     -2602.1604      366.7715      -1200.8826      16105.751      38349.462      33.7225        33.7225        33.7225        1.5610681      47388.851      41726.562      46294.83     
    273000   136500         689.9801       42214.746      54133.192      30635.201      9294.2256      21340.976      3461.8169      5826.4647     -2624.7182      371.47586     -983.78637      15289.723      38167.231      33.669         33.669         33.669         1.5685215      39505.684      44880.663      42257.892    
    274000   137000         689.54668      46512.551      57027.323      31200.565      9288.3872      21912.178      3541.2918      5977.7272     -2681.5761      367.09591     -945.45444      15653.094      38073.591      33.641443      33.641443      33.641443      1.5723792      46134.086      46270.933      47132.635    
    275000   137500         707.26005      47699.87       59217.323      32760.119      9526.9914      23233.128      3696.1685      5924.2747     -2693.9877      342.92349     -933.86541      16897.614      38032.149      33.629232      33.629232      33.629232      1.5740926      45572.82       46474.127      51052.665    
    276000   138000         719.18992      45925.649      57235.883      31696.754      9687.69        22009.064      3521.4003      5835.7764     -2692.0402      345.14567     -980.88947      15979.671      38130.711      33.658258      33.658258      33.658258      1.5700238      47833.88       44248.905      45694.162    
    277000   138500         694.89588      46708.588      57582.703      31605.588      9360.4426      22245.145      3702.3428      5887.7496     -2584.4308      367.95587     -977.09137      15848.619      38134.522      33.659379      33.659379      33.659379      1.5698669      43929.821      47951.733      48244.209    
    278000   139000         697.18166      44079.291      54583.628      30156.074      9391.2326      20764.842      3714.2985      5819.9491     -2623.1912      357.30553     -986.23001      14482.71       37998.766      33.61939       33.61939       33.61939       1.5754754      41570.562      45730.838      44936.472    
    279000   139500         694.61734      41837.031      54191.406      31042.15       9356.6905      21685.46       3821.1075      5926.4142     -2664.339       369.60289     -1016.5309      15249.205      37940.26       33.602127      33.602127      33.602127      1.5779049      39400.596      44576.232      41534.264    
    280000   140000         704.17746      49576.548      59786.871      32484.079      9485.4679      22998.611      3672.1813      5873.8129     -2597.2063      346.08597     -771.47262      16475.21       37761.992      33.549416      33.549416      33.549416      1.5853539      49372.023      46369.694      52987.927    
    281000   140500         704.60156      49751.266      59520.668      32146.86       9491.1808      22655.679      3639.4774      5808.2142     -2511.4053      362.60528     -812.1392       16168.927      37727.253      33.539125      33.539125      33.539125      1.5868137      52713.333      48197.387      48343.079    
    282000   141000         701.26961      45141.488      57129.98       32281.131      9446.2984      22834.832      3661.9171      5828.9705     -2569.8828      323.08539     -839.48568      16430.228      37744.574      33.544257      33.544257      33.544257      1.5860855      43326.851      45976.624      46120.99     
    283000   141500         706.02316      47773.431      59452.53       33039.38       9510.3301      23529.05       3599.1057      5925.2909     -2644.6279      382.4883      -873.48311      17140.276      37910.357      33.593297      33.593297      33.593297      1.5791495      46749.742      46706.755      49863.796    
    284000   142000         704.50705      45591.121      57001.723      31754.174      9489.9076      22264.266      3641.6028      5847.6811     -2603.8623      373.27114     -861.14814      15866.722      37971.964      33.611484      33.611484      33.611484      1.5765875      46369.218      42041.994      48362.152    
    285000   142500         712.02096      46707.428      58027.292      32164.107      9591.1222      22572.985      3676.8692      5910.3994     -2572.9076      366.42537     -963.02719      16155.226      37968.213      33.610377      33.610377      33.610377      1.5767432      49270.803      43064.552      47786.928    
    286000   143000         692.87456      47346.026      57932.51       31932.371      9333.2147      22599.156      3680.0503      5897.9859     -2604.9746      361.44659     -770.58394      16035.232      37654.445      33.517536      33.517536      33.517536      1.5898819      47981.992      46496.552      47559.532    
    287000   143500         702.31804      50449.613      59311.504      31648.225      9460.4211      22187.803      3670.2274      5872.9093     -2615.1641      349.7659      -756.7822       15666.847      37598.449      33.500913      33.500913      33.500913      1.5922498      53162.392      50954.286      47232.161    
    288000   144000         694.59615      45437.249      57910.838      32810.523      9356.4051      23454.118      3720.7746      5978.663      -2558.4558      385.93059     -904.53589      16831.741      37878.369      33.583845      33.583845      33.583845      1.5804831      44634.667      44052.395      47624.684    
    289000   144500         710.02998      44256.942      55725.763      31286.915      9564.3031      21722.612      3675.5813      6015.1658     -2606.2499      378.80786     -917.15456      15176.461      37863.735      33.57952       33.57952       33.57952       1.581094       43106.28       45183.507      44481.039    
    290000   145000         696.13978      48131.703      56990.417      30573.247      9377.1981      21196.049      3699.9474      5784.8899     -2625.5215      340.26429     -844.90308      14841.372      37633.895      33.511437      33.511437      33.511437      1.5907501      46917.608      47997.79       49479.711    
    291000   145500         710.01397      45583.152      56122.841      30948.692      9564.0874      21384.604      3493.5268      5805.7266     -2594.3779      362.46869     -812.55366      15129.814      37868.191      33.580837      33.580837      33.580837      1.5809079      46306.816      42221.199      48221.443    
    292000   146000         693.17663      49212.927      58712.725      31669.878      9337.2837      22332.595      3511.1207      5951.433      -2584.2448      328.89719     -810.04418      15935.433      37678.822      33.524767      33.524767      33.524767      1.5888533      50320.439      46162.436      51155.905    
    293000   146500         710.15223      48504.934      58593.328      31903.212      9565.9499      22337.262      3568.4576      5814.7656     -2598.3311      369.62999     -766.81129      15949.551      37730.161      33.539987      33.539987      33.539987      1.5866914      52757.37       44698.59       48058.841    
    294000   147000         703.0991       46543.097      56982.295      31360.209      9470.9422      21889.267      3755.2836      5918.481      -2554.4724      391.17879     -904.68534      15283.481      37747.076      33.544998      33.544998      33.544998      1.5859804      45445.795      45992.852      48190.645    
    295000   147500         703.61037      48970.374      58527.203      31577.197      9477.8292      22099.368      3701.4533      6002.5687     -2611.7617      341.1029      -786.25672      15452.262      37735.452      33.541554      33.541554      33.541554      1.5864689      49624.009      46069.995      51217.119    
    296000   148000         693.98014      50571.229      60289.615      32434.389      9348.1072      23086.282      3645.7277      5935.7764     -2550.1398      353.33062     -801.848        16503.435      37768.286      33.55128       33.55128       33.55128       1.5850897      51134.23       48329.59       52249.868    
    297000   148500         697.50906      50616.16       59344.583      31549.698      9395.6427      22154.056      3604.9317      5868.8697     -2602.9607      342.70578     -807.45907      15747.968      37653.019      33.517113      33.517113      33.517113      1.5899422      49499.707      48261.289      54087.483    
    298000   149000         694.8713       48590.447      57999.955      31366.486      9360.1114      22006.374      3529.0561      5990.5519     -2578.0669      379.39599     -750.47943      15435.917      37583.823      33.496568      33.496568      33.496568      1.5928694      47256.089      46468.834      52046.417    
    299000   149500         711.27467      49850.387      58925.746      31737.936      9581.0694      22156.866      3602.0951      5636.6765     -2560.5856      335.19127     -661.79091      15805.28       37396.4        33.440795      33.440795      33.440795      1.6008525      49390.38       48709.377      51451.405    
    300000   150000         708.75034      50817.369      60555.801      32717.646      9547.066       23170.58       3491.5931      5845.28       -2624.3045      390.86974     -744.25205      16811.393      37562.318      33.490179      33.490179      33.490179      1.5937813      51024.83       50801.249      50626.029    
Loop time of 696.362 on 1 procs for 300000 steps with 4520 atoms

Performance: 18.611 ns/day, 1.290 hours/ns, 430.810 timesteps/s, 1.947 Matom-step/s
99.9% CPU use with 1 MPI tasks x 1 OpenMP threads

MPI task timing breakdown:
Section |  min time  |  avg time  |  max time  |%varavg| %total
---------------------------------------------------------------
Pair    | 327.13     | 327.13     | 327.13     |   0.0 | 46.98
Bond    | 182.11     | 182.11     | 182.11     |   0.0 | 26.15
Neigh   | 112.73     | 112.73     | 112.73     |   0.0 | 16.19
Comm    | 9.5056     | 9.5056     | 9.5056     |   0.0 |  1.37
Output  | 1.8914     | 1.8914     | 1.8914     |   0.0 |  0.27
Modify  | 53.388     | 53.388     | 53.388     |   0.0 |  7.67
Other   |            | 9.613      |            |       |  1.38

Nlocal:           4520 ave        4520 max        4520 min
Histogram: 1 0 0 0 0 0 0 0 0 0
Nghost:          17225 ave       17225 max       17225 min
Histogram: 1 0 0 0 0 0 0 0 0 0
Neighs:              0 ave           0 max           0 min
Histogram: 1 0 0 0 0 0 0 0 0 0
FullNghs:  3.43528e+06 ave 3.43528e+06 max 3.43528e+06 min
Histogram: 1 0 0 0 0 0 0 0 0 0

Total # of neighbors = 3435278
Ave neighs/atom = 760.01726
Ave special neighs/atom = 5.5353982
Neighbor list builds = 9391
Dangerous builds = 0

unfix npt_comp

undump dump_comp

write_dump all custom npt_compress_last.dump id type mol x y z xu yu zu vx vy vz modify sort id
write_data /home/arz2/PolyJarvis/data/PLA3/lammps/equil/npt_compress/npt_compress_out.data
System init for write_data ...
Generated 21 of 21 mixed pair_coeff terms from sixthpower/sixthpower mixing rule

print "STAGE COMPLETE: NPT compression P=1.0->50000.0atm density target reached"
STAGE COMPLETE: NPT compression P=1.0->50000.0atm density target reached
quit
2.73     | 112.73     | 112.73     |   0.0 | 16.19
Comm    | 9.5056     | 9.5056     | 9.5056     |   0.0 |  1.37
Output  | 1.8914     | 1.8914     | 1.8914     |   0.0 |  0.27
Modify  | 53.388     | 53.388     | 53.388     |   0.0 |  7.67
Other   |            | 9.613      |            |       |  1.38

Nlocal:           4520 ave        4520 max        4520 min
Histogram: 1 0 0 0 0 0 0 0 0 0
Nghost:          17225 ave       17225 max       17225 min
Histogram: 1 0 0 0 0 0 0 0 0 0
Neighs:              0 ave           0 max           0 min
Histogram: 1 0 0 0 0 0 0 0 0 0
FullNghs:  3.43528e+06 ave 3.43528e+06 max 3.43528e+06 min
Histogram: 1 0 0 0 0 0 0 0 0 0

Total # of neighbors = 3435278
Ave neighs/atom = 760.01726
Ave special neighs/atom = 5.5353982
Neighbor list builds = 9391
Dangerous builds = 0
System init for write_data ...
Generated 21 of 21 mixed pair_coeff terms from sixthpower/sixthpower mixing rule
STAGE COMPLETE: NPT compression P=1.0->50000.0atm density target reached
