LAMMPS data file via write_data, version 22 Jul 2025, timestep = 2000000, units = real

3620 atoms
4 atom types
3610 bonds
6 bond types
7200 angles
11 angle types
10710 dihedrals
13 dihedral types
4800 impropers
11 improper types

6.2425675858343475 42.14292744416959 xlo xhi
6.2425675858343475 42.14292744416959 ylo yhi
6.2425675858343475 42.14292744416959 zlo zhi

Masses

1 12.01115
2 12.01115
3 35.453
4 1.00797

Pair Coeffs # lj/class2/coul/long/kk

1 0.054 4.01
2 0.054 4.01
3 0.2247 3.92
4 0.02 2.995

Bond Coeffs # class2/kk

1 1.53 299.67 -501.77 679.81
2 1.53 299.67 -501.77 679.81
3 1.79 194.319 0 0
4 1.101 345 -691.89 844.6
5 1.79 194.319 0 0
6 1.101 345 -691.89 844.6

Angle Coeffs # class2/kk

1 112.67 39.516 -7.443 -9.5583
2 107 61.1745 0 0
3 110.77 41.453 -10.604 5.129
4 112.67 39.516 -7.443 -9.5583
5 107 61.1745 0 0
6 110.77 41.453 -10.604 5.129
7 112.67 39.516 -7.443 -9.5583
8 110.77 41.453 -10.604 5.129
9 107.997 51.0987 0 0
10 107.997 51.0987 0 0
11 107.66 39.641 -12.921 -2.4318

BondBond Coeffs

1 0 1.53 1.53
2 0 1.53 1.79
3 3.3872 1.53 1.101
4 0 1.53 1.53
5 0 1.53 1.79
6 3.3872 1.53 1.101
7 0 1.53 1.53
8 3.3872 1.53 1.101
9 0 1.79 1.101
10 0 1.79 1.101
11 5.3316 1.101 1.101

BondAngle Coeffs

1 8.016 8.016 1.53 1.53
2 0 0 1.53 1.79
3 20.754 11.421 1.53 1.101
4 8.016 8.016 1.53 1.53
5 0 0 1.53 1.79
6 20.754 11.421 1.53 1.101
7 8.016 8.016 1.53 1.53
8 20.754 11.421 1.53 1.101
9 0 0 1.79 1.101
10 0 0 1.79 1.101
11 18.103 18.103 1.101 1.101

Dihedral Coeffs # class2/kk

1 0 0 0.0514 0 -0.143 0
2 0 0 0 0 0.15 0
3 0 0 0.0316 0 -0.1681 0
4 0 0 0.0514 0 -0.143 0
5 0 0 0.0316 0 -0.1681 0
6 0 0 0 0 0.15 0
7 0 0 0.0316 0 -0.1681 0
8 0 0 0 0 0.15 0
9 0 0 0.0316 0 -0.1681 0
10 0 0 0 0 -0.1 0
11 0 0 0 0 -0.1 0
12 -0.1432 0 0.0617 0 -0.1083 0
13 -0.1432 0 0.0617 0 -0.1083 0

AngleAngleTorsion Coeffs

1 -22.045 112.67 112.67
2 0 112.67 107
3 -16.164 112.67 110.77
4 -22.045 112.67 112.67
5 -16.164 112.67 110.77
6 0 112.67 107
7 -16.164 112.67 110.77
8 0 112.67 107
9 -16.164 112.67 110.77
10 0 107 110.77
11 0 107 110.77
12 -12.564 110.77 110.77
13 -12.564 110.77 110.77

EndBondTorsion Coeffs

1 -0.0732 0 0 -0.0732 0 0 1.53 1.53
2 0 0 0 0 0 0 1.53 1.79
3 0.2486 0.2422 -0.0925 0.0814 0.0591 0.2219 1.53 1.101
4 -0.0732 0 0 -0.0732 0 0 1.53 1.53
5 0.2486 0.2422 -0.0925 0.0814 0.0591 0.2219 1.53 1.101
6 0 0 0 0 0 0 1.53 1.79
7 0.2486 0.2422 -0.0925 0.0814 0.0591 0.2219 1.53 1.101
8 0 0 0 0 0 0 1.53 1.79
9 0.2486 0.2422 -0.0925 0.0814 0.0591 0.2219 1.53 1.101
10 0 0 0 0 0 0 1.79 1.101
11 0 0 0 0 0 0 1.79 1.101
12 0.213 0.312 0.0777 0.213 0.312 0.0777 1.101 1.101
13 0.213 0.312 0.0777 0.213 0.312 0.0777 1.101 1.101

MiddleBondTorsion Coeffs

1 -17.787 -7.1877 0 1.53
2 0 0 0 1.53
3 -14.879 -3.6581 -0.3138 1.53
4 -17.787 -7.1877 0 1.53
5 -14.879 -3.6581 -0.3138 1.53
6 0 0 0 1.53
7 -14.879 -3.6581 -0.3138 1.53
8 0 0 0 1.53
9 -14.879 -3.6581 -0.3138 1.53
10 0 0 0 1.53
11 0 0 0 1.53
12 -14.261 -0.5322 -0.4864 1.53
13 -14.261 -0.5322 -0.4864 1.53

BondBond13 Coeffs

1 0 1.53 1.53
2 0 1.53 1.79
3 0 1.53 1.101
4 0 1.53 1.53
5 0 1.53 1.101
6 0 1.53 1.79
7 0 1.53 1.101
8 0 1.53 1.79
9 0 1.53 1.101
10 0 1.79 1.101
11 0 1.79 1.101
12 0 1.101 1.101
13 0 1.101 1.101

AngleTorsion Coeffs

1 0.3886 -0.3139 0.1389 0.3886 -0.3139 0.1389 112.67 112.67
2 0 0 0 0 0 0 112.67 107
3 -0.2454 0 -0.1136 0.3113 0.4516 -0.1988 112.67 110.77
4 0.3886 -0.3139 0.1389 0.3886 -0.3139 0.1389 112.67 112.67
5 -0.2454 0 -0.1136 0.3113 0.4516 -0.1988 112.67 110.77
6 0 0 0 0 0 0 112.67 107
7 -0.2454 0 -0.1136 0.3113 0.4516 -0.1988 112.67 110.77
8 0 0 0 0 0 0 112.67 107
9 -0.2454 0 -0.1136 0.3113 0.4516 -0.1988 112.67 110.77
10 0 0 0 0 0 0 107 110.77
11 0 0 0 0 0 0 107 110.77
12 -0.8085 0.5569 -0.2466 -0.8085 0.5569 -0.2466 110.77 110.77
13 -0.8085 0.5569 -0.2466 -0.8085 0.5569 -0.2466 110.77 110.77

Improper Coeffs # class2/kk

1 0 0
2 0 0
3 0 0
4 0 0
5 0 0
6 0 0
7 0 0
8 0 0
9 0 0
10 0 0
11 0 0

AngleAngle Coeffs

1 0 0 0 107 110.77 107.997
2 0.1184 -1.3199 -1.3199 110.77 112.67 110.77
3 0 0 0 110.77 107 107.997
4 0.2738 -0.4825 0.2738 110.77 110.77 107.66
5 -1.3199 -1.3199 0.1184 112.67 110.77 110.77
6 0.2738 -0.4825 0.2738 110.77 110.77 107.66
7 0 0 0 107.997 107.997 107.66
8 -0.3157 -0.3157 -0.3157 107.66 107.66 107.66
9 0 0 0 112.67 107 107
10 -1.3199 -1.3199 0.1184 112.67 110.77 110.77
11 0 0 0 107 110.77 107.997

Atoms # full/kk

3297 10 4 0.053 10.566240442514186 11.031473809951965 42.04820567628172 1 0 0
3302 10 4 0.053 11.408062210905708 9.467494426977845 7.872326477086315 1 0 1
3309 10 4 0.053 9.60106580739497 8.894319910625693 10.711048846177036 1 0 1
3308 10 4 0.053 8.048177585902865 9.520414797205714 10.056037986538056 1 0 1
3311 10 4 0.053 8.60194872964454 6.547297530501879 10.752046857951898 1 0 1
3307 10 1 -0.106 8.782557390542726 8.69864670503831 10.008705886633344 1 0 1
3305 10 4 0.053 8.747469558524562 8.73590756851961 7.866013289835543 1 0 1
3304 10 2 0.131 9.444409646787618 8.71717994819682 8.669017269621508 1 0 1
3301 10 1 -0.106 10.584077449577489 9.787387967344817 8.544172833547869 1 0 1
3310 10 2 0.131 7.96360956451937 7.47982510928435 10.53944108693493 1 0 1
3306 10 3 -0.184 10.211872654904083 7.200846407256832 8.313840788694469 1 0 1
3303 10 4 0.053 11.016635255398377 9.78465999198878 9.634256245300813 1 0 1
3298 10 2 0.131 10.006491791194538 11.152541633565615 8.27265860787451 1 0 1
3315 10 4 0.053 7.019748432456891 7.19634387339451 8.649986392323612 1 0 1
3313 10 1 -0.106 6.6305088407985435 7.228699302558589 9.701669940438723 1 0 1
3296 10 4 0.053 8.76295001129169 10.81905259741859 6.6428819141658755 1 0 1
3295 10 1 -0.106 9.665420619984259 11.387635512058152 6.802946855014001 1 0 1
3314 10 4 0.053 41.910687768698295 8.09017998692011 9.765561302392054 0 0 1
2480 7 4 0.053 16.091841290850592 11.824393261047128 8.378517615870404 0 0 1
2481 7 4 0.053 14.397081481666548 11.889956376436512 8.08589794384128 0 0 1
2491 7 1 -0.106 14.958321374329948 6.721412662070292 8.347633376977928 0 0 1
2492 7 4 0.053 14.62006863172156 6.897806369610647 7.226030724075035 0 0 1
2493 7 4 0.053 16.00127013814336 7.083625332407598 8.410400387031059 0 0 1
2489 7 4 0.053 13.14822445575825 7.218333315402466 9.56252981465624 0 0 1
2476 7 2 0.131 14.744756612569583 11.889571881113305 10.11590893256369 0 0 1
2477 7 4 0.053 13.721420622032909 11.648961378120138 10.367478308051407 0 0 1
2484 7 3 -0.184 15.687339126031631 9.52480493942143 6.783240184429365 0 0 1
2473 7 1 -0.106 15.60999547665892 11.409593257472144 11.321735928011874 0 0 1
2479 7 1 -0.106 15.16847101762711 11.369134302569929 8.667503882692802 0 0 1
2490 7 3 -0.184 15.004406208271833 7.725069458542391 10.889092716280352 0 0 1
2487 7 4 0.053 13.419525959121161 9.107647203559988 7.738759425016253 0 0 1
2475 7 4 0.053 15.611897944377052 10.282869202311318 11.273271095896071 0 0 1
2488 7 2 0.131 14.162068092350168 7.67210887684839 9.290575487084805 0 0 1
2485 7 1 -0.106 14.007613414100716 9.081516755232006 8.713946518218304 0 0 1
2486 7 4 0.053 13.30700566742512 9.593430030584036 9.4256323386016 0 0 1
2482 7 2 0.131 15.328548212477832 9.879060192316729 8.453233581125673 0 0 1
2483 7 4 0.053 16.240055676175405 9.542026524583445 9.031409655145815 0 0 1
2470 7 2 0.131 17.091762917841848 11.913536480610787 11.35896994116382 0 0 1
2463 7 4 0.053 20.36501154387476 11.514098466299366 11.415376527951524 0 0 1
2467 7 1 -0.106 17.830542891463068 11.212238651053736 12.496886676490174 0 0 1
2469 7 4 0.053 18.15228004425701 10.271230456722403 12.203809012121395 0 0 1
1228 4 2 0.131 22.34917400340438 10.651963550969906 6.4128884872436505 0 0 1
2472 7 3 -0.184 18.037032952512536 11.52665056160838 9.916339953153397 0 0 1
1239 4 4 0.053 20.560235759501907 6.896161800212397 7.9342027050712405 0 0 1
2911 9 4 0.053 19.62935354715345 8.138236394595125 11.920245612731033 0 1 1
1229 4 4 0.053 23.032159513302535 10.905025729346171 7.230599607993468 0 0 1
1238 4 4 0.053 22.077110054100075 7.477253297104767 7.29568315754996 0 0 1
1231 4 1 -0.106 20.983656960605863 10.184871519712761 6.845780444375066 0 0 1
1232 4 4 0.053 20.425644906744072 11.080826740458411 7.25013442347819 0 0 1
2904 9 4 0.053 21.31816293554644 6.72746603106546 10.594333437655678 0 1 1
1237 4 1 -0.106 20.968527109109132 7.616564957093405 7.233991817253882 0 0 1
1235 4 4 0.053 19.70802187730895 9.071337735504942 8.231263436138647 0 0 1
1234 4 2 0.131 20.70540380983644 8.977002179274395 7.8007752917715925 0 0 1
1236 4 3 -0.184 21.77747235694892 9.137849479306462 9.23175028436804 0 0 1
533 2 4 0.053 24.071418973109274 7.891122824025003 10.726606203710945 0 1 0
539 2 4 0.053 24.490707805260133 8.57077427513224 8.186642477664428 0 1 0
541 2 4 0.053 25.487895840068976 8.199003067594822 41.94242955214704 0 1 -1
550 2 4 0.053 30.164033481868685 8.379225696852263 7.173984342373532 0 1 0
549 2 1 -0.106 29.777190854020024 8.969205086662093 6.400048646486543 0 1 0
552 2 2 0.131 30.646025390758833 10.267093443225143 6.266338095732727 0 1 0
1449 5 1 -0.159 27.099039981194647 11.92931715421657 11.59394487781884 0 0 0
1450 5 4 0.053 26.83799616513814 11.160517868558339 10.865610678371437 0 0 0
546 2 2 0.131 28.165665231308463 9.020589805557822 6.542326899414398 0 1 0
532 2 4 0.053 24.87655685421904 9.484387906941166 10.669174432565828 0 1 0
1809 5 4 0.053 27.635837328753325 11.550314934449432 12.453433648833325 0 0 0
543 2 1 -0.106 27.50805343308756 7.652106944826198 6.672711673518582 0 1 0
535 2 4 0.053 25.9388395029608 6.7407526056573985 9.550578994621148 0 1 0
540 2 2 0.131 26.00309392111507 7.688039693976785 6.885539315266481 0 1 0
547 2 4 0.053 27.798950641844613 9.650849562388375 7.3949318829975565 0 1 0
545 2 4 0.053 27.940851689079334 7.085143978366686 7.518314287808857 0 1 0
531 2 1 -0.106 25.09714604083644 8.344454314509417 10.730941178423981 0 1 0
536 2 3 -0.184 27.70867439623274 8.319622027841522 10.021746658791791 0 1 0
538 2 4 0.053 25.925246030760462 9.47518007466446 8.22893254629783 0 1 0
537 2 1 -0.106 25.557512944806387 8.440891267625773 8.194629464601247 0 1 0
534 2 2 0.131 25.976520961686205 7.8431055441402675 9.591689092244954 0 1 0
3046 9 3 -0.184 35.896438653188824 6.334596385856546 13.138797193788179 0 1 1
559 2 4 0.053 33.52414387851401 11.496959745261705 6.275005065660004 0 1 0
556 2 4 0.053 32.52586575523006 9.195081714002932 41.946564657748596 0 1 -1
554 2 3 -0.184 30.947562681026813 10.897184862158621 7.885275220841095 0 1 0
3033 9 4 0.053 30.808323565168813 10.660836680512642 12.045574386782262 0 1 1
2563 8 4 0.053 34.51298572180997 7.2962964115447635 7.342849750671244 0 0 0
3041 9 1 -0.106 34.04652470353902 7.846760592045144 12.423588981032513 0 1 1
3038 9 2 0.131 32.684291373392895 8.479798404002947 12.223813989382453 0 1 1
3040 9 3 -0.184 31.795566726682452 7.581479578553753 11.027944503821733 0 1 1
3037 9 4 0.053 32.670482822656396 9.824775068681364 10.46671034982855 0 1 1
3036 9 4 0.053 33.746812255923196 10.30695952219029 11.690340203513282 0 1 1
3035 9 1 -0.106 32.76537752829638 9.918184815649234 11.540419312239994 0 1 1
3042 9 4 0.053 34.45082772743389 7.853134012707906 11.392570327748047 0 1 1
2572 8 4 0.053 35.675149163015966 9.221908702672811 6.8744312601801445 0 0 0
2594 8 3 -0.184 35.677502654535914 12.152126546090482 11.540561479847748 0 0 0
2571 8 1 -0.106 36.484286879240145 8.911762048045016 42.12961009973633 0 0 -1
3316 10 2 0.131 41.71585520207873 41.83986675659253 9.851669442095908 0 -1 1
2588 8 3 -0.184 38.44302128562195 8.400862451475813 11.651925756347481 0 0 0
2586 8 2 0.131 37.98832347058381 10.059606609298417 11.178851382202488 0 0 0
3317 10 4 0.053 41.18901876445318 41.73159353048922 10.775474064551792 0 -1 1
3318 10 3 -0.184 40.75999809286246 41.801543101137895 8.281373558238961 0 -1 1
2576 8 3 -0.184 37.14195892813943 7.508984457614746 8.417244284322159 0 0 0
2587 8 4 0.053 36.98686169012283 10.025696748119547 10.630492055260524 0 0 0
2578 8 4 0.053 37.243471687105576 10.341865722619822 8.520243277107431 0 0 0
2575 8 4 0.053 38.438808847641525 8.22420407958357 6.654391572767981 0 0 0
2585 8 4 0.053 40.0301863266625 10.661893581328373 10.753396948984097 0 0 0
2584 8 4 0.053 38.82265341332814 11.659730699802589 9.879842816333547 0 0 0
2579 8 4 0.053 38.422080066091 10.791822870464685 7.096013324468323 0 0 0
2574 8 2 0.131 37.66309663364399 8.68899459777395 7.236588015972703 0 0 0
2577 8 1 -0.106 38.12564762998878 10.020312410081672 7.90976376436788 0 0 0
2583 8 1 -0.106 39.036845717635885 10.65724880510173 10.200177121867577 0 0 0
2582 8 3 -0.184 40.72236548731938 10.512816041300823 8.107196915341108 0 0 0
2580 8 2 0.131 39.30932180641686 9.834573512869682 8.930832772880114 0 0 0
2581 8 4 0.053 39.543576338958744 8.782401526359308 9.123850072658007 0 0 0
3293 10 4 0.053 10.310842642359482 13.458355745632723 6.3949400466810005 1 0 1
3284 10 4 0.053 42.085386944545704 15.099339241970666 7.856863530767763 0 0 1
1075 3 4 0.053 9.24885436536103 17.306705678819228 11.674665341694437 0 0 1
1070 3 2 0.131 10.905086180888977 17.44233197748676 10.242003394454757 0 0 1
3299 10 4 0.053 9.262706987389354 11.294334935877846 9.025369653744873 1 0 1
3300 10 3 -0.184 11.403144971263227 12.221190428610706 8.740219751172521 1 0 1
1077 3 4 0.053 11.3077994980655 14.871057636753457 11.454777731724246 0 0 1
1076 3 2 0.131 10.408762777153498 15.3293268493744 11.964245790998518 0 0 1
3286 10 2 0.131 7.000514540284408 13.187118270681207 7.557784070826781 1 0 1
3291 10 4 0.053 8.912678910767033 14.175110015449933 7.91781839844063 1 0 1
1074 3 4 0.053 9.13356011274443 16.088032417613817 10.2921044215348 0 0 1
1064 3 2 0.131 9.798080805875212 17.871059405019942 7.951245581712279 0 0 1
3292 10 2 0.131 9.431192643009506 12.82890664008627 6.380228953669919 1 0 1
1071 3 4 0.053 11.597778767088418 16.844519712578958 9.683507696471471 0 0 1
3287 10 4 0.053 6.77559463802994 12.255161156275445 7.080224415037346 1 0 1
1080 3 4 0.053 8.430205422812474 14.560945448632028 12.46771974987144 0 0 1
1079 3 1 -0.106 9.354208829347126 14.215543176334178 12.116300568159563 0 0 1
1073 3 1 -0.106 9.849882259329272 16.570582280760604 11.038405908453564 0 0 1
1081 3 4 0.053 9.28785564500626 13.809502261887925 11.071407845868949 0 0 1
1065 3 4 0.053 9.190050719634813 16.985608056520554 8.329076250932646 0 0 1
3289 10 1 -0.106 8.40845730801504 13.694952733374848 7.089304130643374 1 0 1
3288 10 3 -0.184 7.211650321650857 12.913777257313942 9.286888517328943 1 0 1
2434 7 2 0.131 15.954238340838646 17.64225316796213 8.13400721277321 0 0 1
2478 7 3 -0.184 14.591261532302406 13.699735379720847 10.107751830534967 0 0 1
2970 9 4 0.053 14.992469513466888 17.36922267070169 12.231108170137182 0 1 1
2435 7 4 0.053 16.08606137652749 18.75419528681973 8.383244571537334 0 0 1
2973 9 4 0.053 17.36385209494172 18.088560649890262 12.359927803280797 0 1 1
2436 7 3 -0.184 14.409086247645213 17.257875431532955 8.919147100929763 0 0 1
2439 7 4 0.053 16.639985005393847 15.666282118859568 8.575517431614031 0 0 1
2438 7 4 0.053 16.934960808953093 16.8519409326869 9.847968346694437 0 0 1
2437 7 1 -0.106 16.974088918024798 16.682658618088624 8.755020305639961 0 0 1
2431 7 1 -0.106 15.788787690805924 17.484317070286618 6.62277705498413 0 0 1
2471 7 4 0.053 17.177534342286073 13.046708922955137 11.3999831130859 0 0 1
2429 7 4 0.053 13.710192026504803 17.97584127666327 6.4266142680645 0 0 1
2441 7 4 0.053 18.71804102530423 16.784028022881266 7.220254497146438 0 0 1
2440 7 2 0.131 18.449952721915313 16.77557604109085 8.283080457655963 0 0 1
2451 7 4 0.053 20.60783853234171 13.416536295455387 9.40774183449738 0 0 1
2449 7 1 -0.106 21.34411220009216 14.288743430517092 9.40934168315684 0 0 1
2446 7 2 0.131 20.688316826929224 15.460653921615346 8.690820301407207 0 0 1
2443 7 1 -0.106 19.254395859981294 15.611395122684181 8.985768702866588 0 0 1
2452 7 2 0.131 21.824141417945334 14.734835725610953 10.78192576796822 0 0 1
2455 7 1 -0.106 22.305512885054146 13.553502814098744 11.647594288342134 0 0 1
2445 7 4 0.053 18.775598393506314 14.678824932210178 8.848772812604366 0 0 1
2447 7 4 0.053 21.12779523339337 16.471150420885806 8.822708110664705 0 0 1
2453 7 4 0.053 21.173795466674818 15.448646387529378 11.21835855725106 0 0 1
2462 7 4 0.053 19.52491965360998 13.147269076251671 11.348220829391517 0 0 1
2450 7 4 0.053 22.25281192130799 13.933225370010444 8.911951869199985 0 0 1
2444 7 4 0.053 19.101855253825143 15.793128381924937 10.056236233270221 0 0 1
2457 7 4 0.053 22.47268466298516 12.741967135457106 10.966597698896157 0 0 1
2454 7 3 -0.184 23.335412054074947 15.657691634142994 10.484785219268904 0 0 1
2456 7 4 0.053 23.35832616679916 13.654781388751303 12.125414734791681 0 0 1
2461 7 1 -0.106 20.103893033159938 12.444232805002777 12.051176348179085 0 0 1
2448 7 3 -0.184 20.915952994052574 15.314548951517258 6.969107804318703 0 0 1
1226 4 4 0.053 21.754425106670446 12.661596194367801 41.910320344549774 0 0 0
2442 7 3 -0.184 18.943699196237816 18.41589855766847 8.892599623460761 0 0 1
2458 7 2 0.131 21.352812269750995 12.985473643562798 12.699098730972704 0 0 1
1455 5 1 -0.106 27.285648376048275 13.876074034372294 9.766306537976012 0 0 0
1458 5 2 0.131 28.172631196220976 14.932155276234436 9.08391919082693 0 0 0
1459 5 4 0.053 27.48731290677919 15.3704593916248 8.330047645833565 0 0 0
1452 5 2 0.131 27.932410990775942 13.136171666483307 10.990682149208789 0 0 0
1466 5 3 -0.184 28.588288654739177 18.018778155370462 8.164025078740213 0 0 0
1453 5 4 0.053 28.98863353405876 12.841440901479405 10.787450950051674 0 0 0
1461 5 1 -0.106 28.994166512765386 16.02949522840335 9.815227202652895 0 0 0
1463 5 4 0.053 28.375411294970416 16.55682495368221 10.547032103930016 0 0 0
1456 5 4 0.053 26.269989183952717 14.345048488675967 10.028208931270251 0 0 0
1224 4 3 -0.184 24.482070260005695 13.199578354123224 6.707654140923755 0 0 1
1457 5 4 0.053 26.985961602839975 13.113152142926104 9.003808106804744 0 0 0
1460 5 3 -0.184 29.4479819644209 13.961922486484202 8.152475401934815 0 0 0
1464 5 2 0.131 29.75850929032279 16.984897039395136 8.910086702335338 0 0 0
1465 5 4 0.053 30.25277223605717 16.414115694904417 8.123757894383516 0 0 0
1462 5 4 0.053 29.76129624841165 15.429141578921255 10.447249364782435 0 0 0
1468 5 4 0.053 30.50864783842764 18.55528823237092 10.252017044444766 0 0 0
1470 5 2 0.131 31.595066486344535 18.773122150406046 8.44433377956473 0 0 0
1469 5 4 0.053 31.650331580153086 17.27892877568673 10.018415288074948 0 0 0
1467 5 1 -0.106 30.846672145805375 17.873968242303366 9.525414891670117 0 0 0
577 2 4 0.053 35.21671850978815 14.300718500733936 8.204079108342157 0 1 0
1472 5 3 -0.184 32.4275210712609 17.892952811877684 7.036923245166202 0 0 0
584 2 3 -0.184 35.17392543502652 16.858965938076857 9.93546612516281 0 1 0
569 2 4 0.053 33.42698689819055 14.608344287743956 6.37692898748487 0 1 0
575 2 4 0.053 35.6403589975277 16.42019711869243 7.029844270192905 0 1 0
3034 9 3 -0.184 31.872189598296817 12.30405676498033 10.902093027590059 0 1 1
563 2 4 0.053 31.380388397162477 12.763621581137883 41.40227428248688 0 1 -1
595 2 4 0.053 41.5395431425444 18.539427668662686 11.15183810216887 0 1 0
576 2 2 0.131 36.145434028171124 14.613481208417534 7.7864631416080625 0 1 0
573 2 1 -0.106 36.08421269581699 15.519604904330835 6.58159162934874 0 1 0
578 2 3 -0.184 37.07887546240342 13.183214188014194 7.188275999147582 0 1 0
581 2 4 0.053 37.11287315477081 14.498153536455964 9.772151012236238 0 1 0
587 2 4 0.053 37.5042573370517 17.853748084580474 11.105073123031259 0 1 0
574 2 4 0.053 37.09572141081246 15.779286637211698 42.06560567795401 0 1 -1
579 2 1 -0.106 37.07247147973156 15.198651393225537 8.91076246512647 0 1 0
580 2 4 0.053 38.110009670768044 15.164864547128445 8.5056361719918 0 1 0
586 2 4 0.053 37.388536354592375 16.126672503232705 11.534899099450373 0 1 0
589 2 4 0.053 39.77272474771165 17.237943730211306 9.803520658710907 0 1 0
590 2 3 -0.184 39.696846083973426 14.95678809506039 10.504152269898745 0 1 0
582 2 2 0.131 36.86792910464246 16.579507788322005 9.451766722431005 0 1 0
585 2 1 -0.106 37.7005988842521 16.823747970568323 10.73183570736598 0 1 0
588 2 2 0.131 39.28775295484148 16.704617337188107 10.63093168908596 0 1 0
2593 8 4 0.053 37.94154956125321 12.96343544318016 12.091909173551128 0 0 0
583 2 4 0.053 37.06770144704712 17.328264992758434 8.688900489239717 0 1 0
3285 10 4 0.053 40.826601359257054 13.761002692961632 8.030737030490878 0 0 1
3283 10 1 -0.106 41.6791910860306 14.142760542977417 7.429981275573479 0 0 1
1434 4 3 -0.184 11.039661434642719 23.61714867174134 7.620081166141372 0 -1 2
1060 3 3 -0.184 6.79511255706464 17.71340090539383 8.143341621632821 0 0 1
1059 3 4 0.053 7.495584266807288 19.966387715911996 7.971823858219252 0 0 1
950 3 2 0.131 7.217910122847633 23.199281067145364 10.716254344964481 0 0 1
952 3 3 -0.184 7.880030801765725 21.906355872450675 9.73020716584092 0 0 1
1068 3 4 0.053 9.320384898664736 19.024411331331123 9.671443815610383 0 0 1
1069 3 4 0.053 10.939127106983946 19.322343817684544 8.956950238114443 0 0 1
951 3 4 0.053 7.470034088548515 23.05774030692053 11.832508317306294 0 0 1
3256 9 3 -0.184 11.327747163124023 22.873153566790638 11.42771203397914 0 1 1
1058 3 2 0.131 7.548895021238563 19.126276639838878 7.311396025625716 0 0 1
1067 3 1 -0.106 10.27010052332901 18.50458179745946 9.277901768032118 0 0 1
1072 3 3 -0.184 11.928307359792598 18.317097267568585 11.351501964746944 0 0 1
3255 9 4 0.053 10.740874243186877 20.976544451540594 12.627507521868765 0 1 1
602 2 3 -0.184 7.736226496696836 19.895780514890617 12.26992622284443 1 1 0
1436 4 4 0.053 13.914976744818373 23.50175545160446 6.282547863805306 0 -1 2
2974 9 3 -0.184 16.04083159516885 19.660522393830586 11.374488406707034 0 1 1
2430 7 3 -0.184 14.873229784723168 19.971744838331738 6.244774346088445 0 0 1
1445 4 4 0.053 14.94152924132926 24.185243943310976 10.570190622123508 0 -1 2
1448 4 4 0.053 15.312971555256807 22.728897171244025 11.44560691552384 0 -1 2
1443 4 4 0.053 14.25572327954854 22.060707159230343 9.389494333243332 0 -1 2
1446 4 3 -0.184 17.216620464518783 23.75837780150765 10.587824957460635 0 -1 2
1440 4 3 -0.184 16.394772965708583 23.055812041705682 6.800834717466552 0 -1 2
1438 4 2 0.131 15.141240073404585 23.38817468368928 8.046946966895511 0 -1 2
1444 4 1 0.078 15.542830768305476 23.25251073212374 10.52547013757011 0 -1 2
1437 4 4 0.053 13.373464166367246 22.162348751358522 7.507249202231828 0 -1 2
2972 9 2 0.131 16.5765039254354 18.65031504346829 12.763470696593354 0 1 1
1435 4 1 -0.106 13.74635975273052 23.206811069936848 7.338798952899943 0 -1 2
1441 4 1 -0.106 15.237897588125279 22.53266499093994 9.272188787546435 0 -1 2
1442 4 4 0.053 15.897063929729747 21.69902737747772 9.149301364366174 0 -1 2
2979 9 4 0.053 18.504785667817266 20.869028770432703 12.949062647942979 0 1 1
1508 5 3 -0.184 22.05864738951621 20.5043417968323 41.67325235035804 0 0 -1
1517 5 4 0.053 18.722072989618315 24.096972082000523 7.652420268562559 0 0 0
1516 5 4 0.053 19.958946750779866 23.96054675458827 8.92898886017119 0 0 0
1515 5 1 -0.106 19.79230608786434 24.03383756987839 7.832008283576372 0 0 0
1513 5 4 0.053 20.303163663932768 22.68972263904187 42.041001174235916 0 0 -1
1506 5 2 0.131 22.251876747961656 20.96960506439082 7.5233077561389825 0 0 0
1507 5 4 0.053 21.658440418738138 20.214908308677522 8.114931093304932 0 0 0
1510 5 4 0.053 21.808838651671095 22.594135270609712 8.859876931981585 0 0 0
1514 5 3 -0.184 19.10022276961231 21.33079694446888 7.735955246369505 0 0 0
2983 9 4 0.053 19.31490620377118 18.207436216069755 12.50910877248402 0 1 1
1509 5 1 -0.106 21.78095470057076 22.42130264715019 7.752408945026301 0 0 0
1511 5 4 0.053 22.5051901330428 23.053845112903943 7.157577292903208 0 0 0
1503 5 1 -0.106 23.82630974429641 20.789497148248202 7.778379685854925 0 0 0
1512 5 2 0.131 20.273379863571513 22.641024633377068 7.2727983434416155 0 0 0
1504 5 4 0.053 24.43597699511456 21.48289767887846 7.187503262280924 0 0 0
1502 5 3 -0.184 23.735440147615158 18.983017462261117 9.627993691341613 0 0 0
2986 9 3 -0.184 20.627281958133082 20.3181731154813 11.115861932053125 0 1 1
1505 5 4 0.053 24.06972270822655 19.84915178676146 7.352785857027948 0 0 0
2988 9 4 0.053 22.058567126433758 17.952585236243817 11.880119681657328 0 1 1
1491 5 1 -0.106 27.74634622346264 22.15576981083628 8.835478535162801 0 0 0
1494 5 2 0.131 26.259614239811288 22.302384717009627 9.17184596997935 0 0 0
1499 5 4 0.053 26.208113172009618 20.48865011957561 10.36384071235957 0 0 0
1493 5 4 0.053 28.331679787622736 21.70863284870888 9.691587953625957 0 0 0
2878 8 4 0.053 29.43109500283289 23.086975765216145 11.85985570506862 0 0 0
1497 5 1 -0.106 25.700835392380593 20.89111977377069 9.428235113954374 0 0 0
1495 5 4 0.053 25.697764732613887 22.86132915271272 8.447876358546829 0 0 0
1501 5 4 0.053 23.792417081242835 21.340911827858022 9.93869376081406 0 0 0
1492 5 4 0.053 27.80741479262644 21.336759716852036 7.936553243410982 0 0 0
2876 8 3 -0.184 29.977488886709004 20.326619231535247 12.382838665133015 0 0 0
1500 5 2 0.131 24.24642921940672 20.607408162684088 9.24244554035723 0 0 0
1488 5 2 0.131 28.530644389334203 23.39138018957949 8.209470205052552 0 0 0
1498 5 4 0.053 26.130044716035858 20.19002914226975 8.616766610176635 0 0 0
1496 5 3 -0.184 26.16150003437204 23.128173816076394 10.717073893562535 0 0 0
1489 5 4 0.053 28.780571931492307 24.199452970495752 8.947585296164926 0 0 0
1487 5 4 0.053 30.360484169059564 23.96323205484588 6.990555335473201 0 0 0
2858 8 3 -0.184 35.496599168873 25.11614414676698 11.885823368369522 0 0 0
1485 5 1 -0.106 29.945192744807258 23.077946240393647 7.530919174274871 0 0 0
931 3 4 0.053 35.38855664389958 23.45797127132504 8.217077597524257 -1 0 1
1483 5 4 0.053 30.73400542545576 21.745579088719182 9.160254387587628 0 0 0
1482 5 2 0.131 31.09993629514909 22.531301394023885 8.458876950954044 0 0 0
1477 5 4 0.053 33.83838217293911 21.620271258056384 8.966449791289127 0 0 0
1476 5 2 0.131 33.245223323806414 20.93893755848847 8.290300546498079 0 0 0
1479 5 1 -0.106 32.20801270860919 21.866752948972973 7.57746950195148 0 0 0
1474 5 4 0.053 32.30454214253365 19.942206907853468 10.114798695457507 0 0 0
1481 5 4 0.053 32.88806494973808 22.634339972747558 7.112862705693494 0 0 0
1484 5 3 -0.184 31.731916670330097 23.833272182541126 9.385857925776397 0 0 0
1475 5 4 0.053 33.477447128416316 19.016319102541075 9.357474891909083 0 0 0
1471 5 4 0.053 30.74285966591751 19.41885519196343 7.989856947123191 0 0 0
1473 5 1 -0.106 32.634300938251975 19.68238975561078 9.10610671910751 0 0 0
1478 5 3 -0.184 34.52829145974037 20.38991390279174 7.141537701617276 0 0 0
1480 5 4 0.053 31.811595311528386 21.356317154007403 6.698863742898507 0 0 0
2863 8 4 0.053 34.121190019634774 22.33415973779421 11.968629784544442 0 0 0
2864 8 3 -0.184 35.283389388809255 20.248957912653132 11.902557509674741 0 0 0
930 3 4 0.053 35.678050266352514 23.02256909397018 6.589775265537696 -1 0 1
949 3 4 0.053 41.304080421607 23.286742014422643 9.439312210492472 -1 0 1
932 3 2 0.131 37.50782808231661 23.159252999131922 7.856071419207594 -1 0 1
936 3 4 0.053 36.8522688482268 21.49816997134516 9.187358518454463 -1 0 1
1053 3 4 0.053 40.599129624292445 19.763440835660123 6.805764119618361 -1 0 1
942 3 4 0.053 38.95147619747554 23.123573939570434 10.308850441916785 -1 0 1
937 3 4 0.053 37.34668506806181 21.02131342536822 7.580092241147849 -1 0 1
939 3 4 0.053 39.617306859884295 21.879768827751377 8.403947777732025 -1 0 1
935 3 1 -0.106 37.56485156268765 21.73751694524833 8.450998899418412 -1 0 1
941 3 1 -0.106 39.199587547026994 22.04513563468972 10.506455898105198 -1 0 1
938 3 2 0.131 38.970875425247144 21.43583686460879 9.124680165102797 -1 0 1
940 3 3 -0.184 38.99038363859067 19.660880423889274 9.249798227823563 -1 0 1
944 3 2 0.131 40.62424536130946 21.975045938229677 10.942115426301491 -1 0 1
945 3 4 0.053 41.095468392013856 21.031269622168363 10.616705703529698 -1 0 1
943 3 4 0.053 38.49782920053153 21.73847361650305 11.269754060271412 -1 0 1
947 3 1 -0.106 41.552541002234506 23.190245530241786 10.507429105105027 -1 0 1
957 3 4 0.053 6.541247695053584 26.000759920363823 9.778432641232545 0 0 1
1941 6 4 0.053 11.286559614979282 29.906913622294873 9.708286476798058 0 0 1
1944 6 4 0.053 8.659961274277862 30.099523822482244 10.251114735602949 0 0 1
962 3 2 0.131 6.420398172051027 25.948857471037886 7.156490729453018 0 0 1
956 3 2 0.131 7.457145616443299 25.561061310421366 9.365498615728692 0 0 1
958 3 3 -0.184 8.709679031259572 26.854793420949793 9.326973124493543 0 0 1
1427 4 4 0.053 11.04448878205 26.782981791930606 7.411626102259756 0 -1 2
959 3 1 -0.106 7.378498839998052 25.035662161514022 7.948862716678135 0 0 1
961 3 4 0.053 7.008918829593665 24.01019467913013 7.933331665800841 0 0 1
954 3 4 0.053 8.223589703010806 24.95644127152785 11.232934282456656 0 0 1
963 3 4 0.053 6.700419679654442 26.976275893976144 7.388746607949642 0 0 1
960 3 4 0.053 8.380030422887451 25.044174287956956 7.465436028048446 0 0 1
953 3 1 -0.106 7.992488252015551 24.491565178928603 10.27984672153038 0 0 1
955 3 4 0.053 8.991457278665784 24.15841252824971 9.892223303100318 0 0 1
1425 4 4 0.053 12.182191793124332 28.899790606836337 6.968168963886546 0 -1 2
1439 4 4 0.053 15.155109918096562 24.463824965236704 8.186825478565359 0 -1 2
1424 4 4 0.053 13.577489341886828 28.062273911538448 6.405140320917761 0 -1 2
2028 6 4 0.053 16.840396684225333 28.188963585435783 6.322851440202928 0 0 1
2027 6 1 -0.106 17.562842901425725 29.047438042684533 6.4376291150060005 0 0 1
1433 4 4 0.053 12.80721292503858 24.60246406209897 8.793570051824496 0 -1 2
1428 4 3 -0.184 12.675562865529674 27.117953239192364 9.055345882575208 0 -1 2
1426 4 2 0.131 12.131869903283658 26.740870087675994 7.366703374352655 0 -1 2
2021 6 1 -0.106 17.31124497775553 29.407195876356905 9.073106994898737 0 0 1
1423 4 1 -0.106 12.496022159918029 28.011565304783296 6.469763858917334 0 -1 2
1429 4 1 -0.106 12.755063554831883 25.47697760669726 6.847100515739044 0 -1 2
1432 4 2 0.131 12.666848557056866 24.25637000978439 7.749815996658019 0 -1 2