units real
atom_style full
boundary p p p

# --- Force Field Styles ---
pair_style lj/class2/coul/long 9.5 9.5
kspace_style pppm 1e-6
dielectric 1.000000
bond_style class2
angle_style class2
dihedral_style class2
improper_style class2
special_bonds lj/coul 0 0 1
pair_modify mix sixthpower tail yes
neighbor 2.0 bin
neigh_modify delay 0 every 1 check yes
neigh_modify one 4000
# KOKKOS: package loaded via -pk kokkos on the command line

read_data /home/alexzhao/PolyJarvis/data/PEG2/lammps/equil/npt_production_ext/npt_ext_out.data
Reading data file ...
  orthogonal box = (4.1434904 4.1434904 4.1434904) to (45.177642 45.177642 45.177642)
  1 by 1 by 1 MPI processor grid
  reading atoms ...
  7020 atoms
  reading velocities ...
  7020 velocities
  scanning bonds ...
  4 = max bonds/atom
  scanning angles ...
  10 = max angles/atom
  scanning dihedrals ...
  16 = max dihedrals/atom
  scanning impropers ...
  7 = max impropers/atom
  orthogonal box = (4.1434904 4.1434904 4.1434904) to (45.177642 45.177642 45.177642)
  1 by 1 by 1 MPI processor grid
  reading bonds ...
  7010 bonds
  reading angles ...
  13000 angles
  reading dihedrals ...
  14970 dihedrals
  reading impropers ...
  8000 impropers
Finding 1-2 1-3 1-4 neighbors ...
  special bond factors lj:    0        0        1       
  special bond factors coul:  0        0        1       
     4 = max # of 1-2 neighbors
     6 = max # of 1-3 neighbors
     8 = max # of special neighbors
  special bonds CPU = 0.005 seconds
  read_data CPU = 0.338 seconds
include /home/alexzhao/PolyJarvis/data/PEG2/lammps/equil/emc_build.params
# LAMMPS parameters created by EMC v9.4.4, build Jul 31 2025 20:33:44

# Variables

variable	seed		index	533381
variable	ntotal		index	7020
variable	fshape		index	1
variable	output		index	emc_build
variable	field		index	pcff/pcff
variable	location1	index	~/emc/field/
variable	nav		index	0.6022141179
variable	temperature	index	300
variable	radius		index	5
variable	nrelax		index	100
variable	weight_nonbond	index	0.0001
variable	weight_bond	index	0.0001
variable	weight_focus	index	1
variable	cutoff		index	9.5
variable	charge_cutoff	index	9.5
variable	kappa		index	4
variable	density1	index	0.61
variable	lprevious	index	0
variable	lphase		index	49.3211329242
variable	f_poly		index	10
variable	chem_repeat	index	*CCO*
variable	chem_cap	index	*[H]
variable	lg_repeat	index	7
variable	lg_cap		index	1
variable	norm_poly	index	100
variable	l_poly		index	702
variable	mg_repeat	index	16.04303
variable	mg_cap		index	0
variable	m_poly		index	1604.303
variable	n_poly		index	10
variable	mtotal		index	44073.7394
variable	nphase1		index	7020
variable	mphase1		index	44073.7394
variable	vphase1		index	119977.313144
variable	lbox		index	49.3211329242
variable	lphase1		index	49.3211329242
variable	lxx		index	49.3211329242
variable	lyy		index	49.3211329242
variable	lzz		index	49.3211329242
variable	lzy		index	0
variable	lzx		index	0
variable	lyx		index	0
variable	vtotal		index	119977.313144
variable	nl_poly		index	10

# Types

variable	type_c		index	1
variable	type_hc		index	2
variable	type_ho		index	3
variable	type_oc		index	4
variable	type_oh		index	5

variable	type_bond_c_c	index	1
variable	type_bond_c_hc	index	2
variable	type_bond_c_oc	index	3
variable	type_bond_c_oh	index	4
variable	type_bond_ho_oh	index	5

variable	type_angle_c_c_hc index	1
variable	type_angle_c_c_oc index	2
variable	type_angle_c_c_oh index	3
variable	type_angle_c_oc_c index	4
variable	type_angle_c_oh_ho index	5
variable	type_angle_hc_c_hc index	6
variable	type_angle_hc_c_oc index	7
variable	type_angle_hc_c_oh index	8

# Clusters

variable	n0_poly		index	1
variable	n1_poly		index	10
variable	nl_poly		index	10

# Flags

variable	flag_charged	index	1

# Masses

mass		1    12.01115  # c
mass		2     1.00797  # hc
mass		3     1.00797  # ho
mass		4    15.99940  # oc
mass		5    15.99940  # oh

# Potentials

pair_modify	mix sixthpower tail yes
special_bonds	lj/coul 0 0 1

# Pair Coeffs

pair_coeff	 1  1    0.05400    4.01000  # c,c
pair_coeff	 2  2    0.02000    2.99500  # hc,hc
pair_coeff	 3  3    0.01300    1.09800  # ho,ho
pair_coeff	 4  4    0.24000    3.53500  # oc,oc
pair_coeff	 5  5    0.24000    3.53500  # oh,oh

# Bond Coeffs

bond_coeff	1    1.53000  299.67000 -501.77000  679.81000  # c,c
bond_coeff	2    1.10100  345.00000 -691.89000  844.60000  # c,hc
bond_coeff	3    1.42000  400.39540 -835.19510 1313.01420  # c,oc
bond_coeff	4    1.42000  400.39540 -835.19510 1313.01420  # c,oh
bond_coeff	5    0.96500  532.50620 -1282.90500 2004.76580  # ho,oh

# Angle Coeffs

angle_coeff	1  110.77000   41.45300  -10.60400    5.12900  # c,c,hc
angle_coeff	2  111.27000   54.53810   -8.36420  -13.08380  # c,c,oc
angle_coeff	3  111.27000   54.53810   -8.36420  -13.08380  # c,c,oh
angle_coeff	4  104.50000   35.74540  -10.00670   -6.27290  # c,oc,c
angle_coeff	5  105.80000   52.70610  -12.10900   -9.86810  # c,oh,ho
angle_coeff	6  107.66000   39.64100  -12.92100   -2.43180  # hc,c,hc
angle_coeff	7  108.72800   58.54460  -10.80880  -12.40060  # hc,c,oc
angle_coeff	8  108.72800   58.54460  -10.80880  -12.40060  # hc,c,oh

# BondBond Coeffs

angle_coeff	1 bb    3.38720    1.53000    1.10100  # c,c,hc
angle_coeff	2 bb   11.43180    1.53000    1.42000  # c,c,oc
angle_coeff	3 bb   11.43180    1.53000    1.42000  # c,c,oh
angle_coeff	4 bb   -7.11310    1.42000    1.42000  # c,oc,c
angle_coeff	5 bb   -9.68790    1.42000    0.96500  # c,oh,ho
angle_coeff	6 bb    5.33160    1.10100    1.10100  # hc,c,hc
angle_coeff	7 bb   23.19790    1.10100    1.42000  # hc,c,oc
angle_coeff	8 bb   23.19790    1.10100    1.42000  # hc,c,oh

# BondAngle Coeffs

angle_coeff	1 ba   20.75400   11.42100    1.53000    1.10100  # c,c,hc
angle_coeff	2 ba    2.68680   20.40330    1.53000    1.42000  # c,c,oc
angle_coeff	3 ba    2.68680   20.40330    1.53000    1.42000  # c,c,oh
angle_coeff	4 ba   -2.81120   -2.81120    1.42000    1.42000  # c,oc,c
angle_coeff	5 ba   28.58000   18.92770    1.42000    0.96500  # c,oh,ho
angle_coeff	6 ba   18.10300   18.10300    1.10100    1.10100  # hc,c,hc
angle_coeff	7 ba    4.61890   55.32700    1.10100    1.42000  # hc,c,oc
angle_coeff	8 ba    4.61890   55.32700    1.10100    1.42000  # hc,c,oh

# Dihedral Coeffs

dihedral_coeff	1   -0.52030    0.00000   -0.30280    0.00000   -0.34500    0.00000  # c,c,oc,c
dihedral_coeff	2   -0.67320    0.00000   -0.47780    0.00000   -0.16700    0.00000  # c,c,oh,ho
dihedral_coeff	3    0.53020    0.00000    0.00000    0.00000   -0.39660    0.00000  # c,oc,c,hc
dihedral_coeff	4   -0.14320    0.00000    0.06170    0.00000   -0.10830    0.00000  # hc,c,c,hc
dihedral_coeff	5   -0.14350    0.00000    0.25300    0.00000   -0.09050    0.00000  # hc,c,c,oc
dihedral_coeff	6   -0.14350    0.00000    0.25300    0.00000   -0.09050    0.00000  # hc,c,c,oh
dihedral_coeff	7    0.18630    0.00000   -0.43380    0.00000   -0.21210    0.00000  # hc,c,oh,ho
dihedral_coeff	8   -0.18200    0.00000   -0.10840    0.00000   -0.70470    0.00000  # oc,c,c,oc
dihedral_coeff	9   -0.18200    0.00000   -0.10840    0.00000   -0.70470    0.00000  # oc,c,c,oh

# MiddleBondTorsion Coeffs

dihedral_coeff	1 mbt   -5.92880   -2.70070   -0.31750    1.42000  # c,c,oc,c
dihedral_coeff	2 mbt    1.24720    0.00000    0.74850    1.42000  # c,c,oh,ho
dihedral_coeff	3 mbt   -6.80070   -4.65460   -1.41010    1.42000  # c,oc,c,hc
dihedral_coeff	4 mbt  -14.26100   -0.53220   -0.48640    1.53000  # hc,c,c,hc
dihedral_coeff	5 mbt  -16.79750   -1.22960   -0.27500    1.53000  # hc,c,c,oc
dihedral_coeff	6 mbt  -16.79750   -1.22960   -0.27500    1.53000  # hc,c,c,oh
dihedral_coeff	7 mbt    0.00000    0.92410   -0.58890    1.42000  # hc,c,oh,ho
dihedral_coeff	8 mbt  -17.25850   -3.61570   -0.83640    1.53000  # oc,c,c,oc
dihedral_coeff	9 mbt  -17.25850   -3.61570   -0.83640    1.53000  # oc,c,c,oh

# EndBondTorsion Coeffs

dihedral_coeff	1 ebt   -0.24560    1.05170   -0.77950    0.47410    1.26350    0.55760    1.53000    1.42000  # c,c,oc,c
dihedral_coeff	2 ebt   -0.58000    0.90040    0.00000    0.00000    0.53430    0.90250    1.53000    0.96500  # c,c,oh,ho
dihedral_coeff	3 ebt   -0.16200    0.15640   -1.14080   -0.60540    1.33390    0.96480    1.42000    1.10100  # c,oc,c,hc
dihedral_coeff	4 ebt    0.21300    0.31200    0.07770    0.21300    0.31200    0.07770    1.10100    1.10100  # hc,c,c,hc
dihedral_coeff	5 ebt    0.96810    0.95510    0.04360    0.59030    0.66690    0.85840    1.10100    1.42000  # hc,c,c,oc
dihedral_coeff	6 ebt    0.96810    0.95510    0.04360    0.59030    0.66690    0.85840    1.10100    1.42000  # hc,c,c,oh
dihedral_coeff	7 ebt   -1.75540    1.31450    0.22630    0.24930    0.68030    0.00000    1.10100    0.96500  # hc,c,oh,ho
dihedral_coeff	8 ebt    1.01650    0.75530   -0.46090    1.01650    0.75530   -0.46090    1.42000    1.42000  # oc,c,c,oc
dihedral_coeff	9 ebt    1.01650    0.75530   -0.46090    1.01650    0.75530   -0.46090    1.42000    1.42000  # oc,c,c,oh

# AngleTorsion Coeffs

dihedral_coeff	1 at   -2.74660    1.48770   -0.89550    0.56760    0.94500    0.07030  111.27000  104.50000  # c,c,oc,c
dihedral_coeff	2 at   -3.59030    2.52250    0.48880    0.87260   -0.35770    0.38880  111.27000  105.80000  # c,c,oh,ho
dihedral_coeff	3 at   -0.77770    0.43400   -0.66530   -1.82340    1.63930    0.51440  104.50000  108.72800  # c,oc,c,hc
dihedral_coeff	4 at   -0.80850    0.55690   -0.24660   -0.80850    0.55690   -0.24660  110.77000  110.77000  # hc,c,c,hc
dihedral_coeff	5 at    2.36680    2.49200   -1.01220   -0.18920    0.49180    0.72730  110.77000  111.27000  # hc,c,c,oc
dihedral_coeff	6 at    2.36680    2.49200   -1.01220   -0.18920    0.49180    0.72730  110.77000  111.27000  # hc,c,c,oh
dihedral_coeff	7 at   -3.40600    1.63960    0.07370    0.00000   -0.28100   -0.59440  108.72800  105.80000  # hc,c,oh,ho
dihedral_coeff	8 at    0.55110    0.97370   -0.66730    0.55110    0.97370   -0.66730  111.27000  111.27000  # oc,c,c,oc
dihedral_coeff	9 at    0.55110    0.97370   -0.66730    0.55110    0.97370   -0.66730  111.27000  111.27000  # oc,c,c,oh

# AngleAngleTorsion Coeffs

dihedral_coeff	1 aat  -19.00590  111.27000  104.50000  # c,c,oc,c
dihedral_coeff	2 aat  -12.10380  111.27000  105.80000  # c,c,oh,ho
dihedral_coeff	3 aat  -16.44380  104.50000  108.72800  # c,oc,c,hc
dihedral_coeff	4 aat  -12.56400  110.77000  110.77000  # hc,c,c,hc
dihedral_coeff	5 aat  -20.20060  110.77000  111.27000  # hc,c,c,oc
dihedral_coeff	6 aat  -20.20060  110.77000  111.27000  # hc,c,c,oh
dihedral_coeff	7 aat  -10.50930  108.72800  105.80000  # hc,c,oh,ho
dihedral_coeff	8 aat  -14.04840  111.27000  111.27000  # oc,c,c,oc
dihedral_coeff	9 aat  -14.04840  111.27000  111.27000  # oc,c,c,oh

# BondBond13 Coeffs

dihedral_coeff	1 bb13    0.00000    1.53000    1.42000  # c,c,oc,c
dihedral_coeff	2 bb13    0.00000    1.53000    0.96500  # c,c,oh,ho
dihedral_coeff	3 bb13    0.00000    1.42000    1.10100  # c,oc,c,hc
dihedral_coeff	4 bb13    0.00000    1.10100    1.10100  # hc,c,c,hc
dihedral_coeff	5 bb13    0.00000    1.10100    1.42000  # hc,c,c,oc
dihedral_coeff	6 bb13    0.00000    1.10100    1.42000  # hc,c,c,oh
dihedral_coeff	7 bb13    0.00000    1.10100    0.96500  # hc,c,oh,ho
dihedral_coeff	8 bb13    0.00000    1.42000    1.42000  # oc,c,c,oc
dihedral_coeff	9 bb13    0.00000    1.42000    1.42000  # oc,c,c,oh

# Improper Coeffs

improper_coeff	1    0.00000    0.00000  # c,c,hc,hc
improper_coeff	2    0.00000    0.00000  # c,c,hc,oc
improper_coeff	3    0.00000    0.00000  # c,c,oc,hc
improper_coeff	4    0.00000    0.00000  # c,c,oh,hc
improper_coeff	5    0.00000    0.00000  # c,hc,hc,hc
improper_coeff	6    0.00000    0.00000  # c,hc,hc,oc
improper_coeff	7    0.00000    0.00000  # c,hc,hc,oh

# AngleAngle Coeffs

improper_coeff	1 aa    0.27380   -0.48250    0.27380  110.77000  110.77000  107.66000  # c,c,hc,hc
improper_coeff	2 aa    3.91770    2.59260    0.16890  110.77000  111.27000  108.72800  # c,c,hc,oc
improper_coeff	3 aa    0.16890    2.59260    3.91770  111.27000  110.77000  108.72800  # c,c,oc,hc
improper_coeff	4 aa    0.16890    2.59260    3.91770  111.27000  110.77000  108.72800  # c,c,oh,hc
improper_coeff	5 aa   -0.31570   -0.31570   -0.31570  107.66000  107.66000  107.66000  # c,hc,hc,hc
improper_coeff	6 aa    2.42590    2.42590    2.12830  107.66000  108.72800  108.72800  # c,hc,hc,oc
improper_coeff	7 aa    2.42590    2.42590    2.12830  107.66000  108.72800  108.72800  # c,hc,hc,oh


# --- Thermo Output ---
thermo_style custom step time temp press enthalpy etotal ke pe ebond eangle edihed eimp evdwl ecoul elong etail vol lx ly lz density pxx pyy pzz
thermo_modify flush yes
thermo 500

# --- Velocity initialization at T_START (once only — Rule A) ---
velocity all create 440.0 216739 mom yes rot yes dist gaussian

# --- Temperature staircase (inherits momenta across steps — Rule A) ---
variable temps index 440 420 400 380 360 340 320 300 280 260 240 220 200 180 160 140 120 100
label TEMP_LOOP
  timestep 1
  fix npt_tg all npt temp ${temps} ${temps} 100 iso 1.0 1.0 1000.0
  fix npt_tg all npt temp 440 ${temps} 100 iso 1.0 1.0 1000.0
  fix npt_tg all npt temp 440 440 100 iso 1.0 1.0 1000.0
  run 50000
PPPM Kokkos initialization ...
  using 12-bit tables for long-range coulomb
  G vector (1/distance) = 0.30307348
  grid = 30 30 30
  stencil order = 5
  estimated absolute RMS force accuracy = 0.00030523211
  estimated relative force accuracy = 9.1919743e-07
  using double precision cuFFT
  3d grid and FFT values/proc = 50653 27000
Generated 10 of 10 mixed pair_coeff terms from sixthpower/sixthpower mixing rule
Neighbor list info ...
  update: every = 1 steps, delay = 0 steps, check = yes
  max neighbors/atom: 4000, page size: 100000
  master list distance cutoff = 11.5
  ghost atom cutoff = 11.5
  binsize = 11.5, bins = 4 4 4
  1 neighbor lists, perpetual/occasional/extra = 1 0 0
  (1) pair lj/class2/coul/long/kk, perpetual
      attributes: full, newton off, kokkos_device
      pair build: full/bin/kk/device
      stencil: full/bin/3d
      bin: kk/device
Per MPI rank memory allocation (min/avg/max) = 32.48 | 32.48 | 32.48 Mbytes
   Step          Time           Temp          Press         Enthalpy        TotEng         KinEng         PotEng         E_bond        E_angle        E_dihed        E_impro         E_vdwl         E_coul         E_long         E_tail         Volume           Lx             Ly             Lz          Density          Pxx            Pyy            Pzz      
         0   0              440            1849.2296      8830.7367      6967.3495      9205.8145     -2238.465       2308.4335      4900.8307     -8498.8844     -53.356723     -2972.1584      6959.524      -4882.8538     -464.62797      69093.372      41.034152      41.034152      41.034152      1.0592356      2064.3797      1770.0101      1713.2989    
       500   500            439.32338     -1546.5459      8550.6374      10150.067      9191.658       958.40935      3523.3674      6378.8058     -8310.3781     -71.863726     -2667.3653      6980.3292     -4874.4859     -452.70495      70913.105      41.391278      41.391278      41.391278      1.0320541     -1621.6621     -1071.645      -1946.3307    
      1000   1000           433.4481       300.90067      10493.241      10177.246      9068.7337      1108.512       3470.8182      6360.3562     -8188.705      -75.532122     -2569.9694      6980.174      -4868.6299     -445.82084      72008.104      41.603237      41.603237      41.603237      1.01636        1494.1706     -426.02792     -165.44065    
      1500   1500           436.99032      25.354116      10429.009      10402.132      9142.8451      1259.2873      3627.7484      6327.8289     -8263.4724     -72.218019     -2489.4293      6996.3498     -4867.5202     -441.66553      72685.577      41.733302      41.733302      41.733302      1.006887       1260.2429     -1058.3925     -125.78809    
      2000   2000           441.55772     -835.31209      9806.2823      10691.932      9238.4056      1453.5262      3592.0595      6540.6496     -8164.8117     -74.199106     -2561.5835      6989.571      -4868.1596     -441.57504      72700.472      41.736152      41.736152      41.736152      1.0066807     -1368.8063     -264.4356      -872.69441    
      2500   2500           437.67481      1777.43        12449.746      10580.712      9157.1662      1423.5455      3451.5401      6604.4546     -8177.0614     -75.514773     -2499.7118      6990.704      -4870.8653     -445.23858      72102.272      41.621365      41.621365      41.621365      1.0150326      1182.8412      2409.8915      1739.5574    
      3000   3000           434.07335      438.31478      10908.395      10442.807      9081.8153      1360.9919      3508.3094      6547.113      -8244.1674     -71.367633     -2509.5376      6998.6819     -4868.0398     -440.76039      72834.843      41.76185       41.76185       41.76185       1.0048235      1321.4791      853.25739     -859.79219    
      3500   3500           433.40187     -475.67386      9953.2483      10454.71       9067.7665      1386.9432      3558.2186      6567.5021     -8201.5786     -76.38269      -2584.4507      6990.4559     -4866.8214     -444.10886      72285.686      41.656627      41.656627      41.656627      1.0124572     -1137.1408     -274.22588     -15.654899    
      4000   4000           434.39837      1835.9064      12450.841      10505.792      9088.6154      1417.1762      3567.0386      6476.124      -8144.7088     -75.690006     -2495.6362      6965.624      -4875.5754     -441.9138       72644.742      41.725485      41.725485      41.725485      1.007453      -879.19507      2085.0428      4301.8716    
      4500   4500           439.71684      669.17797      11369.156      10657.002      9199.8901      1457.1123      3520.6154      6548.7276     -8206.2537     -80.131614     -2447.4238      6987.4258     -4865.8474     -439.93178      72972.027      41.788053      41.788053      41.788053      1.0029345      938.0343       221.16974      848.32988    
      5000   5000           443.49875      1176.3558      11913.73       10662.581      9279.0164      1383.5645      3489.7514      6427.9123     -8174.1026     -71.807456     -2403.1443      6988.6813     -4873.726      -440.19735      72928.003      41.779648      41.779648      41.779648      1.0035399      1879.8698      1728.7188     -79.521168    
      5500   5500           445.34498      723.37061      11406.359      10637.396      9317.6438      1319.7525      3545.7382      6368.5652     -8143.9634     -77.876187     -2475.0837      6978.2195     -4875.8472     -440.42626      72890.099      41.772408      41.772408      41.772408      1.0040617     -531.97567      555.11954      2146.968     
      6000   6000           430.06997      861.58348      11397.45       10482.39       8998.0554      1484.3343      3507.7974      6404.3055     -8041.2122     -75.501272     -2398.7892      6964.6982     -4876.9641     -440.82403      72824.328      41.75984       41.75984       41.75984       1.0049686      691.2235       1574.9358      318.59112    
      6500   6500           439.17324      1113.5124      11972.528      10789.942      9188.5168      1601.4251      3639.7783      6537.7706     -8097.5871     -75.416661     -2508.2767      6976.3824     -4871.2257     -440.83901      72821.852      41.759367      41.759367      41.759367      1.0050027      165.31836      1634.9394      1540.2795    
      7000   7000           446.56972      808.90086      11726.775      10869.686      9343.2682      1526.4176      3505.9516      6550.7995     -8041.8939     -72.674227     -2520.8488      6976.7009     -4871.6175     -441.86239      72653.194      41.727103      41.727103      41.727103      1.0073358      222.71358     -123.5457       2327.5347    
      7500   7500           432.20008     -1681.1709      8392.3552      10185.934      9042.6222      1143.3122      3342.4611      6409.6883     -8172.1062     -74.578825     -2474.2536      6985.5201     -4873.4188     -438.84276      73153.113      41.822591      41.822591      41.822591      1.0004518     -2449.3107     -2121.3653     -472.83665    
      8000   8000           446.47369      1030.4588      11938.533      10845.326      9341.2591      1504.0669      3494.7346      6556.0853     -8165.9801     -77.427747     -2428.4051      6994.025      -4868.9651     -441.31226      72743.762      41.744435      41.744435      41.744435      1.0060816      280.30976      1549.3497      1261.7169    
      8500   8500           438.72673      995.19198      11818.202      10758.911      9179.1748      1579.7362      3522.9476      6539.0231     -8074.3356     -81.108751     -2434.6907      6978.0353     -4870.1348     -439.85473      72984.809      41.790493      41.790493      41.790493      1.0027588      1953.5981     -1696.9594      2728.9372    
      9000   9000           428.72255     -555.10803      9882.6736      10472.742      8969.8643      1502.8774      3569.2984      6539.1282     -8143.486      -73.751587     -2492.4414      6974.7374     -4870.6076     -440.44629      72886.784      41.771775      41.771775      41.771775      1.0041074     -2073.6357     -473.72055      882.03218    
      9500   9500           431.48424      868.17151      11419.545      10486.701      9027.6452      1459.0554      3523.2396      6509.6238     -8136.6346     -75.764508     -2463.9686      6976.5595     -4873.9998     -435.72666      73676.267      41.922053      41.922053      41.922053      0.99334782     2350.5402      2134.2514     -1880.2771    
     10000   10000          438.9692      -93.03723       10502.836      10601.686      9184.2478      1417.4381      3483.8691      6484.0615     -8102.956      -72.052891     -2489.1736      6984.8876     -4871.1977     -440.65385      72852.453      41.765215      41.765215      41.765215      1.0045806      54.234481     -1917.2283      1583.8822    
     10500   10500          437.66474     -1476.0087      9188.8919      10752.062      9156.9556      1595.1069      3516.3001      6599.4904     -8116.8161     -75.865402     -2440.5677      6982.789      -4870.2233     -442.07929      72617.548      41.720278      41.720278      41.720278      1.0078302     -1438.6167     -2881.4729     -107.93641    
     11000   11000          435.40641     -2238.0697      8349.507       10746.537      9109.7061      1636.831       3561.213       6480.6571     -8014.5111     -78.320281     -2449.9419      6998.5288     -4860.7945     -437.13719      73438.532      41.876913      41.876913      41.876913      0.99656349    -1194.001      -3100.5866     -2419.6214    
     11500   11500          435.94186      2030.1576      12744.421      10584.427      9120.9089      1463.5181      3488.9435      6505.4052     -8122.8914     -77.846664     -2464.3582      6993.5945     -4859.3287     -440.0427       72953.633      41.784541      41.784541      41.784541      1.0031873      1715.5721      2746.0728      1628.828     
     12000   12000          444.08163     -718.213        10132.734      10901.777      9291.2116      1610.5651      3546.6645      6518.9525     -8107.5703     -74.109635     -2403.6986      6996.9039     -4866.5773     -437.24042      73421.193      41.873617      41.873617      41.873617      0.99679883     6.9763769     -734.30821     -1427.3072    
     12500   12500          444.33714     -192.33232      10786.46       10993.409      9296.5575      1696.8511      3592.3762      6539.593      -8079.5168     -76.446826     -2405.7986      6987.9201     -4861.276      -435.11757      73779.401      41.941605      41.941605      41.941605      0.99195925    -342.36028     -166.38134     -68.255326    
     13000   13000          448.54226      784.06341      11820.969      10985.567      9384.5383      1601.0285      3484.6252      6497.3283     -8024.4855     -76.014478     -2415.5962      6999.8501     -4864.679      -439.41325      73058.137      41.804484      41.804484      41.804484      1.0017523      471.00402      1091.3736      789.81262    
     13500   13500          439.13366     -1653.3805      9154.6932      10926.1        9187.6887      1738.4115      3566.6253      6656.8456     -8056.5177     -75.218885     -2506.1083      7010.7543     -4857.9689     -436.9906       73463.168      41.881595      41.881595      41.881595      0.99622929    -1293.5645     -2839.6125     -826.96462    
     14000   14000          440.29957     -1569.64        9177.9527      10869.135      9212.0821      1657.0529      3546.3775      6487.5532     -8052.5721     -79.412182     -2375.4375      6991.6115     -4861.0675     -434.53749      73877.892      41.96026       41.96026       41.96026       0.99063681    -3248.4946     -150.57863     -1309.8467    
     14500   14500          427.56966      35.929429      10634.05       10595.794      8945.7433      1650.051       3484.5985      6600.334      -8067.6814     -75.416333     -2429.7832      7000.8494     -4862.8499     -439.71181      73008.531      41.79502       41.79502       41.79502       1.002433      -480.22288     -705.71486      1293.726     
     15000   15000          439.03982      1295.6797      12305.901      10923.918      9185.7253      1738.1932      3481.998       6696.953      -8060.7081     -79.348504     -2448.8407      7007.7567     -4859.6172     -438.94776      73135.613      41.819256      41.819256      41.819256      1.0006911      2127.8315      1642.8888      116.31897    
     15500   15500          439.29416     -287.47826      10507.799      10816.7        9191.0467      1625.653       3571.0087      6518.4224     -8149.5593     -78.103583     -2402.6076      7023.5725     -4857.0802     -435.71593      73678.081      41.922396      41.922396      41.922396      0.99332338    -54.686446      726.29674     -1534.0451    
     16000   16000          436.58657      349.55919      11153.316      10775.856      9134.3977      1641.4583      3403.1984      6588.0145     -8123.2199     -73.41955      -2305.6523      7017.6523     -4865.1152     -433.57848      74041.298      41.991173      41.991173      41.991173      0.98845052     230.97299      415.17566      402.52894    
     16500   16500          441.52938     -1122.1989      9727.856       10949.803      9237.8127      1711.9902      3466.2129      6536.8215     -8029.4349     -75.218172     -2315.0511      6996.6957     -4868.0358     -429.96699      74663.205      42.108413      42.108413      42.108413      0.98021723    -600.49066      144.91624     -2911.0222    
     17000   17000          430.80446     -432.0532       10116.017      10584.474      9013.4227      1571.0516      3464.3487      6602.8454     -8165.1882     -77.907912     -2383.7155      6998.1226     -4867.4535     -431.80209      74345.896      42.048677      42.048677      42.048677      0.9844008      881.09451     -383.32289     -1793.9312    
     17500   17500          439.6534       17.272172      10935.853      10917.257      9198.5628      1718.6943      3576.3744      6477.8769     -8034.4764     -72.939984     -2363.5449      6998.2719     -4862.8677     -434.85837      73823.378      41.949936      41.949936      41.949936      0.99136834    -1099.8201     -767.52613      1919.1627    
     18000   18000          443.13575      890.66914      11896.896      10933.026      9271.4216      1661.6045      3449.6812      6557.4286     -8067.5596     -77.235937     -2345.2261      7009.5709     -4865.0545     -432.62917      74203.765      42.021864      42.021864      42.021864      0.98628633     1191.1835      1694.9316     -214.1077     
     18500   18500          442.58247     -1518.2662      9159.9645      10789.535      9259.8458      1529.6892      3487.0855      6511.6295     -8082.6099     -72.523685     -2471.2154      7009.937      -4852.6139     -436.20679      73595.171      41.906666      41.906666      41.906666      0.99444241    -1607.7953     -2186.9098     -760.09346    
     19000   19000          431.86363      420.81427      11045.762      10591.814      9035.5828      1556.2313      3411.4961      6566.6424     -8141.1544     -74.02951      -2332.6871      6990.5718     -4864.608      -434.01195      73967.349      41.977189      41.977189      41.977189      0.98943872     599.74523      926.47778     -263.7802     
     19500   19500          439.71378      1303.7101      12347.216      10940.615      9199.8261      1740.789       3494.2875      6589.2807     -8056.2986     -74.915678     -2325.3767      6984.8699     -4871.0582     -433.93822      73979.917      41.979566      41.979566      41.979566      0.98927064     921.50621      2722.0814      267.54253    
     20000   20000          437.09666     -279.29634      10459.8        10761.406      9145.07        1616.3362      3530.5708      6610.2041     -8183.7256     -78.591354     -2383.2511      6984.1453     -4863.0159     -433.55357      74045.553      41.991977      41.991977      41.991977      0.98839372     187.071       -1265.9156      240.95559    
     20500   20500          437.32412      726.76636      11534.187      10750.466      9149.829       1600.6371      3469.4616      6490.1288     -8054.4058     -77.771056     -2357.5221      6996.9949     -4866.2493     -434.16118      73941.925      41.972379      41.972379      41.972379      0.98977893     1119.3293      590.42662      470.54313    
     21000   21000          440.65561      866.45821      11807.205      10876.536      9219.5314      1657.0046      3511.8274      6608.2405     -8159.0002     -75.459939     -2358.7901      7002.3241     -4872.1371     -435.88302      73649.838      41.917039      41.917039      41.917039      0.99370429     1156.2091     -1291.3447      2734.5102    
     21500   21500          443.05577     -3.1314377      10915.704      10919.072      9269.7482      1649.3241      3528.4667      6543.3456     -8098.8617     -73.560964     -2372.6919      6991.8585     -4869.2321     -435.30731      73747.242      41.93551       41.93551       41.93551       0.99239182     406.72182     -892.56795      476.45183    
     22000   22000          433.14785     -1399.5518      9163.9184      10673.314      9062.4517      1610.8624      3544.3101      6522.2489     -8086.41       -71.67462      -2425.4766      6995.5136     -4867.649      -434.11371      73950.011      41.973909      41.973909      41.973909      0.9896707     -2510.8324      503.99724     -2191.8203    
     22500   22500          439.0857       951.53484      11749.474      10729.812      9186.6852      1543.1269      3452.7543      6515.5024     -8032.4174     -71.42924      -2463.7001      7004.5706     -4862.1537     -436.90398      73477.732      41.884363      41.884363      41.884363      0.99603183     510.12588      803.20924      1541.2694    
     23000   23000          443.35626     -310.58313      10533.576      10871.97       9276.0352      1595.9352      3456.5201      6437.132      -8004.6025     -73.768709     -2348.2849      6999.5557     -4870.6164     -429.70735      74708.318      42.116892      42.116892      42.116892      0.97962532     447.35699     -956.02118     -423.08521    
     23500   23500          445.66929      1798.8825      12917.133      10968.235      9324.4291      1643.8061      3509.7382      6474.4602     -8099.1407     -75.162711     -2297.7038      7000.2441     -4868.6292     -432.14683      74286.588      42.037493      42.037493      42.037493      0.98518671     1933.6014      2441.596       1021.4502    
     24000   24000          443.02553     -320.49312      10729.006      11079.821      9269.1156      1810.7053      3528.4037      6745.4994     -8152.2853     -79.170667     -2355.5034      6994.1984     -4870.4368     -427.71893      75055.629      42.182057      42.182057      42.182057      0.97509222    -706.60335      623.07608     -877.95208    
     24500   24500          442.93104     -231.4097       10745.433      10999.095      9267.1386      1731.9565      3554.2282      6448.5556     -8010.9584     -74.076867     -2321.4294      7005.3915     -4869.7542     -427.11349      75162.023      42.201979      42.201979      42.201979      0.97371195     70.484767     -252.68654     -512.02732    
     25000   25000          436.8298       443.37835      11389.959      10910.127      9139.4866      1770.6406      3481.3572      6694.0463     -8089.4884     -80.610433     -2363.5773      6998.6308     -4869.7176     -432.6162       74205.99       42.022284      42.022284      42.022284      0.98625676     1018.9652      1177.7246     -866.55472    
     25500   25500          441.41972      391.37847      11416.522      10992.037      9235.5182      1756.5188      3441.8374      6612.475      -8018.7523     -76.716342     -2367.2154      7028.518      -4863.6275     -431.67028      74368.598      42.052956      42.052956      42.052956      0.9841003     -890.82186      278.36524      1786.592     
     26000   26000          446.07143      727.3097       11963.484      11175.933      9332.8429      1843.0904      3523.9278      6670.7975     -8108.8268     -74.487876     -2355.7978      7046.5337     -4859.056      -432.37269      74247.782      42.030171      42.030171      42.030171      0.98570163     1288.6595      30.816376      862.45321    
     26500   26500          440.54826     -1373.6497      9615.4716      11098.516      9217.2854      1881.2307      3589.9755      6609.9481     -8075.2233     -76.926918     -2345.4119      7037.8666     -4858.9974     -433.65008      74029.073      41.988862      41.988862      41.988862      0.98861376    -2592.8733     -438.30003     -1089.7758    
     27000   27000          435.36665      415.94658      11328.729      10880.285      9108.8742      1771.4107      3458.1997      6693.0674     -8084.9559     -76.718145     -2356.866       7007.6885     -4869.0049     -434.25712      73925.59       41.969288      41.969288      41.969288      0.98999764    -91.698311      773.23671      566.30133    
     27500   27500          439.57125      545.6007       11570.094      10978.17       9196.8441      1781.326       3522.0327      6616.5404     -8092.4332     -77.640307     -2329.2583      7007.5267     -4865.4421     -431.54567      74390.073      42.057004      42.057004      42.057004      0.98381622     710.05497     -174.78409      1101.5312    
     28000   28000          440.19504      1446.0463      12603.326      11032.219      9209.8953      1822.3239      3482.6117      6542.5376     -7988.5078     -77.541562     -2286.2032      7013.4197     -4863.9926     -430.91754      74498.508      42.077429      42.077429      42.077429      0.98238423     1952.5773      2216.8883      168.67342    
     28500   28500          438.82943      58.005825      10948.159      10884.877      9181.3235      1703.5537      3400.5369      6588.8369     -8000.4292     -75.449871     -2339.8977      7001.4262     -4871.4695     -429.15406      74804.637      42.134985      42.134985      42.134985      0.97836395     494.08631      535.11994     -855.18878    
     29000   29000          432.90683      1970.1539      12904.873      10768.539      9057.409       1711.1298      3425.2612      6590.9635     -8060.1663     -73.315627     -2286.4524      6983.7577     -4868.9183     -431.76617      74352.082      42.049843      42.049843      42.049843      0.9843189      2368.1161      1905.1501      1637.1955    
     29500   29500          441.67553      501.55252      11486.998      10934.886      9240.8705      1694.0158      3444.603       6540.1235     -8000.6046     -76.96449      -2329.4155      6983.3659     -4867.0921     -425.31177      75480.427      42.261488      42.261488      42.261488      0.96960447     512.34617      568.68899      423.62241    
     30000   30000          446.94419      658.1255       11832.938      11118.072      9351.103       1766.9694      3465.0881      6699.1703     -8132.7961     -79.779055     -2329.9342      7005.425      -4860.2047     -431.02448      74480.024      42.073948      42.073948      42.073948      0.98262803     1510.3585      1158.2602     -694.24223    
     30500   30500          444.07688     -289.30288      10775.229      11087.151      9291.1123      1796.0382      3533.3858      6650.1021     -8063.2083     -82.165907     -2397.8927      7012.1337     -4856.3165     -434.23559      73929.255      41.969981      41.969981      41.969981      0.98994856     1077.6217     -886.28849     -1059.2418    
     31000   31000          443.13658     -2196.8211      8700.3367      11087.055      9271.4391      1815.6158      3525.6909      6702.517      -8099.9285     -73.904317     -2377.8129      7000.0323     -4860.9785     -430.9344       74495.592      42.07688       42.07688       42.07688       0.98242269    -2128.3212     -781.2266      -3680.9154    
     31500   31500          427.73992     -831.68776      9643.6109      10546.894      8949.3054      1597.5883      3420.3953      6514.8077     -8108.062      -72.342086     -2301.8661      7006.9926     -4862.3372     -431.07636      74471.06       42.07226       42.07226       42.07226       0.98274632    -2539.9851      146.15507     -101.23327    
     32000   32000          441.97119      739.44983      11784.697      10983.032      9247.0564      1735.9758      3547.4045      6601.0062     -8108.8759     -76.562358     -2376.6334      7015.3939     -4865.757      -431.8509       74337.494      42.047093      42.047093      42.047093      0.98451207    -1050.1907     -190.45404      3458.9942    
     32500   32500          439.83835      282.29655      11307.031      10998.532      9202.4324      1796.0991      3529.6323      6594.9798     -8078.3728     -73.36895      -2340.2116      7026.4352     -4862.9949     -428.41857      74933.058      42.159083      42.159083      42.159083      0.97668722     1266.9142     -1271.5595      851.53494    
     33000   33000          445.3391       1877.2377      13139.784      11095.461      9317.5208      1777.9398      3489.9728      6652.5793     -8126.9318     -77.438512     -2308.7491      7012.928      -4864.4208     -429.91966      74671.426      42.109959      42.109959      42.109959      0.98010931     2352.2642      2229.7945      1049.6543    
     33500   33500          439.27567     -819.79227      10142.319      11031.954      9190.6598      1841.294       3556.0505      6725.234      -8124.6585     -78.73997      -2381.1067      7005.367      -4860.8523     -431.42936      74410.128      42.060783      42.060783      42.060783      0.98355105    -65.638418     -2117.3623     -276.37612    
     34000   34000          440.52686      946.15931      11936.437      10904.423      9216.8376      1687.5854      3495.0285      6576.0041     -8144.1607     -79.011093     -2295.1863      7003.1612     -4868.2504     -429.23604      74790.35       42.132302      42.132302      42.132302      0.97855084     1406.8849     -178.80183      1610.3949    
     34500   34500          442.54347      1027.6782      12047.388      10933.722      9259.0297      1674.6926      3472.4709      6587.4554     -8065.9266     -73.441362     -2371.2736      6994.8597     -4869.4519     -432.03608      74305.631      42.041084      42.041084      42.041084      0.98493424     2747.7122     -341.74465      677.06707    
     35000   35000          434.05219     -2092.5555      8622.557       10901.404      9081.3727      1820.0316      3574.0208      6568.3313     -8005.5314     -69.508075     -2374.9419      6993.3309     -4865.6701     -429.91185      74672.781      42.110213      42.110213      42.110213      0.98009153    -188.27666     -4354.4693     -1734.9205    
     35500   35500          435.76648      468.27239      11303.675      10799.248      9117.2395      1682.0083      3485.7761      6671.488      -8176.4616     -75.859914     -2379.9594      7015.7814     -4858.7563     -434.62755      73862.583      41.957361      41.957361      41.957361      0.99084214     0.90731174     805.15749      598.75236    
     36000   36000          441.52158      868.38904      11965.135      11017.001      9237.6495      1779.3518      3437.3727      6658.6433     -8067.8342     -77.234443     -2332.407       7022.0139     -4861.2025     -428.80741      74865.109      42.146335      42.146335      42.146335      0.97757368    -182.40287      2209.3831      578.18691    
     36500   36500          447.04336     -824.65306      10220.728      11119.768      9353.1778      1766.5902      3548.5203      6518.8749     -8029.5928     -76.150456     -2358.7014      7019.842      -4856.2024     -429.44734      74753.551      42.125391      42.125391      42.125391      0.97903256    -758.28389     -2809.4397      1093.7644    
     37000   37000          448.75631      808.83068      12032.395      11160.301      9389.0167      1771.2847      3499.7213      6677.7715     -8111.6097     -74.770248     -2361.9254      7003.7704     -4861.6733     -434.22211      73931.551      41.970416      41.970416      41.970416      0.98991782     1271.8797     -69.658538      1224.2709    
     37500   37500          431.68722      699.21033      11578.584      10813.932      9031.8919      1782.0401      3526.2213      6477.652      -8001.9553     -75.767982     -2317.8555      7030.5444     -4856.7989     -428.11601      74986.016      42.169012      42.169012      42.169012      0.97599744     1912.0318     -110.66665      296.26586    
     38000   38000          439.6466       258.61017      11101.817      10821.027      9198.4206      1622.6062      3442.6777      6517.1197     -8085.8559     -77.046344     -2324.832       7014.1415     -4863.5984     -431.20198      74449.365      42.068174      42.068174      42.068174      0.98303269     1577.1881     -701.18217     -100.17538    
     38500   38500          442.90815      475.37987      11624.555      11106.165      9266.6597      1839.5051      3591.1111      6666.2429     -8146.6189     -76.761402     -2356.825       7023.1217     -4860.7654     -429.33999      74772.243      42.128902      42.128902      42.128902      0.97878781     394.74478      628.54751      402.84733    
     39000   39000          443.44068     -2433.0314      8516.472       11161.519      9277.8014      1883.7175      3504.7134      6783.7029     -8041.9125     -74.43952      -2441.6183      7011.2093     -4857.9377     -430.65744      74543.501      42.085898      42.085898      42.085898      0.98179129    -2494.5327     -2454.6149     -2349.9466    
     39500   39500          442.20313      1838.059       13047.529      11053.942      9251.9091      1802.0333      3396.7872      6741.091      -8058.7531     -74.334477     -2355.3697      7014.9844     -4862.3721     -431.66018      74370.339      42.053284      42.053284      42.053284      0.98407727     2048.3275      587.28918      2878.5604    
     40000   40000          443.52802     -248.7142       10633.252      10904.453      9279.6288      1624.8238      3462.3456      6575.4479     -8125.952      -77.835132     -2357.8367      7008.2448     -4859.5906     -429.36613      74767.69       42.128046      42.128046      42.128046      0.97884741     2031.1621     -1136.3391     -1640.9656    
     40500   40500          444.92371      1372.3409      12593.063      11098.693      9308.8299      1789.8635      3431.5723      6793.7292     -8128.8204     -72.05672      -2350.9584      6982.6422     -4866.2447     -429.95368      74665.517      42.108848      42.108848      42.108848      0.98018687     2036.0628      989.67294      1091.287     
     41000   41000          444.89452      513.09941      11533.409      10980.242      9308.2191      1672.0229      3440.7687      6483.4657     -8014.8498     -70.800093     -2313.0349      7012.4214     -4865.9481     -434.273        73922.887      41.968776      41.968776      41.968776      0.99003384    -1182.3032      2529.1694      192.43203    
     41500   41500          437.33477      605.25566      11536.256      10879.302      9150.0517      1729.2502      3466.5613      6559.5097     -8065.9804     -72.638484     -2311.3153      7016.9838     -4863.8704     -431.34158      74425.27       42.063636      42.063636      42.063636      0.98335095     294.43093      1558.867      -37.530941    
     42000   42000          438.5399      -673.71705      10095.453      10830.142      9175.2659      1654.8758      3415.2758      6640.0413     -8057.1343     -74.860137     -2403.3883      7002.5582     -4867.6168     -429.33072      74773.857      42.129205      42.129205      42.129205      0.97876668    -1575.7532     -1378.2792      932.8812     
     42500   42500          435.9858      -946.72053      9805.4189      10831.375      9121.8282      1709.5468      3548.221       6456.7366     -8032.0341     -73.279055     -2338.1191      7008.3444     -4860.323      -432.02679      74307.229      42.041386      42.041386      42.041386      0.98491305    -870.84187     -147.38287     -1821.9368    
     43000   43000          437.20467      84.898595      11013.296      10921.538      9147.3297      1774.208       3559.4102      6557.7319     -8072.8858     -72.257805     -2350.7258      7016.3001     -4863.3648     -433.18253      74108.975      42.003963      42.003963      42.003963      0.98754786     959.43085      1065.0373     -1769.7724    
     43500   43500          443.89197      498.41904      11571.477      11028.291      9287.2434      1741.0478      3456.1433      6586.8775     -8067.1467     -74.277188     -2319.3638      7027.5116     -4868.6969     -429.59923      74727.121      42.120425      42.120425      42.120425      0.97937883    -471.74489     -175.34971      2142.3517    
     44000   44000          438.266        745.77929      11815.366      10999.013      9169.5353      1829.4779      3556.8951      6525.5201     -8018.6179     -72.221145     -2346.0879      7041.4699     -4857.4802     -427.7108       75057.056      42.182324      42.182324      42.182324      0.97507368     172.9735       320.85135      1743.513     
     44500   44500          435.65214     -1533.3855      9133.4378      10807.431      9114.8472      1692.5838      3554.2674      6456.1965     -8089.241      -77.551959     -2319.8358      7021.2608     -4852.5121     -428.85976      74855.97       42.144621      42.144621      42.144621      0.97769302    -674.68573     -3346.8685     -578.60233    
     45000   45000          436.2391       292.65795      11196.71       10876.502      9127.1277      1749.3738      3519.7331      6506.3892     -8056.5045     -78.193105     -2297.5625      7017.106      -4861.5943     -427.90308      75023.33       42.176005      42.176005      42.176005      0.97551202    -469.1979       508.47369      838.69806    
     45500   45500          435.14852      202.80955      11192.393      10970.81       9104.3104      1866.4995      3558.5964      6525.0382     -8046.8545     -79.718672     -2242.6559      7011.8807     -4859.7867     -428.5191       74915.479      42.155786      42.155786      42.155786      0.9769164     -369.8964       351.47851      626.84653    
     46000   46000          440.51498     -180.52944      10724.202      10920.874      9216.589       1704.2849      3487.1807      6498.6194     -8085.1514     -74.25992      -2264.1933      7009.4943     -4867.4048     -429.758        74699.514      42.115238      42.115238      42.115238      0.97974078    -92.157149     -27.497408     -421.93376    
     46500   46500          437.90747     -75.382367      10871.246      10953.504      9162.034       1791.4696      3509.3297      6572.3382     -8077.3334     -72.437323     -2282.8167      7012.4084     -4870.0193     -429.05325      74822.212      42.138284      42.138284      42.138284      0.97813413    -385.96798      482.92081     -323.09993    
     47000   47000          437.2893      -29.724384      10790.774      10823.119      9149.1005      1674.0186      3506.4405      6495.2974     -8057.295      -75.337502     -2332.4813      6999.2255     -4861.8311     -430.25339      74613.506      42.099068      42.099068      42.099068      0.98087014     368.2523      -643.32955      185.9041     
     47500   47500          448.24986      279.74188      11487.043      11182.294      9378.4206      1803.8735      3508.2915      6531.0923     -8006.9167     -75.503197     -2299.7459      7010.1892     -4863.5337     -429.76725      74697.905      42.114936      42.114936      42.114936      0.97976187    -210.5507      -75.691436      1125.4678    
     48000   48000          438.61113      308.27021      11281.252      10943.312      9176.7561      1766.5561      3479.6238      6543.1001     -7974.3181     -80.006781     -2333.5304      7003.7875     -4872.1        -427.08112      75167.719      42.203045      42.203045      42.203045      0.97363816     1070.0343     -797.43325      652.20961    
     48500   48500          443.57174     -12.226922      11037.545      11050.87       9280.5435      1770.3269      3388.336       6621.9698     -7984.7632     -79.484141     -2325.6598      7011.541      -4861.6126     -429.58535      74729.535      42.120879      42.120879      42.120879      0.97934718    -971.14522     -191.82328      1126.2877    
     49000   49000          440.21795     -1139.0445      9801.1345      11043.19       9210.3746      1832.8153      3435.9181      6694.7042     -8082.7262     -72.423548     -2304.499       7021.6366     -4859.7949     -429.35581      74769.486      42.128384      42.128384      42.128384      0.9788239     -109.85712     -2123.7936     -1183.4827    
     49500   49500          444.20299     -393.95839      10796.446      11230.624      9293.7507      1936.8733      3548.3985      6621.0407     -8025.4418     -78.72095      -2262.5722      6998.3186     -4864.1495     -424.81487      75568.714      42.277959      42.277959      42.277959      0.96847168    -231.83757     -108.73305     -841.30457    
     50000   50000          441.55356     -594.88876      10372.376      11026.44       9238.3186      1788.1211      3468.6563      6663.3491     -8116.3903     -76.465504     -2299.9704      7007.0238     -4858.0819     -425.82721      75389.062      42.244429      42.244429      42.244429      0.97077956    -850.2756      -507.40745     -426.98323    
Loop time of 111.921 on 1 procs for 50000 steps with 7020 atoms

Performance: 38.599 ns/day, 0.622 hours/ns, 446.742 timesteps/s, 3.136 Matom-step/s
100.0% CPU use with 1 MPI tasks x 1 OpenMP threads

MPI task timing breakdown:
Section |  min time  |  avg time  |  max time  |%varavg| %total
---------------------------------------------------------------
Pair    | 12.714     | 12.714     | 12.714     |   0.0 | 11.36
Bond    | 12.906     | 12.906     | 12.906     |   0.0 | 11.53
Kspace  | 54.588     | 54.588     | 54.588     |   0.0 | 48.77
Neigh   | 9.5334     | 9.5334     | 9.5334     |   0.0 |  8.52
Comm    | 2.0899     | 2.0899     | 2.0899     |   0.0 |  1.87
Output  | 0.015343   | 0.015343   | 0.015343   |   0.0 |  0.01
Modify  | 17.662     | 17.662     | 17.662     |   0.0 | 15.78
Other   |            | 2.413      |            |       |  2.16

Nlocal:           7020 ave        7020 max        7020 min
Histogram: 1 0 0 0 0 0 0 0 0 0
Nghost:          18885 ave       18885 max       18885 min
Histogram: 1 0 0 0 0 0 0 0 0 0
Neighs:              0 ave           0 max           0 min
Histogram: 1 0 0 0 0 0 0 0 0 0
FullNghs:  4.16518e+06 ave 4.16518e+06 max 4.16518e+06 min
Histogram: 1 0 0 0 0 0 0 0 0 0

Total # of neighbors = 4165182
Ave neighs/atom = 593.33077
Ave special neighs/atom = 5.7008547
Neighbor list builds = 1931
Dangerous builds = 0
  unfix npt_tg
  shell echo '{"stage":"T${temps}","status":"done"}' >> /home/alexzhao/PolyJarvis/data/PEG2/lammps/thermal/tg_sweep_r400/tg_progress.jsonl
  print "STAGE COMPLETE: Tg step T=${temps}K P=1.0atm steps=50000"
STAGE COMPLETE: Tg step T=440K P=1.0atm steps=50000
  next temps
  jump SELF TEMP_LOOP
  timestep 1
  fix npt_tg all npt temp ${temps} ${temps} 100 iso 1.0 1.0 1000.0
  fix npt_tg all npt temp 420 ${temps} 100 iso 1.0 1.0 1000.0
  fix npt_tg all npt temp 420 420 100 iso 1.0 1.0 1000.0
  run 50000
PPPM Kokkos initialization ...
  using 12-bit tables for long-range coulomb
  G vector (1/distance) = 0.3006742
  grid = 30 30 30
  stencil order = 5
  estimated absolute RMS force accuracy = 0.0003331443
  estimated relative force accuracy = 1.0032542e-06
  using double precision cuFFT
  3d grid and FFT values/proc = 50653 27000
Generated 10 of 10 mixed pair_coeff terms from sixthpower/sixthpower mixing rule
Per MPI rank memory allocation (min/avg/max) = 32.44 | 32.44 | 32.44 Mbytes
   Step          Time           Temp          Press         Enthalpy        TotEng         KinEng         PotEng         E_bond        E_angle        E_dihed        E_impro         E_vdwl         E_coul         E_long         E_tail         Volume           Lx             Ly             Lz          Density          Pxx            Pyy            Pzz      
     50000   50000          441.55356     -594.91166      10372.348      11026.437      9238.3186      1788.1183      3468.6563      6663.3491     -8116.3903     -76.465504     -2299.9704      6971.7084     -4822.7694     -425.82721      75389.062      42.244429      42.244429      42.244429      0.97077956    -850.29987     -507.42997     -427.00515    
     50500   50500          419.19696      1213.1686      11291.946      9969.3566      8770.5671      1198.7895      3248.1898      6329.4342     -8122.2981     -72.093251     -2335.067       6975.7365     -4825.1126     -429.45122      74752.875      42.125264      42.125264      42.125264      0.9790414      2779.1717     -457.87216      1318.2062    
     51000   51000          415.17143     -852.05539      9059.3248      9979.7701      8686.3436      1293.4265      3458.6046      6331.7043     -8135.0703     -73.31479      -2436.7184      6979.387      -4831.1658     -433.39856      74072.036      41.996983      41.996983      41.996983      0.98804034     115.96112     -1401.0456     -1271.0817    
     51500   51500          415.80825     -437.06924      9665.6398      10139.435      8699.6674      1439.7674      3443.2398      6357.225      -8053.4341     -70.191482     -2412.5081      6996.2755     -4820.8393     -431.89415      74330.05       42.045689      42.045689      42.045689      0.98461067     388.86311     -1397.5206     -302.55026    
     52000   52000          416.57478     -167.65366      9875.8431      10059.905      8715.7049      1344.1999      3369.7926      6342.9024     -8127.4862     -72.406078     -2345.9557      6991.9017     -4814.5488     -426.44894      75279.15       42.22389       42.22389       42.22389       0.97219694     186.56515     -224.37251     -465.15363    
     52500   52500          416.0906      -913.15336      9070.6209      10052.238      8705.5747      1346.6636      3379.4125      6278.1531     -8071.3312     -70.620385     -2345.0891      6995.8978     -4819.7591     -435.53103      73709.361      41.928328      41.928328      41.928328      0.99290183    -1896.2109     -612.71452     -230.53463    
     53000   53000          420.0174       186.8272       10328.251      10125.615      8787.7324      1337.8828      3300.0191      6425.9008     -8093.392      -70.773263     -2410.6636      7007.9836     -4821.1918     -431.66068      74370.253      42.053268      42.053268      42.053268      0.9840784     -1422.4058      1361.928       620.95943    
     53500   53500          423.84869     -247.61268      10169.683      10438.755      8867.8918      1570.8629      3434.7195      6530.1828     -8145.3401     -70.662714     -2353.1109      6992.6743     -4817.6        -430.84616      74510.85       42.079752      42.079752      42.079752      0.98222151    -58.570584     -199.76854     -484.49893    
     54000   54000          422.50571      685.30532      10985.035      10241.911      8839.7937      1402.1175      3353.3399      6409.2846     -8072.4584     -79.85047      -2378.6606      6990.6367     -4820.1742     -431.75796      74353.496      42.050109      42.050109      42.050109      0.98430019     748.71572      822.4678       484.73244    
     54500   54500          419.07013     -330.2386       9766.0154      10124.447      8767.9133      1356.5335      3304.3234      6528.2405     -8170.6805     -71.900828     -2401.4253      6994.1118     -4826.1356     -431.3596       74422.161      42.06305       42.06305       42.06305       0.98339202    -384.26209      1240.0088     -1846.4625    
     55000   55000          417.87627     -625.3734       9407.9182      10088.425      8742.9352      1345.4894      3252.4928      6464.2972     -8079.2054     -68.907963     -2405.5002      7001.315      -4819.0019     -430.25386      74613.423      42.099053      42.099053      42.099053      0.98087122    -426.21694      373.57197     -1823.4752    
     55500   55500          416.82083      834.44223      11039.797      10138.93       8720.8528      1418.0776      3379.2806      6458.0583     -8164.1669     -77.116971     -2369.0976      7011.9078     -4820.7876     -433.66396      74026.705      41.988414      41.988414      41.988414      0.98864538     1323.0855      218.79618      961.44496    
     56000   56000          422.54674     -36.781195      10108.43       10148.358      8840.652       1307.7056      3306.6145      6400.5582     -8134.7714     -72.184978     -2374.6534      6997.5028     -4815.3602     -431.28807      74434.504      42.065375      42.065375      42.065375      0.98322896     1814.5624     -894.22152     -1030.6844    
     56500   56500          422.16829     -112.41963      10158.056      10278.832      8832.7339      1446.0981      3437.1958      6391.1691     -8063.3196     -73.749194     -2395.3174      6974.1303     -4824.0109     -435.79012      73665.537      41.920017      41.920017      41.920017      0.99349251    -2020.1283     -1509.1145      3191.9839    
     57000   57000          423.54019      851.49582      11137.538      10215.344      8861.4373      1353.9064      3310.8633      6344.427      -8079.425      -69.304509     -2325.6233      6989.8053     -4816.8363     -432.29246      74261.562      42.032772      42.032772      42.032772      0.98551872     996.63486      1410.4011      147.45147    
     57500   57500          409.9542       142.5812       10011.59       9855.0996      8577.187       1277.9126      3253.0572      6383.3782     -8146.4786     -67.66083      -2316.9793      6992.6138     -4820.0179     -426.57097      75257.614      42.219863      42.219863      42.219863      0.97247515    -886.50507      1498.6004     -184.35174    
     58000   58000          416.93084     -601.32108      9426.3769      10079.882      8723.1545      1356.728       3357.3462      6227.2443     -8009.6493     -68.71886      -2320.2267      6992.5789     -4821.8466     -430.79908      74518.992      42.081285      42.081285      42.081285      0.98211419    -1060.5622      224.1856      -967.58667    
     58500   58500          427.01158     -209.96312      10012.347      10241.462      8934.0668      1307.3956      3294.5553      6296.2758     -8060.0887     -72.724488     -2324.3693      6993.7294     -4819.9824     -429.04949      74822.868      42.138407      42.138407      42.138407      0.97812556     604.16596     -893.3376      -340.71772    
     59000   59000          417.93593      250.44279      10375.636      10103.695      8744.1832      1359.5113      3279.1605      6547.7087     -8172.8109     -69.90554      -2401.7634      6999.12       -4821.998      -431.17215      74454.516      42.069145      42.069145      42.069145      0.98296468     896.20824      1284.7576     -1429.6375    
     59500   59500          419.77124     -791.55383      9379.9811      10244.685      8782.5822      1462.103       3375.7825      6449.8772     -8128.543      -71.287948     -2346.8682      7003.0236     -4819.8811     -428.5787       74905.061      42.153831      42.153831      42.153831      0.97705227    -1691.9594      1066.7629     -1749.465     
     60000   60000          425.10822      134.55737      10466.128      10320.819      8894.2441      1426.5748      3355.8897      6423.3919     -8088.7781     -73.255652     -2346.3825      6982.502      -4826.7927     -433.54187      74047.551      41.992355      41.992355      41.992355      0.98836706     86.348238     -400.29883      717.62271    
     60500   60500          418.0538       11.750296      10058.161      10045.33       8746.6494      1298.6803      3243.9437      6307.6704     -8058.6334     -71.185268     -2286.7311      6990.2442     -4826.6283     -428.74332      74876.301      42.148436      42.148436      42.148436      0.97742755    -808.22984      995.60998     -152.12925    
     61000   61000          419.09617      0.3422766      10012.228      10011.857      8768.4583      1243.3985      3320.2356      6336.7553     -8164.3047     -68.282418     -2370.6692      7013.1916     -4823.5277     -431.19432      74450.688      42.068424      42.068424      42.068424      0.98301523     518.53595     -1764.4437      1246.9345    
     61500   61500          428.20831     -726.14819      9408.9736      10190.209      8959.1051      1231.104       3269.6451      6273.5307     -8041.8366     -69.103221     -2386.4529      7005.8885     -4820.5676     -435.17196      73770.179      41.939857      41.939857      41.939857      0.99208326     59.441769     -493.57354     -1744.3128    
     62000   62000          421.20961     -283.26937      9975.6815      10285.178      8812.6763      1472.5017      3411.5806      6474.9807     -8194.9228     -74.858209     -2339.4466      7013.1984     -4818.0304     -428.51054      74916.975      42.156066      42.156066      42.156066      0.97689689     1089.4836     -818.88856     -1120.4032    
     62500   62500          416.88891      41.718697      10278.581      10232.907      8722.2772      1510.6301      3356.4977      6434.2772     -8083.708      -71.081336     -2310.443       7005.5559     -4820.4684     -427.64799      75068.08       42.18439       42.18439       42.18439       0.97493049    -258.88049      386.81274     -2.7761648    
     63000   63000          418.43646      675.04019      10801.387      10067.101      8754.6556      1312.4453      3309.7197      6359.4472     -8093.729      -69.48381      -2380.5973      7008.8789     -4821.7903     -430.40976      74586.397      42.093969      42.093969      42.093969      0.98122664     468.71534      1160.9723      395.4329     
     63500   63500          421.65809      340.99236      10593.214      10219.327      8822.0595      1397.2677      3329.3406      6425.5544     -8189.8826     -74.338349     -2286.2373      7008.9        -4816.0691     -426.99398      75183.06       42.205916      42.205916      42.205916      0.97343949     435.64075     -93.614075      680.95041    
     64000   64000          418.27307     -65.480717      9904.9102      9975.7433      8751.237       1224.5064      3345.7286      6219.175      -8079.9751     -73.792548     -2374.5081      7010.8376     -4822.9591     -432.80707      74173.265      42.016106      42.016106      42.016106      0.9866919      877.62156      2257.3331     -3331.3968    
     64500   64500          418.07654     -39.296807      9976.1913      10018.742      8747.1252      1271.6167      3279.9378      6405.4671     -8114.3849     -76.809622     -2405.2689      7005.8335     -4823.1584     -432.38451      74245.753      42.029789      42.029789      42.029789      0.98572857    -753.3672      -235.5774       871.05418    
     65000   65000          417.90424      297.91316      10468.959      10145.226      8743.5203      1401.7061      3422.0171      6325.3367     -8103.8796     -68.597138     -2361.5681      7010.3771     -4821.98       -430.84511      74511.031      42.079786      42.079786      42.079786      0.98221912    -200.76965      328.05946      766.44968    
     65500   65500          413.56929     -12.975787      10173.278      10187.371      8652.8232      1534.5481      3379.8558      6452.9953     -8086.1389     -71.787617     -2339.4682      7017.8229     -4818.7313     -431.04937      74475.723      42.073138      42.073138      42.073138      0.98268479     1367.8049     -854.02153     -552.71073    
     66000   66000          416.93976      563.32067      10625.797      10015.589      8723.3411      1292.2482      3277.165       6468.3138     -8129.4744     -71.890134     -2429.2965      7001.7427     -4824.3124     -432.21099      74275.56       42.035412      42.035412      42.035412      0.98533299    -923.1563       386.45071      2226.6676    
     66500   66500          415.46756      239.84368      10312.231      10053.648      8692.5393      1361.1091      3420.3386      6235.9294     -8008.4853     -71.235531     -2413.7657      7013.9349     -4815.6071     -434.25631      73925.728      41.969314      41.969314      41.969314      0.9899958      408.87395     -634.69555      945.35263    
     67000   67000          411.59898      130.54364      10071.017      9931.2032      8611.5998      1319.6034      3296.6719      6390.2203     -8093.5131     -70.288649     -2435.0017      7045.3483     -4813.8336     -437.14249      73437.642      41.876744      41.876744      41.876744      0.99657556    -1561.6669      777.80213      1175.4957    
     67500   67500          425.87871     -367.7578       10001.002      10400.013      8910.3646      1489.6486      3416.72        6460.376      -8146.4799     -72.776627     -2366.5792      7011.8206     -4813.4323     -431.51348      74395.622      42.058049      42.058049      42.058049      0.98374284    -2091.498       904.56851      83.656082    
     68000   68000          420.88788      607.24641      10757.883      10100.162      8805.9449      1294.2173      3298.7377      6391.6531     -8189.9335     -72.714146     -2345.1756      7024.9935     -4813.3439     -432.25626      74267.782      42.033945      42.033945      42.033945      0.98543618     639.63167      1104.6443      77.463288    
     68500   68500          419.2242       1166.2288      11478.334      10223.644      8771.1369      1452.5073      3452.5603      6370.3331     -8044.6211     -71.730468     -2477.318       7038.1501     -4814.8667     -435.17615      73769.468      41.939722      41.939722      41.939722      0.99209282     2690.8753     -143.0994       950.91058    
     69000   69000          425.68253     -146.53261      10117.463      10276.072      8906.26        1369.812       3322.3928      6380.7115     -8081.5735     -70.986679     -2369.3636      7009.4593     -4820.8277     -432.53717      74219.549      42.024843      42.024843      42.024843      0.98607659    -749.49908      1810.3108     -1500.4096    
     69500   69500          422.47092     -127.78956      10043.695      10182.393      8839.0657      1343.3272      3270.5626      6498.9752     -8174.318      -73.195098     -2384.6829      7025.9791     -4819.9938     -431.36212      74421.726      42.062968      42.062968      42.062968      0.98339778     75.595143      597.57204     -1056.5359    
     70000   70000          417.32453      445.76371      10513.1        10032.264      8731.3913      1300.8725      3242.7695      6495.9565     -8151.4503     -69.036243     -2412.1837      7014.1513     -4819.3345     -434.0358       73963.286      41.97642       41.97642       41.97642       0.98949308    -243.46689      1469.9242      110.83377    
     70500   70500          419.05535     -947.54977      9033.7653      10059.137      8767.6042      1291.5332      3410.8462      6237.8035     -8126.05       -65.558882     -2353.8008      7012.94       -4824.6468     -432.65148      74199.939      42.021142      42.021142      42.021142      0.98633719     78.131833     -757.70643     -2163.0747    
     71000   71000          429.76569      725.62581      11143.259      10356.341      8991.6891      1364.6516      3300.3138      6464.7934     -8119.2457     -72.362484     -2385.7467      6998.7061     -4821.8068     -431.71846      74360.299      42.051392      42.051392      42.051392      0.98421013     760.53591     -598.66519      2015.0067    
     71500   71500          426.47176      1519.3169      11913.612      10281.92       8922.7726      1359.1469      3337.8116      6478.9583     -8163.7706     -75.987452     -2387.0949      6993.4285     -4824.1985     -435.94091      73640.058      41.915184      41.915184      41.915184      0.99383626     1326.2186      2341.2837      890.44845    
     72000   72000          416.68892      431.57206      10700.494      10234.789      8718.0929      1516.6965      3417.2669      6341.5186     -7990.0055     -70.786073     -2369.3738      7012.6084     -4824.5321     -433.87086      73991.402      41.981739      41.981739      41.981739      0.98911708     331.82838      402.65997      560.22784    
     72500   72500          417.58992      242.72998      10253.11       9992.5247      8736.9439      1255.5808      3304.4603      6354.2064     -8072.6037     -70.047659     -2446.6051      7002.1443     -4815.9739     -436.10547      73612.27       41.909911      41.909911      41.909911      0.99421143    -4.0160383     -879.09023      1611.2962    
     73000   73000          419.65367     -378.88649      9731.2966      10143.053      8780.1225      1362.931       3332.319       6425.1026     -8115.0756     -71.43265      -2392.4562      7006.837      -4822.3632     -430.81021      74517.068      42.080923      42.080923      42.080923      0.98213955    -373.7902      -402.09048     -360.77881    
     73500   73500          425.15837      1012.4278      11408.402      10318.614      8895.2934      1423.3209      3340.6948      6369.1062     -8059.039      -72.631022     -2357.8541      7026.8469     -4823.8028     -434.95044      73807.751      41.946976      41.946976      41.946976      0.99157824     192.50386      2215.8767      628.90292    
     74000   74000          426.33157      480.24926      10772.803      10251.341      8919.8394      1331.5014      3267.9334      6421.3317     -8148.9231     -76.720604     -2325.1242      7017.2324     -4824.2283     -431.18319      74452.61       42.068786      42.068786      42.068786      0.98298985    -1104.7228      1232.0605      1313.4101    
     74500   74500          413.31792      92.101464      10031.789      9931.8         8647.5639      1284.2361      3264.3371      6355.7579     -8111.1173     -69.627729     -2359.1832      7027.7694     -4823.7001     -431.25312      74440.536      42.066511      42.066511      42.066511      0.98314928    -830.76122     -440.45663      1547.5222    
     75000   75000          417.79127     -293.37448      9615.3979      9930.1541      8741.1567      1188.9974      3306.5275      6236.5352     -8061.1998     -73.190433     -2397.2692      7002.6089     -4825.0146     -436.38087      73565.813      41.901092      41.901092      41.901092      0.99483928    -336.1517      -414.56933     -129.40241    
     75500   75500          423.71359     -454.5384       9660.9691      10151.967      8865.0654      1286.9021      3277.3115      6472.4681     -8167.5774     -72.753351     -2397.1558      7002.7865     -4828.1775     -433.41919      74068.509      41.996317      41.996317      41.996317      0.98808738     979.77243     -1139.5236     -1203.864     
     76000   76000          419.61377      1700.4469      11989.235      10152.282      8779.2875      1372.9946      3274.5416      6507.7768     -8103.0704     -69.918265     -2406.4953      6997.0574     -4826.8972     -433.39374      74072.86       41.997139      41.997139      41.997139      0.98802935     1087.4696      2646.9562      1366.9149    
     76500   76500          423.6896       147.93108      10404.663      10245.819      8864.5634      1381.2559      3382.1487      6494.4302     -8149.8983     -75.805875     -2438.5948      6994.846      -4825.8698     -436.02207      73626.351      41.912583      41.912583      41.912583      0.99402128     86.312809     -136.45975      493.94018    
     77000   77000          422.44699     -447.30067      9709.2317      10194.507      8838.565       1355.9418      3376.7524      6374.3398     -8166.6467     -74.017184     -2333.9674      7003.7082     -4824.2273     -431.548        74389.67       42.056928      42.056928      42.056928      0.98382154    -1088.9396      825.33081     -1078.2932    
     77500   77500          419.43712      730.9203       10866.208      10069.698      8775.5918      1294.1061      3316.3871      6255.2747     -8072.3347     -69.039461     -2325.8545      7012.6434     -4822.9705     -429.63188      74721.443      42.119359      42.119359      42.119359      0.97945325     928.14481      647.74719      616.86892    
     78000   78000          416.76913      26.556234      10105.015      10076.377      8719.7712      1356.6057      3344.8792      6320.6314     -8067.0344     -72.425652     -2355.6765      7005.0566     -4818.825      -434.14586      73944.535      41.972873      41.972873      41.972873      0.98974399     759.76373     -432.42239     -247.67264    
     78500   78500          419.21749     -1411.2726      8588.8944      10115.865      8770.9966      1344.8684      3358.1471      6312.2435     -8031.3826     -75.750525     -2392.3376      6998.2847     -4824.3362     -432.71092      74189.746      42.019218      42.019218      42.019218      0.9864727     -474.0922      -1627.1751     -2132.5504    
     79000   79000          416.58786     -1109.2719      8844.8842      10044.46       8715.9785      1328.4818      3297.0175      6328.184      -8094.4148     -72.252717     -2327.4406      7017.0227     -4819.6343     -432.9401       74150.474      42.011802      42.011802      42.011802      0.98699517    -1647.6803      228.71713     -1908.8524    
     79500   79500          412.22892      527.48269      10559.69       9988.4389      8624.7795      1363.6594      3216.54        6500.1009     -8090.77       -73.839349     -2365.0277      7003.3105     -4826.655      -432.31313      74258.013      42.032102      42.032102      42.032102      0.98556583     145.08563      266.29685      1171.0656    
     80000   80000          426.55264     -830.46191      9219.7247      10111.371      8924.4649      1186.9066      3310.9207      6288.8913     -8095.9928     -65.955768     -2436.412       7010.7026     -4825.2474     -436.0583       73620.234      41.911422      41.911422      41.911422      0.99410388    -1103.6406     -911.19014     -476.55496    
     80500   80500          417.97192      1402.8924      11646.886      10146.926      8744.9364      1401.9894      3305.6732      6538.7349     -8090.4754     -76.145178     -2471.6691      7016.2345     -4820.3635     -437.88727      73312.736      41.852989      41.852989      41.852989      0.99827347    -58.410686      4748.3561     -481.26827    
     81000   81000          419.71765     -1169.7216      8886.7943      10152.911      8781.4611      1371.4496      3293.1509      6495.079      -8091.2869     -76.914349     -2432.8523      7008.371      -4824.0978     -432.54026      74219.018      42.024743      42.024743      42.024743      0.98608365    -2128.2065     -1229.9622     -150.9961     
     81500   81500          423.59912      798.95938      11036.873      10178.251      8862.6704      1315.5807      3341.5146      6280.8416     -8000.911      -73.451652     -2405.7287      6998.5723     -4825.2564     -435.65259      73688.794      41.924428      41.924428      41.924428      0.99317896     2879.513       889.05703     -1371.6919    
     82000   82000          417.4252      -20.180418      10009.579      10031.403      8733.4977      1297.9052      3274.1661      6361.0081     -8032.5201     -69.830444     -2423.1182      7010.5079     -4822.3082     -432.93297      74151.694      42.012033      42.012033      42.012033      0.98697892    -372.91417      1200.8303     -888.45742    
     82500   82500          415.80709     -219.15197      9693.5015      9928.0957      8699.643       1228.4527      3200.6423      6469.828      -8071.4708     -75.568228     -2498.548       7025.3158     -4821.7464     -437.3667       73399.995      41.869587      41.869587      41.869587      0.99708672    -660.12115     -599.19801      601.86326    
     83000   83000          418.47852      126.11106      10267.552      10133.618      8755.5356      1378.0827      3353.9834      6371.5781     -8083.3836     -69.230955     -2404.9577      7025.1066     -4815.0132     -440.83852      72821.933      41.759383      41.759383      41.759383      1.0050016     -229.67339      1371.3459     -763.33933    
     83500   83500          418.75691     -1044.0087      9093.2893      10222.771      8761.3602      1461.4113      3397.6054      6417.3156     -8081.7743     -76.459318     -2388.1178      7013.1758     -4820.3341     -432.75527      74182.144      42.017782      42.017782      42.017782      0.9865738     -1938.753      -1649.0881      455.81497    
     84000   84000          416.6014      -528.64001      9403.5999      9972.7197      8716.262       1256.4577      3356.3845      6264.9468     -8052.7312     -71.808343     -2436.9997      7016.619      -4819.9534     -434.88459      73818.927      41.949093      41.949093      41.949093      0.99142812    -2035.9704     -242.54681      692.59721    
     84500   84500          416.82414     -659.57584      9211.4088      9925.162       8720.922       1204.24        3315.8447      6335.8615     -8146.9114     -68.492229     -2455.2325      7035.9652     -4812.7952     -432.64758      74200.608      42.021268      42.021268      42.021268      0.98632831    -2435.9665      804.58943     -347.3504     
     85000   85000          422.65169      1246.1376      11396.868      10056.446      8842.8479      1213.5976      3296.5822      6225.899      -8075.8786     -68.147334     -2382.1554      7030.5356     -4813.238      -435.2532       73756.41       41.937248      41.937248      41.937248      0.99226847     2062.6914      1071.4675      604.25373    
     85500   85500          421.16016      274.92538      10440.459      10144.991      8811.6417      1333.349       3401.7828      6340.128      -8130.0816     -73.561022     -2413.6694      7023.7935     -4815.0433     -435.6332       73692.073      41.92505       41.92505       41.92505       0.99313476     873.51212      91.534523     -140.2705     
     86000   86000          423.9823       778.49826      11020.299      10178.209      8870.6873      1307.5221      3368.7688      6317.9111     -8129.3356     -72.013842     -2361.1813      7009.6093     -4826.2364     -432.8294       74169.439      42.015383      42.015383      42.015383      0.9867428      1098.16       -79.067488      1316.4023    
     86500   86500          416.0943      -712.75003      9217.7349      9982.5142      8705.6521      1276.862       3277.7531      6519.3223     -8187.1277     -70.018164     -2441.2323      7001.8989     -4823.7341     -436.33369      73573.767      41.902603      41.902603      41.902603      0.99473172     111.76143     -452.13937     -1797.8722    
[...]
    876000   876000         99.513846     -238.00174     -4970.1839     -4743.0772      2082.0591     -6825.1363      800.90168      2928.9655     -8962.3622     -24.535733     -3607.9992      6957.4878     -4917.5941     -490.6455       65429.549      40.295632      40.295632      40.295632      1.1185491     -133.31068     -254.04214     -326.65238    
    876500   876500         101.15246     -191.37993     -4915.1064     -4732.9656      2116.3428     -6849.3084      809.62989      2866.6713     -8923.1569     -24.698011     -3608.0719      6947.6159     -4917.2986     -491.93402      65258.17       40.26042       40.26042       40.26042       1.1214866      46.384717      288.04412     -908.56864    
    877000   877000         99.217254     -577.98453     -5283.1674     -4731.4106      2075.8537     -6807.2643      803.36864      2910.103      -8926.4167     -25.867809     -3610.1307      6957.129      -4915.4497     -490.44027      65456.928      40.301252      40.301252      40.301252      1.1180812     -123.74875     -600.255       -1009.9498    
    877500   877500         100.34591      962.66755     -3796.4777     -4713.7352      2099.4678     -6813.203       809.23154      2939.1518     -8944.3037     -24.381363     -3626.1272      6950.2232     -4916.9972     -491.36329      65333.968      40.276001      40.276001      40.276001      1.1201854      347.18353      1144.64        1396.1791    
    878000   878000         101.16162     -36.242437     -4712.8538     -4678.3325      2116.5343     -6794.8669      810.28666      2949.2127     -8966.9981     -23.851669     -3595.4317      6948.7065     -4916.7912     -491.52829      65312.036      40.271494      40.271494      40.271494      1.1205616      638.09185     -1069.0443      322.22517    
    878500   878500         100.15564      614.2799      -4097.5841     -4681.1061      2095.487      -6776.5931      826.78483      2977.8289     -8956.5197     -24.92531      -3642.9818      6958.9807     -4915.7608     -492.86361      65135.086      40.235092      40.235092      40.235092      1.1236058      489.013        688.1655       665.66119    
    879000   879000         101.10756     -216.66146     -4905.6451     -4698.8749      2115.4032     -6814.2781      796.46878      2954.3169     -8951.8012     -25.367107     -3628.3307      6957.2593     -4916.8241     -490.58167      65438.062      40.29738       40.29738       40.29738       1.1184035     -627.69841      776.38114     -798.66711    
    879500   879500         99.068039      221.07897     -4517.9004     -4728.2664      2072.7318     -6800.9982      806.95578      2940.8894     -8926.4658     -25.389129     -3636.1548      6954.8886     -4915.7223     -492.02765      65245.752      40.257866      40.257866      40.257866      1.1217         384.95248      297.89619     -19.61178     
    880000   880000         99.428229      599.35196     -4172.5894     -4745.4726      2080.2678     -6825.7404      806.54193      2876.628      -8916.2586     -23.612498     -3605.6955      6954.4992     -4917.8429     -489.81654      65540.281      40.318351      40.318351      40.318351      1.1166592      993.85735      1039.1466     -234.94802    
    880500   880500         99.443178      395.06226     -4387.3945     -4763.2367      2080.5806     -6843.8173      790.62803      2945.755      -8926.5917     -24.972957     -3668.4005      6955.5905     -4915.8256     -492.12745      65232.52       40.255144      40.255144      40.255144      1.1219275      386.4017       162.39437      636.39072    
    881000   881000         99.372752      592.79806     -4188.1098     -4755.3315      2079.1071     -6834.4386      798.50855      2932.208      -8944.8821     -24.216086     -3634.9972      6955.7801     -4916.8399     -489.29587      65610.023      40.332647      40.332647      40.332647      1.1154722      1600.6408     -408.50307      586.25644    
    881500   881500         99.747736      33.572032     -4676.5336     -4708.4759      2086.9526     -6795.4286      818.53798      2997.6441     -8975.6188     -24.74925      -3643.3012      6948.8505     -4916.7918     -492.07224      65239.839      40.25665       40.25665       40.25665       1.1218017     -550.4927       200.49993      450.70887    
    882000   882000         101.66929      181.45398     -4542.5117     -4715.408       2127.156      -6842.564       807.04598      2900.2601     -8944.664      -23.140071     -3614.2626      6949.4935     -4917.2969     -491.35857      65334.595      40.27613       40.27613       40.27613       1.1201747      424.82592     -592.00172      711.53775    
    882500   882500         100.39385      344.73364     -4428.962      -4757.1839      2100.4709     -6857.6548      789.86416      2937.3683     -8957.229      -23.801692     -3640.5997      6953.9519     -4917.2088     -491.73794      65284.191      40.26577       40.26577       40.26577       1.1210396     -50.514603      114.93935      969.77618    
    883000   883000         100.6706       273.14252     -4467.3779     -4728.4603      2106.2611     -6834.7215      800.6563       2918.3739     -8949.7589     -23.817513     -3616.7         6953.086      -4916.5612     -489.81182      65540.912      40.318481      40.318481      40.318481      1.1166485      949.33938     -891.78883      761.87701    
    883500   883500         100.10111      874.34043     -3887.2018     -4719.9561      2094.3461     -6814.3022      821.67521      2943.9667     -8971.9797     -25.656587     -3614.8145      6950.3215     -4917.8148     -491.5654       65307.106      40.270481      40.270481      40.270481      1.1206462      708.85393      1544.574       369.59338    
    884000   884000         99.714627      371.00491     -4361.581      -4715.0167      2086.2599     -6801.2766      823.08267      2925.7623     -8962.484      -23.582246     -3604.7734      6955.5857     -4914.8676     -491.45849      65321.312      40.2734        40.2734        40.2734        1.1204025      1360.8589      5.6282444     -253.47241    
    884500   884500         100.00954      204.20075     -4532.3659     -4726.8533      2092.4302     -6819.2834      806.89139      2938.7283     -8933.3893     -23.731071     -3644.0408      6954.3985     -4918.1404     -491.5679       65306.773      40.270412      40.270412      40.270412      1.1206519     -164.69005      388.57189      388.7204     
    885000   885000         100.28291      212.90355     -4513.4053     -4716.3181      2098.1497     -6814.4678      800.45799      3003.5386     -8982.0496     -25.164895     -3648.6226      6953.718      -4916.3452     -491.23712      65350.749      40.279449      40.279449      40.279449      1.1198978      767.12525     -122.00871     -6.4058979    
    885500   885500         101.40717      322.77269     -4432.539      -4740.0724      2121.6718     -6861.7442      778.632        2898.4288     -8933.2068     -24.541511     -3617.6208      6953.5134     -4916.9494     -491.38524      65331.05       40.275402      40.275402      40.275402      1.1202355      902.092        1036.119      -969.89289    
    886000   886000         100.08907     -128.07082     -4886.0587     -4764.0984      2094.094      -6858.1924      799.98273      2905.0047     -8944.589      -23.747371     -3632.0853      6954.6965     -4917.4547     -491.64213      65296.913      40.268385      40.268385      40.268385      1.1208211      23.874051     -173.80955     -234.27696    
    886500   886500         99.783914     -817.27884     -5499.6755     -4720.3752      2087.7096     -6808.0847      820.05071      2973.0671     -8968.4646     -25.821184     -3649.52        6958.4411     -4915.8379     -491.00175      65382.076      40.285884      40.285884      40.285884      1.1193612     -946.48843     -285.88002     -1219.4681    
    887000   887000         100.28009     -629.20093     -5313.4856     -4713.2835      2098.0906     -6811.3741      817.53867      2963.2447     -8963.5877     -24.716232     -3633.0463      6946.7278     -4917.5351     -490.80557      65408.209      40.291251      40.291251      40.291251      1.118914      -1219.6077     -132.65262     -535.3425     
    887500   887500         99.894818     -160.47873     -4890.919      -4738.2937      2090.0299     -6828.3236      792.51767      2917.0927     -8929.9347     -23.884493     -3623.2         6955.5599     -4916.4746     -492.27605      65212.829      40.251093      40.251093      40.251093      1.1222663     -629.75231     -38.847088      187.1632     
    888000   888000         100.00265     -83.113479     -4812.0548     -4732.816       2092.286      -6825.102       819.15798      2927.2839     -8964.5054     -25.449229     -3626.5742      6958.8792     -4913.8943     -491.07882      65371.814      40.283777      40.283777      40.283777      1.1195369     -498.94872     -112.50322      362.1115     
    888500   888500         101.70528     -689.73064     -5336.2291     -4677.5957      2127.909      -6805.5047      819.2282       2931.2799     -8935.5136     -23.137932     -3632.3584      6951.4738     -4916.4766     -490.29042      65476.934      40.305358      40.305358      40.305358      1.1177396     -659.25907     -1737.7933      327.86047    
    889000   889000         99.751475     -52.959455     -4772.3167     -4721.7306      2087.0309     -6808.7614      816.75595      2955.2469     -8955.4506     -25.515803     -3637.403       6955.7819     -4918.1766     -490.15035      65495.646      40.309197      40.309197      40.309197      1.1174202      10.726213     -890.97366      721.36908    
    889500   889500         99.507341      470.88471     -4284.5592     -4733.1995      2081.923      -6815.1225      798.28374      2931.435      -8928.8087     -22.783237     -3631.4722      6957.0477     -4918.8248     -491.39861      65329.273      40.275036      40.275036      40.275036      1.1202659      943.20277      859.56196     -390.1106     
    890000   890000         99.693255      283.31656     -4450.1078     -4719.5217      2085.8128     -6805.3345      791.93593      2970.4009     -8949.1796     -23.644038     -3622.2104      6945.894      -4918.5312     -492.34513      65203.679      40.24921       40.24921       40.24921       1.1224238      586.31649      766.24429     -502.6111     
    890500   890500         101.28475     -404.9815      -5074.7553     -4688.4453      2119.1105     -6807.5559      832.90459      2924.9273     -8957.911      -25.07882      -3621.7382      6955.6339     -4916.2937     -490.81392      65407.097      40.291023      40.291023      40.291023      1.118933      -604.03796     -113.39786     -497.50869    
    891000   891000         100.69307      398.40814     -4311.0444     -4690.6185      2106.7312     -6797.3497      818.92854      2990.8127     -8991.4807     -25.686387     -3629.6162      6955.7846     -4916.0921     -491.41592      65326.972      40.274563      40.274563      40.274563      1.1203054     -9.4518283      646.05213      558.62411    
    891500   891500         99.571631     -535.17613     -5232.3088     -4721.8651      2083.2681     -6805.1333      807.92348      2953.3733     -8933.5637     -24.65976      -3648.9327      6956.5653     -4915.8391     -490.87006      65399.617      40.289487      40.289487      40.289487      1.119061      -340.71952     -319.2333      -945.57558    
    892000   892000         98.263917     -267.54402     -5030.2151     -4775.1507      2055.9077     -6831.0584      807.43162      2903.4515     -8934.567      -22.742175     -3623.5476      6954.1886     -4915.2733     -491.09206      65370.052      40.283415      40.283415      40.283415      1.1195671      284.77427     -487.01782     -600.3885     
    892500   892500         100.01709     -742.0003      -5407.6263     -4697.6724      2092.5881     -6790.2605      818.94351      2961.5608     -8958.4011     -25.240547     -3622.1236      6953.3861     -4918.3856     -489.31839      65607.004      40.332029      40.332029      40.332029      1.1155236     -800.11813     -1437.3068      11.424001    
    893000   893000         97.783981      575.65599     -4210.314      -4757.795       2045.8663     -6803.6613      798.50926      2966.619      -8935.6642     -22.892454     -3643.308       6950.9934     -4917.9184     -492.27935      65212.391      40.251003      40.251003      40.251003      1.1222738     -257.88971      489.72316      1495.1345    
    893500   893500         99.310603     -588.19251     -5313.4653     -4753.3705      2077.8068     -6831.1773      790.71553      2977.6032     -8977.2418     -25.347611     -3623.247       6943.7738     -4917.4334     -491.67209      65292.934      40.267567      40.267567      40.267567      1.1208894     -905.18237      20.908102     -880.30325    
    894000   894000         100.30503      768.14071     -3977.2107     -4708.4099      2098.6125     -6807.0224      814.38019      2931.1296     -8953.711      -23.860994     -3609.8741      6952.0229     -4917.109      -491.83875      65270.811      40.263019      40.263019      40.263019      1.1212694      177.76092      1453.4821      673.17909    
    894500   894500         100.19864      474.17024     -4280.6495     -4732.0275      2096.3865     -6828.4141      796.32586      2889.1332     -8933.4634     -22.888137     -3599.4104      6958.7021     -4916.8133     -491.82608      65272.491      40.263365      40.263365      40.263365      1.1212405      241.49971      463.62865      717.38235    
    895000   895000         100.06723      259.33822     -4473.8564     -4720.6293      2093.6371     -6814.2664      800.74434      2953.3586     -8941.0201     -24.509627     -3637.1723      6949.8593     -4915.5267     -492.02439      65246.184      40.257955      40.257955      40.257955      1.1216926      55.720941      159.47065      562.82306    
    895500   895500         100.6623      -980.43195     -5662.5252     -4728.5191      2106.0875     -6834.6066      806.05123      2891.8386     -8912.3837     -23.586539     -3636.9318      6956.5706     -4916.165      -491.45684      65321.531      40.273445      40.273445      40.273445      1.1203987     -1584.4553     -404.73251     -952.10805    
    896000   896000         100.14078      148.49784     -4619.1916     -4760.9995      2095.176      -6856.1755      782.15234      2932.427      -8955.875      -22.55978      -3633.4506      6957.2591     -4916.1285     -490.27212      65479.378      40.305859      40.305859      40.305859      1.1176978     -9.6962408     -7.975809       463.16556    
    896500   896500         97.90121      -124.82404     -4902.0553     -4782.8078      2048.319      -6831.1269      804.11298      2891.3452     -8921.2877     -24.96462      -3616.589       6953.4738     -4917.2175     -490.07939      65505.129      40.311142      40.311142      40.311142      1.1172585     -831.33975     -408.30475      865.17237    
    897000   897000         98.877569     -590.0631      -5324.3603     -4761.6073      2068.7467     -6830.3541      797.14834      2943.9376     -8964.5854     -23.898515     -3616.2652      6949.7551     -4916.4461     -490.906        65394.828      40.288503      40.288503      40.288503      1.1191429     -258.90348     -366.25064     -1145.0352    
    897500   897500         99.85305       637.83118     -4127.303      -4734.2966      2089.156      -6823.4526      784.46866      2940.3802     -8921.9142     -24.624079     -3637.9329      6952.4919     -4916.3221     -491.97074      65253.298      40.259418      40.259418      40.259418      1.1215703      623.37037      962.681        327.44217    
    898000   898000         99.521696      827.52034     -3929.4633     -4716.8795      2082.2233     -6799.1028      807.05934      2881.9313     -8916.0595     -24.553344     -3586.6146      6956.9539     -4917.8198     -492.03047      65245.377      40.257789      40.257789      40.257789      1.1217064      291.60383      1564.9913      625.96585    
    898500   898500         99.416481      290.38644     -4478.963      -4755.6633      2080.022      -6835.6853      805.08462      2887.5287     -8923.9721     -23.297838     -3624.1929      6960.3851     -4917.221      -491.34259      65336.721      40.276567      40.276567      40.276567      1.1201382      650.38664      249.57941     -28.806728    
    899000   899000         99.892388     -193.57393     -4928.622      -4743.7785      2089.9791     -6833.7576      775.47921      2954.8865     -8956.922      -24.709844     -3616.9911      6952.1269     -4917.6271     -490.29801      65475.92       40.30515       40.30515       40.30515       1.1177569     -438.03062     -572.94857      430.25739    
    899500   899500         99.043117      319.47917     -4417.7929     -4722.4569      2072.2104     -6794.6673      809.99024      2973.2968     -8954.0617     -23.922752     -3632.7704      6949.5451     -4916.7447     -490.95201      65388.7        40.287245      40.287245      40.287245      1.1192478      704.79304      7.6914922      245.95298    
    900000   900000         99.909212      76.866595     -4645.9438     -4719.2244      2090.3311     -6809.5555      792.87788      2899.6554     -8898.0795     -23.755156     -3616.7648      6953.6047     -4917.094      -491.0959       65369.541      40.28331       40.28331       40.28331       1.1195758     -241.22323      3.3587692      468.46424    
Loop time of 95.1151 on 1 procs for 50000 steps with 7020 atoms

Performance: 45.419 ns/day, 0.528 hours/ns, 525.679 timesteps/s, 3.690 Matom-step/s
100.0% CPU use with 1 MPI tasks x 1 OpenMP threads

MPI task timing breakdown:
Section |  min time  |  avg time  |  max time  |%varavg| %total
---------------------------------------------------------------
Pair    | 13.3       | 13.3       | 13.3       |   0.0 | 13.98
Bond    | 11.368     | 11.368     | 11.368     |   0.0 | 11.95
Kspace  | 48.317     | 48.317     | 48.317     |   0.0 | 50.80
Neigh   | 3.3811     | 3.3811     | 3.3811     |   0.0 |  3.55
Comm    | 0.77757    | 0.77757    | 0.77757    |   0.0 |  0.82
Output  | 0.01382    | 0.01382    | 0.01382    |   0.0 |  0.01
Modify  | 15.775     | 15.775     | 15.775     |   0.0 | 16.59
Other   |            | 2.182      |            |       |  2.29

Nlocal:           7020 ave        7020 max        7020 min
Histogram: 1 0 0 0 0 0 0 0 0 0
Nghost:          20087 ave       20087 max       20087 min
Histogram: 1 0 0 0 0 0 0 0 0 0
Neighs:              0 ave           0 max           0 min
Histogram: 1 0 0 0 0 0 0 0 0 0
FullNghs:  4.79582e+06 ave 4.79582e+06 max 4.79582e+06 min
Histogram: 1 0 0 0 0 0 0 0 0 0

Total # of neighbors = 4795822
Ave neighs/atom = 683.16553
Ave special neighs/atom = 5.7008547
Neighbor list builds = 649
Dangerous builds = 0
  unfix npt_tg
  shell echo '{"stage":"T${temps}","status":"done"}' >> /home/alexzhao/PolyJarvis/data/PEG2/lammps/thermal/tg_sweep_r400/tg_progress.jsonl
  print "STAGE COMPLETE: Tg step T=${temps}K P=1.0atm steps=50000"
STAGE COMPLETE: Tg step T=100K P=1.0atm steps=50000
  next temps
  jump SELF TEMP_LOOP

write_data tg_step_out.data
System init for write_data ...
PPPM Kokkos initialization ...
  using 12-bit tables for long-range coulomb
  G vector (1/distance) = 0.30458322
  grid = 30 30 30
  stencil order = 5
  estimated absolute RMS force accuracy = 0.00028875339
  estimated relative force accuracy = 8.6957227e-07
  using double precision cuFFT
  3d grid and FFT values/proc = 50653 27000
Generated 10 of 10 mixed pair_coeff terms from sixthpower/sixthpower mixing rule
Total wall time: 0:30:30
