units real
atom_style full
boundary p p p

# --- Force Field Styles ---
pair_style lj/class2/coul/long 9.5 9.5
kspace_style pppm 1e-6
dielectric 1.000000
bond_style class2
angle_style class2
dihedral_style class2
improper_style class2
special_bonds lj/coul 0 0 1
pair_modify mix sixthpower tail yes
neighbor 2.0 bin
neigh_modify delay 0 every 1 check yes
neigh_modify one 4000
package gpu 1 neigh no

read_data /home/alexzhao/PolyJarvis/data/PROPSULFIDE_CURATED/lammps/equil/nvt_production/nvt_production_out.data
Reading data file ...
  orthogonal box = (1.3034711 1.3034711 1.3034711) to (41.020988 41.020988 41.020988)
  2 by 2 by 2 MPI processor grid
  reading atoms ...
  4020 atoms
  reading velocities ...
  4020 velocities
  scanning bonds ...
  4 = max bonds/atom
  scanning angles ...
  6 = max angles/atom
  scanning dihedrals ...
  11 = max dihedrals/atom
  scanning impropers ...
  4 = max impropers/atom
  orthogonal box = (1.3034711 1.3034711 1.3034711) to (41.020988 41.020988 41.020988)
  2 by 2 by 2 MPI processor grid
  reading bonds ...
  4010 bonds
  reading angles ...
  7600 angles
  reading dihedrals ...
  9570 dihedrals
  reading impropers ...
  4800 impropers
Finding 1-2 1-3 1-4 neighbors ...
  special bond factors lj:    0        0        1       
  special bond factors coul:  0        0        1       
     4 = max # of 1-2 neighbors
     7 = max # of 1-3 neighbors
    11 = max # of special neighbors
  special bonds CPU = 0.000 seconds
  read_data CPU = 0.063 seconds
include /home/alexzhao/PolyJarvis/data/PROPSULFIDE_CURATED/lammps/build/emc_build.params
# LAMMPS parameters created by EMC v9.4.4, build Jul 31 2025 20:33:44

# Variables

variable	seed		index	1001
variable	ntotal		index	4020
variable	fshape		index	1
variable	output		index	emc_build
variable	field		index	pcff/pcff
variable	location1	index	~/emc/field/
variable	nav		index	0.6022141179
variable	temperature	index	300
variable	radius		index	5
variable	nrelax		index	100
variable	weight_nonbond	index	0.0001
variable	weight_bond	index	0.0001
variable	weight_focus	index	1
variable	cutoff		index	9.5
variable	charge_cutoff	index	9.5
variable	kappa		index	4
variable	density1	index	0.65
variable	lprevious	index	0
variable	lphase		index	42.3244592443
variable	f_poly		index	10
variable	chem_repeat	index	*CC(C)S*
variable	chem_cap	index	*[H]
variable	lg_repeat	index	10
variable	lg_cap		index	1
variable	norm_poly	index	100
variable	l_poly		index	402
variable	mg_repeat	index	30.07012
variable	mg_cap		index	0
variable	m_poly		index	1202.8048
variable	n_poly		index	10
variable	mtotal		index	29678.2674
variable	nphase1		index	4020
variable	mphase1		index	29678.2674
variable	vphase1		index	75818.3369767
variable	lbox		index	42.3244592443
variable	lphase1		index	42.3244592443
variable	lxx		index	42.3244592443
variable	lyy		index	42.3244592443
variable	lzz		index	42.3244592443
variable	lzy		index	0
variable	lzx		index	0
variable	lyx		index	0
variable	vtotal		index	75818.3369767
variable	nl_poly		index	10

# Types

variable	type_c		index	1
variable	type_c1		index	2
variable	type_hc		index	3
variable	type_hs		index	4
variable	type_s		index	5
variable	type_sc		index	6

variable	type_bond_c_c1	index	1
variable	type_bond_c_hc	index	2
variable	type_bond_c_sc	index	3
variable	type_bond_c1_hc	index	4
variable	type_bond_c1_s	index	5
variable	type_bond_c1_sc	index	6
variable	type_bond_hs_s	index	7

variable	type_angle_c_c1_c index	1
variable	type_angle_c_c1_hc index	2
variable	type_angle_c_c1_s index	3
variable	type_angle_c_c1_sc index	4
variable	type_angle_c_sc_c1 index	5
variable	type_angle_c1_c_hc index	6
variable	type_angle_c1_c_sc index	7
variable	type_angle_c1_s_hs index	8
variable	type_angle_hc_c_hc index	9
variable	type_angle_hc_c_sc index	10
variable	type_angle_hc_c1_s index	11
variable	type_angle_hc_c1_sc index	12

# Clusters

variable	n0_poly		index	1
variable	n1_poly		index	10
variable	nl_poly		index	10

# Flags

variable	flag_charged	index	1

# Masses

mass		1    12.01115  # c
mass		2    12.01115  # c1
mass		3     1.00797  # hc
mass		4     1.00797  # hs
mass		5    32.06400  # s
mass		6    32.06400  # sc

# Potentials

pair_modify	mix sixthpower tail yes
special_bonds	lj/coul 0 0 1

# Pair Coeffs

pair_coeff	 1  1    0.05400    4.01000  # c,c
pair_coeff	 2  2    0.05400    4.01000  # c1,c1
pair_coeff	 3  3    0.02000    2.99500  # hc,hc
pair_coeff	 4  4    0.02000    2.99500  # hs,hs
pair_coeff	 5  5    0.07100    4.02700  # s,s
pair_coeff	 6  6    0.07100    4.02700  # sc,sc

# Bond Coeffs

bond_coeff	1    1.53000  299.67000 -501.77000  679.81000  # c,c1
bond_coeff	2    1.10100  345.00000 -691.89000  844.60000  # c,hc
bond_coeff	3    1.82300  225.27680 -327.70570  488.97220  # c,sc
bond_coeff	4    1.10100  345.00000 -691.89000  844.60000  # c1,hc
bond_coeff	5    1.82300  225.27680 -327.70570  488.97220  # c1,s
bond_coeff	6    1.82300  225.27680 -327.70570  488.97220  # c1,sc
bond_coeff	7    1.32610  275.11230 -531.31810  562.96300  # hs,s

# Angle Coeffs

angle_coeff	 1  112.67000   39.51600   -7.44300   -9.55830  # c,c1,c
angle_coeff	 2  110.77000   41.45300  -10.60400    5.12900  # c,c1,hc
angle_coeff	 3  112.56420   47.02760  -10.67900  -10.16870  # c,c1,s
angle_coeff	 4  112.56420   47.02760  -10.67900  -10.16870  # c,c1,sc
angle_coeff	 5   97.50000   57.69380   -5.05590  -11.82060  # c,sc,c1
angle_coeff	 6  110.77000   41.45300  -10.60400    5.12900  # c1,c,hc
angle_coeff	 7  112.56420   47.02760  -10.67900  -10.16870  # c1,c,sc
angle_coeff	 8   96.84790   56.73360   14.27130    0.00000  # c1,s,hs
angle_coeff	 9  107.66000   39.64100  -12.92100   -2.43180  # hc,c,hc
angle_coeff	10  107.85220   51.49490  -13.52700    7.02600  # hc,c,sc
angle_coeff	11  107.85220   51.49490  -13.52700    7.02600  # hc,c1,s
angle_coeff	12  107.85220   51.49490  -13.52700    7.02600  # hc,c1,sc

# BondBond Coeffs

angle_coeff	 1 bb    0.00000    1.53000    1.53000  # c,c1,c
angle_coeff	 2 bb    3.38720    1.53000    1.10100  # c,c1,hc
angle_coeff	 3 bb   10.91860    1.53000    1.82300  # c,c1,s
angle_coeff	 4 bb   10.91860    1.53000    1.82300  # c,c1,sc
angle_coeff	 5 bb  -22.31440    1.82300    1.82300  # c,sc,c1
angle_coeff	 6 bb    3.38720    1.53000    1.10100  # c1,c,hc
angle_coeff	 7 bb   10.91860    1.53000    1.82300  # c1,c,sc
angle_coeff	 8 bb   -0.57000    1.82300    1.32610  # c1,s,hs
angle_coeff	 9 bb    5.33160    1.10100    1.10100  # hc,c,hc
angle_coeff	10 bb    7.04630    1.10100    1.82300  # hc,c,sc
angle_coeff	11 bb    7.04630    1.10100    1.82300  # hc,c1,s
angle_coeff	12 bb    7.04630    1.10100    1.82300  # hc,c1,sc

# BondAngle Coeffs

angle_coeff	 1 ba    8.01600    8.01600    1.53000    1.53000  # c,c1,c
angle_coeff	 2 ba   20.75400   11.42100    1.53000    1.10100  # c,c1,hc
angle_coeff	 3 ba   -3.56210   22.38650    1.53000    1.82300  # c,c1,s
angle_coeff	 4 ba   -3.56210   22.38650    1.53000    1.82300  # c,c1,sc
angle_coeff	 5 ba  -13.00150  -13.00150    1.82300    1.82300  # c,sc,c1
angle_coeff	 6 ba   20.75400   11.42100    1.53000    1.10100  # c1,c,hc
angle_coeff	 7 ba   -3.56210   22.38650    1.53000    1.82300  # c1,c,sc
angle_coeff	 8 ba   10.73250    5.12210    1.82300    1.32610  # c1,s,hs
angle_coeff	 9 ba   18.10300   18.10300    1.10100    1.10100  # hc,c,hc
angle_coeff	10 ba    9.32250   44.98740    1.10100    1.82300  # hc,c,sc
angle_coeff	11 ba    9.32250   44.98740    1.10100    1.82300  # hc,c1,s
angle_coeff	12 ba    9.32250   44.98740    1.10100    1.82300  # hc,c1,sc

# Dihedral Coeffs

dihedral_coeff	 1    0.00000    0.00000    0.03160    0.00000   -0.16810    0.00000  # c,c1,c,hc
dihedral_coeff	 2   -0.70170    0.00000    0.02010    0.00000    0.10400    0.00000  # c,c1,c,sc
dihedral_coeff	 3   -0.48710    0.00000   -0.45140    0.00000   -0.14280    0.00000  # c,c1,s,hs
dihedral_coeff	 4   -0.50730    0.00000    0.01550    0.00000   -0.06710    0.00000  # c,c1,sc,c
dihedral_coeff	 5   -0.33380    0.00000   -0.06840    0.00000   -0.17060    0.00000  # c,sc,c1,hc
dihedral_coeff	 6   -0.50730    0.00000    0.01550    0.00000   -0.06710    0.00000  # c1,c,sc,c1
dihedral_coeff	 7   -0.33380    0.00000   -0.06840    0.00000   -0.17060    0.00000  # c1,sc,c,hc
dihedral_coeff	 8   -0.14320    0.00000    0.06170    0.00000   -0.10830    0.00000  # hc,c,c1,hc
dihedral_coeff	 9   -0.20780    0.00000   -0.10600    0.00000   -0.35950    0.00000  # hc,c,c1,s
dihedral_coeff	10   -0.20780    0.00000   -0.10600    0.00000   -0.35950    0.00000  # hc,c,c1,sc
dihedral_coeff	11   -0.20780    0.00000   -0.10600    0.00000   -0.35950    0.00000  # hc,c1,c,sc
dihedral_coeff	12   -0.53740    0.00000   -0.50910    0.00000   -0.13610    0.00000  # hc,c1,s,hs
dihedral_coeff	13   -1.20020    0.00000   -1.29990    0.00000   -0.16260    0.00000  # s,c1,c,sc
dihedral_coeff	14   -1.20020    0.00000   -1.29990    0.00000   -0.16260    0.00000  # sc,c,c1,sc

# MiddleBondTorsion Coeffs

dihedral_coeff	 1 mbt  -14.87900   -3.65810   -0.31380    1.53000  # c,c1,c,hc
dihedral_coeff	 2 mbt   -4.25930   -5.64680   -3.38350    1.53000  # c,c1,c,sc
dihedral_coeff	 3 mbt    0.50200   -1.02040   -0.91770    1.82300  # c,c1,s,hs
dihedral_coeff	 4 mbt   -2.51720   -2.01070   -2.85470    1.82300  # c,c1,sc,c
dihedral_coeff	 5 mbt   -0.69550   -2.94270   -1.23720    1.82300  # c,sc,c1,hc
dihedral_coeff	 6 mbt   -2.51720   -2.01070   -2.85470    1.82300  # c1,c,sc,c1
dihedral_coeff	 7 mbt   -0.69550   -2.94270   -1.23720    1.82300  # c1,sc,c,hc
dihedral_coeff	 8 mbt  -14.26100   -0.53220   -0.48640    1.53000  # hc,c,c1,hc
dihedral_coeff	 9 mbt   -5.75370   -2.01040    0.28130    1.53000  # hc,c,c1,s
dihedral_coeff	10 mbt   -5.75370   -2.01040    0.28130    1.53000  # hc,c,c1,sc
dihedral_coeff	11 mbt   -5.75370   -2.01040    0.28130    1.53000  # hc,c1,c,sc
dihedral_coeff	12 mbt   -0.37290    0.53730   -0.70350    1.82300  # hc,c1,s,hs
dihedral_coeff	13 mbt    1.70010   -3.34790   -0.80670    1.53000  # s,c1,c,sc
dihedral_coeff	14 mbt    1.70010   -3.34790   -0.80670    1.53000  # sc,c,c1,sc

# EndBondTorsion Coeffs

dihedral_coeff	 1 ebt    0.24860    0.24220   -0.09250    0.08140    0.05910    0.22190    1.53000    1.10100  # c,c1,c,hc
dihedral_coeff	 2 ebt   -0.15860   -0.72440   -0.26080   -0.79910   -0.95900    0.58550    1.53000    1.82300  # c,c1,c,sc
dihedral_coeff	 3 ebt    0.10260    0.09360   -0.04040   -0.30080    0.06060    0.45010    1.53000    1.32610  # c,c1,s,hs
dihedral_coeff	 4 ebt   -0.25420   -0.79840   -0.65250   -0.30470   -0.01090   -0.37630    1.53000    1.82300  # c,c1,sc,c
dihedral_coeff	 5 ebt    0.25920   -0.01660    0.13060   -0.41000    0.06680    0.41870    1.82300    1.10100  # c,sc,c1,hc
dihedral_coeff	 6 ebt   -0.25420   -0.79840   -0.65250   -0.30470   -0.01090   -0.37630    1.53000    1.82300  # c1,c,sc,c1
dihedral_coeff	 7 ebt    0.25920   -0.01660    0.13060   -0.41000    0.06680    0.41870    1.82300    1.10100  # c1,sc,c,hc
dihedral_coeff	 8 ebt    0.21300    0.31200    0.07770    0.21300    0.31200    0.07770    1.10100    1.10100  # hc,c,c1,hc
dihedral_coeff	 9 ebt   -0.15260   -0.37100    0.10480    1.06610    0.32980    0.42500    1.10100    1.82300  # hc,c,c1,s
dihedral_coeff	10 ebt   -0.15260   -0.37100    0.10480    1.06610    0.32980    0.42500    1.10100    1.82300  # hc,c,c1,sc
dihedral_coeff	11 ebt   -0.15260   -0.37100    0.10480    1.06610    0.32980    0.42500    1.10100    1.82300  # hc,c1,c,sc
dihedral_coeff	12 ebt    0.43760    0.20010   -1.06960    0.29020    0.06950    0.17260    1.10100    1.32610  # hc,c1,s,hs
dihedral_coeff	13 ebt   -0.32520    0.50080    0.51910   -0.32520    0.50080    0.51910    1.82300    1.82300  # s,c1,c,sc
dihedral_coeff	14 ebt   -0.32520    0.50080    0.51910   -0.32520    0.50080    0.51910    1.82300    1.82300  # sc,c,c1,sc

# AngleTorsion Coeffs

dihedral_coeff	 1 at   -0.24540    0.00000   -0.11360    0.31130    0.45160   -0.19880  112.67000  110.77000  # c,c1,c,hc
dihedral_coeff	 2 at   -2.09270   -0.14980   -1.78480    1.11790    0.36380    0.94230  112.67000  112.56420  # c,c1,c,sc
dihedral_coeff	 3 at   -0.60450    3.89410    0.88850    1.01930   -0.60160    0.20970  112.56420   96.84790  # c,c1,s,hs
dihedral_coeff	 4 at    5.12890    2.09270   -2.40040   -4.54890    0.08860    0.62370  112.56420   97.50000  # c,c1,sc,c
dihedral_coeff	 5 at   -1.08880   -0.20000   -0.09090    0.59620    3.34790    0.22650   97.50000  107.85220  # c,sc,c1,hc
dihedral_coeff	 6 at    5.12890    2.09270   -2.40040   -4.54890    0.08860    0.62370  112.56420   97.50000  # c1,c,sc,c1
dihedral_coeff	 7 at   -1.08880   -0.20000   -0.09090    0.59620    3.34790    0.22650   97.50000  107.85220  # c1,sc,c,hc
dihedral_coeff	 8 at   -0.80850    0.55690   -0.24660   -0.80850    0.55690   -0.24660  110.77000  110.77000  # hc,c,c1,hc
dihedral_coeff	 9 at   -2.03820    0.21020   -0.90230    0.33220   -0.05190   -0.35530  110.77000  112.56420  # hc,c,c1,s
dihedral_coeff	10 at   -2.03820    0.21020   -0.90230    0.33220   -0.05190   -0.35530  110.77000  112.56420  # hc,c,c1,sc
dihedral_coeff	11 at   -2.03820    0.21020   -0.90230    0.33220   -0.05190   -0.35530  110.77000  112.56420  # hc,c1,c,sc
dihedral_coeff	12 at   -2.25330    2.69480   -0.17230    1.43400   -0.19150   -0.26110  107.85220   96.84790  # hc,c1,s,hs
dihedral_coeff	13 at   -5.05650   -0.63550    0.60150   -5.05650   -0.63550    0.60150  112.56420  112.56420  # s,c1,c,sc
dihedral_coeff	14 at   -5.05650   -0.63550    0.60150   -5.05650   -0.63550    0.60150  112.56420  112.56420  # sc,c,c1,sc

# AngleAngleTorsion Coeffs

dihedral_coeff	 1 aat  -16.16400  112.67000  110.77000  # c,c1,c,hc
dihedral_coeff	 2 aat  -26.71000  112.67000  112.56420  # c,c1,c,sc
dihedral_coeff	 3 aat  -28.17280  112.56420   96.84790  # c,c1,s,hs
dihedral_coeff	 4 aat  -32.89490  112.56420   97.50000  # c,c1,sc,c
dihedral_coeff	 5 aat  -26.49000   97.50000  107.85220  # c,sc,c1,hc
dihedral_coeff	 6 aat  -32.89490  112.56420   97.50000  # c1,c,sc,c1
dihedral_coeff	 7 aat  -26.49000   97.50000  107.85220  # c1,sc,c,hc
dihedral_coeff	 8 aat  -12.56400  110.77000  110.77000  # hc,c,c1,hc
dihedral_coeff	 9 aat  -13.10260  110.77000  112.56420  # hc,c,c1,s
dihedral_coeff	10 aat  -13.10260  110.77000  112.56420  # hc,c,c1,sc
dihedral_coeff	11 aat  -13.10260  110.77000  112.56420  # hc,c1,c,sc
dihedral_coeff	12 aat  -18.63340  107.85220   96.84790  # hc,c1,s,hs
dihedral_coeff	13 aat  -13.96740  112.56420  112.56420  # s,c1,c,sc
dihedral_coeff	14 aat  -13.96740  112.56420  112.56420  # sc,c,c1,sc

# BondBond13 Coeffs

dihedral_coeff	 1 bb13    0.00000    1.53000    1.10100  # c,c1,c,hc
dihedral_coeff	 2 bb13    0.00000    1.53000    1.82300  # c,c1,c,sc
dihedral_coeff	 3 bb13    0.00000    1.53000    1.32610  # c,c1,s,hs
dihedral_coeff	 4 bb13    0.00000    1.53000    1.82300  # c,c1,sc,c
dihedral_coeff	 5 bb13    0.00000    1.82300    1.10100  # c,sc,c1,hc
dihedral_coeff	 6 bb13    0.00000    1.53000    1.82300  # c1,c,sc,c1
dihedral_coeff	 7 bb13    0.00000    1.82300    1.10100  # c1,sc,c,hc
dihedral_coeff	 8 bb13    0.00000    1.10100    1.10100  # hc,c,c1,hc
dihedral_coeff	 9 bb13    0.00000    1.10100    1.82300  # hc,c,c1,s
dihedral_coeff	10 bb13    0.00000    1.10100    1.82300  # hc,c,c1,sc
dihedral_coeff	11 bb13    0.00000    1.10100    1.82300  # hc,c1,c,sc
dihedral_coeff	12 bb13    0.00000    1.10100    1.32610  # hc,c1,s,hs
dihedral_coeff	13 bb13    0.00000    1.82300    1.82300  # s,c1,c,sc
dihedral_coeff	14 bb13    0.00000    1.82300    1.82300  # sc,c,c1,sc

# Improper Coeffs

improper_coeff	 1    0.00000    0.00000  # c,c1,hc,hc
improper_coeff	 2    0.00000    0.00000  # c,c1,hc,sc
improper_coeff	 3    0.00000    0.00000  # c,hc,hc,hc
improper_coeff	 4    0.00000    0.00000  # c,hc,hc,sc
improper_coeff	 5    0.00000    0.00000  # c1,c,c,hc
improper_coeff	 6    0.00000    0.00000  # c1,c,c,s
improper_coeff	 7    0.00000    0.00000  # c1,c,c,sc
improper_coeff	 8    0.00000    0.00000  # c1,c,hc,s
improper_coeff	 9    0.00000    0.00000  # c1,c,hc,sc
improper_coeff	10    0.00000    0.00000  # c1,c,s,hc
improper_coeff	11    0.00000    0.00000  # c1,c,sc,hc

# AngleAngle Coeffs

improper_coeff	 1 aa    0.27380   -0.48250    0.27380  110.77000  110.77000  107.66000  # c,c1,hc,hc
improper_coeff	 2 aa    2.79850   -3.00310   -0.06680  110.77000  112.56420  107.85220  # c,c1,hc,sc
improper_coeff	 3 aa   -0.31570   -0.31570   -0.31570  107.66000  107.66000  107.66000  # c,hc,hc,hc
improper_coeff	 4 aa    0.50860    0.50860   -0.06400  107.66000  107.85220  107.85220  # c,hc,hc,sc
improper_coeff	 5 aa   -1.31990   -1.31990    0.11840  112.67000  110.77000  110.77000  # c1,c,c,hc
improper_coeff	 6 aa   -0.25640   -0.25640   -0.87660  112.67000  112.56420  112.56420  # c1,c,c,s
improper_coeff	 7 aa   -0.25640   -0.25640   -0.87660  112.67000  112.56420  112.56420  # c1,c,c,sc
improper_coeff	 8 aa    2.79850   -3.00310   -0.06680  110.77000  112.56420  107.85220  # c1,c,hc,s
improper_coeff	 9 aa    2.79850   -3.00310   -0.06680  110.77000  112.56420  107.85220  # c1,c,hc,sc
improper_coeff	10 aa   -0.06680   -3.00310    2.79850  112.56420  110.77000  107.85220  # c1,c,s,hc
improper_coeff	11 aa   -0.06680   -3.00310    2.79850  112.56420  110.77000  107.85220  # c1,c,sc,hc


# --- Thermo Output ---
thermo_style custom step time temp press enthalpy etotal ke pe ebond eangle edihed eimp evdwl ecoul elong etail vol lx ly lz density pxx pyy pzz
thermo_modify flush yes
thermo 1000

# --- Trajectory ---
dump dump_npt all custom 1000 npt_production.dump id type mol x y z ix iy iz vx vy vz

# --- Restart Checkpointing ---
# No restart checkpointing

# --- Initial Velocities (optional) ---
# Velocities read from data file

# --- SHAKE Constraints ---
# SHAKE disabled

# --- NPT Thermostat + Barostat (Nose-Hoover) ---
# T_damp = 100.0 fs  (heat bath coupling)
# P_damp = 1000.0 fs  (pressure bath coupling, ~10x T_damp typical)
# Ramp: T=560.0->560.0K  P=1.0->1.0atm
timestep 1.0
fix npt_fix all npt temp 560.0 560.0 100.0 iso 1.0 1.0 1000.0

run 500000

CITE-CITE-CITE-CITE-CITE-CITE-CITE-CITE-CITE-CITE-CITE-CITE-CITE

Your simulation uses code contributions which should be cited:

- GPU package (short-range, long-range and three-body potentials): doi:10.1016/j.cpc.2010.12.021, doi:10.1016/j.cpc.2011.10.012, doi:10.1016/j.cpc.2013.08.002, doi:10.1016/j.commatsci.2014.10.068, doi:10.1016/j.cpc.2016.10.020, doi:10.3233/APC200086

@Article{Brown11,
 author = {W. M. Brown and P. Wang and S. J. Plimpton and A. N. Tharrington},
 title = {Implementing Molecular Dynamics on Hybrid High Performance Computers---Short Range Forces},
 journal = {Comput.\ Phys.\ Commun.},
 year =    2011,
 volume =  182,
 pages =   {898--911},
 doi =     {10.1016/j.cpc.2010.12.021}
}

@Article{Brown12,
 author = {W. M. Brown and A. Kohlmeyer and S. J. Plimpton and A. N. Tharrington},
 title = {Implementing Molecular Dynamics on Hybrid High Performance Computers - Particle-Particle Particle-Mesh},
 journal = {Comput.\ Phys.\ Commun.},
 year =    2012,
 volume =  183,
 doi =     {10.1016/j.cpc.2011.10.012},
 pages =   {449--459}
}

@Article{Brown13,
 author = {W. M. Brown and Y. Masako},
 title = {Implementing Molecular Dynamics on Hybrid High Performance Computers---Three-Body Potentials},
 journal = {Comput.\ Phys.\ Commun.},
 year =    2013,
 volume =  184,
 pages =   {2785--2793},
 doi =     {10.1016/j.cpc.2013.08.002},
}

@Article{Trung15,
 author = {T. D. Nguyen and S. J. Plimpton},
 title = {Accelerating Dissipative Particle Dynamics Simulations for Soft Matter Systems},
 journal = {Comput.\ Mater.\ Sci.},
 year =    2015,
 doi =     {10.1016/j.commatsci.2014.10.068},
 volume =  100,
 pages =   {173--180}
}

@Article{Trung17,
 author = {T. D. Nguyen},
 title = {{GPU}-Accelerated {T}ersoff Potentials for Massively Parallel
    Molecular Dynamics Simulations},
 journal = {Comput.\ Phys.\ Commun.},
 year =    2017,
 doi =     {10.1016/j.cpc.2016.10.020},
 volume =  212,
 pages =   {113--122}
}

@inproceedings{Nikolskiy19,
 author = {V. Nikolskiy and V. Stegailov},
 title = {{GPU} Acceleration of Four-Site Water Models in {LAMMPS}},
 booktitle = {Proceedings of the International Conference on Parallel
    Computing (ParCo 2019), Prague, Czech Republic},
 doi =     {10.3233/APC200086},
 year =    2019
}

CITE-CITE-CITE-CITE-CITE-CITE-CITE-CITE-CITE-CITE-CITE-CITE-CITE

PPPM initialization ...
  using 12-bit tables for long-range coulomb
  G vector (1/distance) = 0.28691209
  grid = 24 24 24
  stencil order = 5
  estimated absolute RMS force accuracy = 0.00028527361
  estimated relative force accuracy = 8.5909301e-07
  using double precision KISS FFT
  3d grid and FFT values/proc = 6859 1728
Generated 15 of 15 mixed pair_coeff terms from sixthpower/sixthpower mixing rule
Neighbor list info ...
  update: every = 1 steps, delay = 0 steps, check = yes
  max neighbors/atom: 4000, page size: 100000
  master list distance cutoff = 11.5
  ghost atom cutoff = 11.5
  binsize = 5.75, bins = 7 7 7
  1 neighbor lists, perpetual/occasional/extra = 1 0 0
  (1) pair lj/class2/coul/long/gpu, perpetual
      attributes: full, newton on
      pair build: full/bin
      stencil: full/bin/3d
      bin: standard
Per MPI rank memory allocation (min/avg/max) = 15.77 | 16.11 | 16.16 Mbytes
   Step          Time           Temp          Press         Enthalpy        TotEng         KinEng         PotEng         E_bond        E_angle        E_dihed        E_impro         E_vdwl         E_coul         E_long         E_tail         Volume           Lx             Ly             Lz          Density          Pxx            Pyy            Pzz      
         0   0              560.68469     -232.66586      5267.4046      5480.0005      6716.9328     -1236.9323      2472.8697      3877.6049     -6750.6046      5.9178358     -102.56856      544.90822     -1285.0597     -133.32746      62653.635      39.717517      39.717517      39.717517      0.78657716     641.93793     -1699.8525      359.91693    
      1000   1000           554.80616     -207.8578       5542.3333      5735.0092      6646.5088     -911.49958      2573.5083      4013.1213     -6676.5959      3.7440754     -96.736671      550.12276     -1278.6634     -131.42583      63560.185      39.908161      39.908161      39.908161      0.77535831    -365.93527      334.87203     -592.51015    
      2000   2000           563.84139      121.8487       5695.6551      5585.1514      6754.7497     -1169.5983      2560.4156      3843.2899     -6736.4163      4.1787049     -108.48188      550.86978     -1283.4541     -134.33397      62184.194      39.618072      39.618072      39.618072      0.79251518     383.26889     -610.9446       593.22181    
      3000   3000           561.44829      313.2247       5871.4876      5592.7391      6726.0807     -1133.3416      2605.9444      3841.7158     -6676.737       5.6756295     -169.90058      546.4954      -1286.5352     -136.89424      61021.193      39.36953       39.36953       39.36953       0.80761971     157.02818      578.32233      204.32359    
      4000   4000           559.75832      1020.0632      6674.1041      5723.2093      6705.835      -982.62566      2535.1565      3875.1993     -6649.9671      10.016275     -27.664915      554.10039     -1279.4661     -130.68821      63918.925      39.983102      39.983102      39.983102      0.77100668     132.70458      2193.4817      734.00349    
      5000   5000           565.01195     -193.25068      5498.8752      5674.5182      6768.7729     -1094.2546      2521.7894      3939.7316     -6692.2436      9.7517903     -128.76754      541.79415     -1286.3104     -134.03921      62320.942      39.647092      39.647092      39.647092      0.79077621     131.49249     -1020.11        308.86546    
      6000   6000           557.04527      262.16258      5932.4235      5696.463       6673.3331     -976.8701       2630.5397      3939.5393     -6713.2613      6.8883145     -113.91398      553.05267     -1279.7149     -135.35462      61715.291      39.51824       39.51824       39.51824       0.79853659    -69.235013     -451.63121      1307.354     
      7000   7000           553.08985     -10.309679      5394.9834      5404.0619      6625.9476     -1221.8857      2512.5307      3742.1829     -6613.5085      6.373236      -143.51789      554.93698     -1280.8832     -138.34817      60379.91       39.23113       39.23113       39.23113       0.81619727     1372.2386      849.96694     -2253.1346    
      8000   8000           565.49486      824.02665      6470.399       5723.741       6774.5581     -1050.8171      2615.0159      3897.8589     -6697.9547      7.7200043     -143.03499      550.77315     -1281.1954     -134.45015      62130.463      39.606658      39.606658      39.606658      0.79320056    -80.914298      1854.2151      698.77917    
      9000   9000           548.19752     -626.06392      5058.921       5611.8656      6567.3381     -955.47248      2676.4903      3916.6788     -6628.67        5.229123      -195.15605      553.66188     -1283.7065     -137.93637      60560.169      39.270132      39.270132      39.270132      0.81376784    -1274.8765     -120.02251     -483.29278    
     10000   10000          562.10504     -133.48506      5491.5251      5609.1018      6733.9485     -1124.8467      2547.5094      3813.6303     -6595.6946      6.7842849     -159.85901      545.66558     -1282.8826     -138.30989      60396.619      39.234749      39.234749      39.234749      0.81597148    -392.66242     -1198.8746      1191.0819    
     11000   11000          565.77145      205.5832       5977.8234      5795.8996      6777.8716     -981.97195      2571.7029      3930.7261     -6610.0304      5.0555512     -141.60708      543.20066     -1281.0196     -137.67021      60677.251      39.295423      39.295423      39.295423      0.8121976      968.34729      1442.5116     -1794.1093    
     12000   12000          568.04913     -908.10853      4969.7234      5786.5811      6805.158      -1018.5769      2544.6817      3907.6074     -6657.9575      7.1733903     -82.790812      546.33637     -1283.6274     -135.43569      61678.352      39.510354      39.510354      39.510354      0.79901483    -3156.6405      90.001333      342.3136     
     13000   13000          562.32596     -1292.4565      4390.7046      5537.7729      6736.5951     -1198.8221      2553.0153      3842.6361     -6630.4394      3.6056275     -233.97758      549.0763      -1282.7384     -137.26772      60855.168      39.333793      39.333793      39.333793      0.80982305    -1535.7241     -710.42282     -1631.2225    
     14000   14000          559.75094      52.90662       5692.0735      5646.22        6705.7466     -1059.5266      2643.4259      3869.322      -6659.5431      2.373856      -181.98614      550.12556     -1283.2446     -140.56569      59427.374      39.023736      39.023736      39.023736      0.82927975     327.746        36.285572     -205.31171    
     15000   15000          558.5078       591.47963      6217.4992      5706.7871      6690.854      -984.06688      2692.3269      3918.1974     -6659.8753      5.0650843     -203.98054      548.83625     -1284.6366     -141.09298      59205.283      38.975062      38.975062      38.975062      0.83239056     622.40764      1951.5744     -799.5431     
     16000   16000          559.31473      609.48331      6135.7767      5585.9117      6700.5208     -1114.6091      2585.1856      3894.6568     -6714.2117      11.021415     -161.00322      550.61432     -1280.8724     -135.03536      61861.204      39.54936       39.54936       39.54936       0.79665307     2136.3091     -721.42426      413.56505    
     17000   17000          554.1163       1233.6465      6563.7042      5446.1179      6638.2444     -1192.1265      2553.8849      3811.6929     -6677.4372      3.4839363     -149.98323      549.47754     -1283.2453     -134.47806      62117.565      39.603917      39.603917      39.603917      0.79336526     1586.0322      1211.4478      903.45967    
     18000   18000          568.2118      -1321.2625      4439.178       5631.7312      6807.1066     -1175.3754      2550.6995      3820.4026     -6686.434       6.9956971     -135.06181      551.86069     -1283.838      -134.97493      61888.898      39.555261      39.555261      39.555261      0.79629658    -1660.8287     -1141.0357     -1161.9233    
     19000   19000          559.47351     -884.97543      4871.1043      5677.7558      6702.4231     -1024.6673      2634.3938      3927.848      -6668.7016      5.5921564     -177.17891      541.7701      -1288.3907     -133.65556      62499.831      39.684991      39.684991      39.684991      0.78851282    -956.63415     -536.96979     -1161.3223    
     20000   20000          562.63657     -870.66526      4964.9211      5744.1282      6740.3161     -996.18788      2609.3412      3939.1954     -6672.1406      6.1462166     -143.93164      547.78542     -1282.5838     -136.12568      61365.715      39.443484      39.443484      39.443484      0.80308553    -2325.6468     -57.560959     -228.788      
     21000   21000          562.46432      953.68645      6535.2574      5683.1675      6738.2525     -1055.085       2618.3164      3908.5759     -6666.5765      3.4054001     -181.66024      544.45069     -1281.5966     -136.35215      61263.795      39.421635      39.421635      39.421635      0.80442157     8.5003847      2366.2044      486.35454    
     22000   22000          551.99302     -214.44511      5388.3697      5587.9508      6612.8077     -1024.8569      2615.33        3818.5082     -6629.3396      6.5500186     -104.1929       550.02208     -1281.7347     -130.89965      63815.676      39.961562      39.961562      39.961562      0.77225411    -1728.1514      52.464733      1032.3513    
     23000   23000          556.36204     -874.64349      4782.7421      5589.1353      6665.1481     -1076.0128      2672.7969      3752.5726     -6646.436       2.5397892     -117.22673      544.35071     -1284.61       -132.13747      63217.872      39.836388      39.836388      39.836388      0.77955674     452.39615     -2266.6718     -809.65486    
     24000   24000          574.51391      1778.7956      7264.4075      5673.8124      6882.6052     -1208.7928      2577.142       3738.2101     -6646.6613      3.8926528     -143.90511      546.73585     -1284.2069     -136.24111      61313.726      39.432342      39.432342      39.432342      0.80376648     1569.1499      1539.985       2227.2519    
     25000   25000          570.02206      742.70902      6338.7977      5668.4895      6828.7934     -1160.304       2489.6906      3851.9923     -6661.6779      7.2971217     -109.81979      548.56826     -1286.3545     -134.98513      61884.224      39.554265      39.554265      39.554265      0.79635673     1304.1763     -807.06519      1731.0159    
     26000   26000          549.95669     -888.94148      4770.6526      5579.5131      6588.4128     -1008.8997      2630.0702      3843.4189     -6641.8581      6.4053689     -106.94536      540.03278     -1280.0235     -133.88789      62391.377      39.662022      39.662022      39.662022      0.78988348    -346.05409     -2061.3718     -259.39855    
     27000   27000          567.92743     -473.49792      5300.1475      5735.8931      6803.7        -1067.8069      2624.48        3866.3546     -6719.4155      6.7436374     -113.02581      548.22163     -1281.1655     -132.38136      63101.405      39.81191       39.81191       39.81191       0.78099558    -64.195361     -127.67739     -1228.621     
     28000   28000          547.17133     -18.297744      5451.2442      5467.8392      6555.0445     -1087.2053      2501.2354      3883.9503     -6628.753       5.7512067     -113.62152      547.45656     -1283.2242     -134.32666      62187.578      39.618791      39.618791      39.618791      0.79247206    -147.22506      630.72042     -538.38859    
     29000   29000          567.73808      611.54759      6321.2029      5758.5472      6801.4316     -1042.8844      2577.3718      3872.3462     -6669.6073      5.9609384     -84.099646      539.85556     -1284.712      -132.4126       63086.519      39.808779      39.808779      39.808779      0.78117986    -409.9294       2638.4662     -393.89401    
     30000   30000          559.18713      628.88349      6066.637       5497.4026      6698.9922     -1201.5896      2508.1428      3812.7475     -6641.0538      7.8169348     -145.77152      541.8328      -1285.3043     -134.59249      62064.756      39.592691      39.592691      39.592691      0.79404032     101.15065      885.78293      899.71687    
     31000   31000          557.37221     -153.65242      5516.6341      5654.9891      6677.2497     -1022.2606      2586.3754      3909.1498     -6693.9019      7.797511      -82.085744      538.07194     -1287.6677     -135.29642      61741.839      39.523906      39.523906      39.523906      0.79819324    -477.81442     -250.36651      267.22365    
     32000   32000          553.63907      299.65664      5799.3783      5523.914       6632.5272     -1108.6132      2597.463       3797.4245     -6614.0156      5.8504441     -149.56675      541.39694     -1287.1657     -132.52576      63032.653      39.797445      39.797445      39.797445      0.78184744     754.37546      571.74732     -427.15285    
     33000   33000          558.49551      340.37835      5968.675       5658.089       6690.7067     -1032.6177      2551.963       3998.0171     -6738.332       7.5038929     -98.267118      535.64302     -1289.1456     -133.51246      62566.818      39.699164      39.699164      39.699164      0.7876686     -1121.1175     -219.16042      2361.4129    
     34000   34000          562.64147      356.50401      5897.2817      5570.911       6740.3749     -1169.4639      2539.3854      3767.5685     -6647.0867      6.7387776     -99.163099      546.62529     -1283.532      -133.07453      62772.716      39.742664      39.742664      39.742664      0.78508501    -167.40978      1371.2826     -134.36083    
     35000   35000          567.54686      383.60766      6124.8983      5781.7808      6799.1408     -1017.3601      2615.2726      3885.3066     -6623.3058      3.387433      -148.01373      536.87531     -1286.8824     -136.20281      61330.966      39.436037      39.436037      39.436037      0.80354055     214.16932      954.88308     -18.229407    
     36000   36000          567.04287     -590.71128      5059.5797      5592.5054      6793.103      -1200.5976      2585.1303      3803.9912     -6664.3843      4.6662918     -190.11782      546.23718     -1286.1205     -135.03625      61860.798      39.549273      39.549273      39.549273      0.7966583     -1072.7972     -278.25248     -421.08418    
     37000   37000          565.81895      596.26411      6282.9643      5719.9651      6778.4407     -1058.4756      2519.9444      3782.7513     -6570.4856      4.4397741     -64.028368      547.94733     -1279.0444     -129.02463      64743.067      40.15421       40.15421       40.15421       0.76119221    -1080.7422      1590.9391      1278.5954    
     38000   38000          558.36906     -579.86185      5285.1056      5824.9284      6689.1919     -864.26348      2683.3289      4017.355      -6759.3755      3.6957196     -65.82118       539.94736     -1283.3937     -130.86244      63833.824      39.96535       39.96535       39.96535       0.77203456    -1405.3195     -451.17143      116.90543    
     39000   39000          551.8524      -315.51022      5327.4073      5617.4367      6611.1231     -993.68635      2620.8128      3935.0842     -6719.4185      3.6037838     -81.686305      535.46505     -1287.5474     -132.5297       63030.778      39.797051      39.797051      39.797051      0.78187069     1785.185      -3451.3908      719.67508    
     40000   40000          564.16148     -854.77894      4879.4316      5659.5863      6758.5843     -1098.9981      2545.9077      3861.7334     -6655.8738      5.7660546     -125.06888      549.6231      -1281.0856     -133.47959      62582.225      39.702422      39.702422      39.702422      0.78747469    -526.74397     -1696.082      -341.51084    
     41000   41000          568.00547      443.59729      6276.4045      5860.2197      6804.6348     -944.41507      2613.0812      3941.8633     -6677.6265      9.0108127     -96.513607      549.34903     -1283.5793     -129.85076      64331.157      40.068872      40.068872      40.068872      0.76606609     124.79702      1047.763       158.23181    
     42000   42000          557.91254      385.49105      6256.484       5886.7267      6683.7228     -796.9961       2653.6577      3986.4783     -6669.1053      5.5089261     -40.030421      547.15397     -1280.6592     -127.01039      65769.816      40.365364      40.365364      40.365364      0.74930904     129.34405      734.89501      292.23409    
     43000   43000          568.58443      363.18833      6224.1386      5859.5021      6811.5708     -952.0687       2525.5353      3892.4258     -6589.8368      5.5315147     -50.736737      547.18019     -1282.1681     -121.34264      68841.837      40.984296      40.984296      40.984296      0.71587163     890.46473     -440.8448       639.94506    
     44000   44000          565.71322     -447.44783      5165.4196      5597.1831      6777.1741     -1179.9909      2501.6486      3788.4429     -6655.7366      5.2329665     -75.048197      539.48379     -1284.0144     -126.25197      66164.906      40.44603       40.44603       40.44603       0.7448347     -1127.6436     -641.62152      426.92159    
     45000   45000          547.67329      190.37967      5725.9936      5549.2268      6561.0579     -1011.8311      2616.3116      3864.2515     -6697.6543      8.1140575     -59.269877      545.13855     -1288.7226     -131.20838      63665.52       39.930195      39.930195      39.930195      0.77407548     407.35056     -807.05894      970.8474     
     46000   46000          561.41772     -84.3441        5757.6676      5832.6587      6725.7145     -893.05576      2607.6003      3981.1446     -6629.6933      5.6974874     -110.25321      538.1627      -1285.7143     -137.0209       60964.788      39.357396      39.357396      39.357396      0.80836692    -117.01143      539.96376     -675.98462    
     47000   47000          563.99762     -481.27119      5286.4755      5724.163       6756.6214     -1032.4584      2516.5681      3966.8352     -6678.2063      6.9760178     -97.059782      540.10811     -1287.6796     -133.95765      62358.887      39.655137      39.655137      39.655137      0.79029502     419.58482     -1526.3992     -336.99922    
     48000   48000          557.44819     -679.63203      5011.7388      5629.4829      6678.16       -1048.6771      2526.5334      3997.191      -6679.5352      4.0086405     -158.04602      547.29815     -1286.1271     -134.03154      62324.511      39.647849      39.647849      39.647849      0.79073093    -752.76067     -1084.4369     -201.69852    
     49000   49000          549.55053     -588.6297       4965.209       5479.9038      6583.5469     -1103.6432      2571.4001      3848.8734     -6626.5166      6.1365571     -165.79447      546.70684     -1284.449      -139.32665      59955.868      39.139076      39.139076      39.139076      0.82196989    -1719.7895      436.95747     -483.05703    
     50000   50000          540.21279      575.56282      5813.6195      5314.5644      6471.6821     -1157.1176      2505.3317      3838.2242     -6570.5413      6.5041133     -193.42551      541.60141     -1284.8122     -140.50314      59453.831      39.029526      39.029526      39.029526      0.82891072     2158.0116     -149.84399     -281.47912    
     51000   51000          561.13975     -912.22099      4869.5766      5668.1528      6722.3844     -1054.2316      2508.7394      3984.7877     -6668.4125      5.9403233     -149.19718      548.38636     -1284.4758     -139.16354      60026.137      39.15436       39.15436       39.15436       0.82100766    -1444.7207     -2537.9955      1246.0532    
     52000   52000          552.18415     -365.13276      5058.1931      5376.027       6615.0974     -1239.0704      2471.1791      3748.3216     -6532.4425      2.6899951     -193.13374      547.91906     -1283.6039     -139.95625      59686.15       39.080297      39.080297      39.080297      0.82568433     849.91965     -1411.1508     -534.16711    
     53000   53000          564.31956      614.79667      6327.2834      5785.6499      6760.4781     -974.82819      2674.4696      3813.1431     -6598.5955      7.0379837     -127.19561      544.36791     -1288.0556     -138.28268      60408.506      39.237323      39.237323      39.237323      0.8158109     -547.09226      2004.4984      386.98388    
     54000   54000          548.95235     -1168.314       4521.0726      5588.059       6576.3809     -988.32186      2542.1978      3899.8493     -6600.0516      3.6598338     -88.545292      543.35374     -1288.7857     -133.39589      62621.496      39.710725      39.710725      39.710725      0.78698085    -1097.6191     -472.8239      -1934.4988    
     55000   55000          572.01014      1210.5201      6878.268       5764.5011      6852.6103     -1088.1092      2518.0287      3862.8021     -6635.7239      5.6787192     -90.51309       542.08302     -1290.4647     -132.40959      63087.951      39.80908       39.80908       39.80908       0.78116213     1029.7811      1700.9196      900.85962    
     56000   56000          556.23466     -882.07596      4801.8588      5593.4538      6663.622      -1070.1682      2503.4677      3902.8631     -6631.1944      8.7663239     -121.11208      549.98459     -1282.9434     -135.75151      61534.857      39.47969       39.47969       39.47969       0.80087808    -1570.5964      210.7179      -1286.3494    
     57000   57000          560.90409      765.0244       6227.742       5541.8428      6719.5613     -1177.7185      2571.2522      3807.2484     -6693.025       6.9446967     -127.56481      541.23297     -1283.8069     -135.88037      61476.502      39.467206      39.467206      39.467206      0.8016383     -31.853399      2601.5337     -274.60714    
     58000   58000          552.57021     -911.72588      4855.6231      5688.2508      6619.7224     -931.47157      2691.4908      3789.0779     -6614.4134      6.1244593     -69.914781      548.60108     -1282.4377     -133.3998       62619.659      39.710336      39.710336      39.710336      0.78700393    -2079.3559     -1044.045       388.22328    
     59000   59000          555.8391       101.05566      5671.0731      5579.7152      6658.8833     -1079.1681      2516.2883      3920.739      -6674.4699      3.8415702     -104.36455      540.87794     -1282.0804     -134.75845      61988.322      39.576431      39.576431      39.576431      0.79501939     422.26414     -11.057203     -108.03995    
     60000   60000          566.68996     -26.25507       5653.9451      5677.4984      6788.8752     -1111.3768      2530.6578      3804.5592     -6606.7822      3.7251343     -115.15855      551.11413     -1279.4924     -135.80088      61512.487      39.474905      39.474905      39.474905      0.80116933    -1796.1873      1414.2329      303.1892     
     61000   61000          563.22275     -175.77706      5297.7757      5460.9284      6747.3385     -1286.4101      2522.214       3646.6675     -6625.6536      8.3214872     -94.138959      542.97208     -1286.7926     -131.25315      63643.804      39.925654      39.925654      39.925654      0.77433961     657.41409     -541.40901     -643.33627    
     62000   62000          568.89442      2005.9403      7591.2537      5734.3346      6815.2844     -1080.9499      2465.8315      3851.3406     -6579.5999      3.9176054     -90.098589      546.46788     -1278.8089     -131.6033       63474.474      39.890214      39.890214      39.890214      0.7764053      1375.9018      2618.2779      2023.6411    
     63000   63000          548.63761     -1480.1707      4098.6358      5446.1685      6572.6104     -1126.4419      2558.751       3862.5979     -6633.6236      1.713831      -169.47364      539.70516     -1286.1126     -133.81792      62424          39.668934      39.668934      39.668934      0.78947068    -1940.7135     -612.09388     -1887.7049    
     64000   64000          536.91783     -463.69358      4969.4737      5390.394       6432.2088     -1041.8148      2596.1301      3872.414      -6637.0129      7.0262059     -137.6321       542.41356     -1285.1537     -134.20633      62243.339      39.630629      39.630629      39.630629      0.79176212    -649.30005     -520.26552     -221.51517    
     65000   65000          563.40118      6.484768       5558.1697      5552.3671      6749.476      -1197.1089      2487.595       3929.8159     -6717.3372      5.9648727     -156.09164      541.59041     -1288.6462     -136.14846      61355.45       39.441284      39.441284      39.441284      0.80321989     355.91304      240.71072     -577.16946    
     66000   66000          555.36666     -152.3835       5558.3351      5698.6764      6653.2235     -954.54716      2599.3216      3995.7129     -6672.162       1.3282515     -134.55697      540.00525     -1284.1962     -132.28005      63149.734      39.822071      39.822071      39.822071      0.78039788     320.41469      240.70722     -1018.2724    
     67000   67000          566.91302     -47.438749      5668.6319      5711.5449      6791.5474     -1080.0025      2557.3938      3839.484      -6617.0483      4.8373025     -115.32993      538.18026     -1287.5196     -134.67487      62026.792      39.584616      39.584616      39.584616      0.7945263      81.891091     -440.92805      216.72071    
     68000   68000          557.9582      -565.37016      5061.8627      5564.7129      6684.2698     -1119.5569      2488.1544      3906.2217     -6632.9319      7.565649      -150.4626       545.98275     -1284.0869     -136.97334      60985.957      39.361951      39.361951      39.361951      0.80808633    -2105.3852     -156.5639       565.83857    
     69000   69000          567.25335     -1636.0218      4489.1379      5947.4815      6795.6246     -848.14312      2752.8149      3891.3536     -6664.5022      7.1596188     -93.117539      543.85814     -1285.7096     -136.6693       61121.626      39.391117      39.391117      39.391117      0.80629265     217.00461     -1527.1612     -3597.9086    
     70000   70000          559.51768     -645.29693      5054.9282      5634.2944      6702.9521     -1068.6578      2597.5342      3905.9352     -6682.0427      4.391782      -156.68708      545.66851     -1283.4576     -135.69012      61562.7        39.485644      39.485644      39.485644      0.80051586    -839.36598     -1205.6865      109.16169    
     71000   71000          545.67597     -1160.0806      4502.5113      5545.1697      6537.1302     -991.96053      2631.3443      3893.8515     -6666.2275      7.5895104     -109.33614      540.30122     -1289.4833     -135.54637      61627.986      39.499596      39.499596      39.499596      0.79966783    -2461.4878     -356.37513     -662.37906    
     72000   72000          567.18335      534.96704      6327.4081      5830.0385      6794.786      -964.7475       2563.1932      3905.0718     -6637.9115      9.4172463     -60.121648      543.91283     -1288.3094     -131.03567      63749.437      39.947731      39.947731      39.947731      0.77305652     629.09077      345.49751      630.31285    
     73000   73000          550.26997     -240.19135      5347.2287      5567.8537      6592.1658     -1024.3121      2687.6372      3824.1108     -6674.2615      7.2684288     -131.10401      547.41229     -1285.3753     -132.63083      62982.717      39.786933      39.786933      39.786933      0.78246732    -221.16807      1024.4705     -1523.8765    
     74000   74000          569.40025      46.516328      5831.6313      5790.1211      6821.3442     -1031.2231      2592.1032      3929.3882     -6657.1755      4.1984251     -161.65619      544.52586     -1282.6071     -136.51863      61189.084      39.405604      39.405604      39.405604      0.80540376     81.067145      2076.2007     -2017.7189    
     75000   75000          557.39348     -16.890786      5488.4197      5503.7022      6677.5045     -1173.8024      2548.0531      3879.0421     -6733.0285      6.2725675     -131.94794      544.65715     -1286.8509     -134.64749      62039.404      39.587299      39.587299      39.587299      0.79436479    -2529.6674      596.91285      1882.0822    
     76000   76000          561.31998     -686.18928      5135.0829      5767.5271      6724.5435     -957.01639      2698.8227      3970.4096     -6786.4459      4.9128051     -106.67077      546.37515     -1284.42       -132.17931      63197.862      39.832185      39.832185      39.832185      0.77980357    -1222.232      -1858.3654      1022.0296    
     77000   77000          558.81116      745.679        6240.9649      5558.0195      6694.4881     -1136.4687      2609.2903      3880.6949     -6736.1475      7.714884      -153.43357      540.7144      -1285.302      -133.01717      62799.788      39.748376      39.748376      39.748376      0.78474657     1229.3573     -423.97009      1431.6498    
     78000   78000          549.55596     -1036.4173      4527.7832      5482.5385      6583.612      -1101.0735      2572.7224      3916.1027     -6785.9574      8.7607705     -71.525515      546.64421     -1287.8206     -132.24654      63165.735      39.825434      39.825434      39.825434      0.78020019    -1509.9417     -965.92906     -633.3811     
     79000   79000          557.94986      609.41701      6191.846       5635.0022      6684.1699     -1049.1677      2573.1114      3921.1175     -6703.0415      6.4912948     -105.83948      545.17062     -1286.1775     -133.3285       62653.144      39.717413      39.717413      39.717413      0.78658332     278.07085      1188.0798      362.10037    
     80000   80000          548.79265     -266.57335      5287.5953      5535.5229      6574.4677     -1038.9448      2597.1445      3936.7893     -6753.2751      5.7324127     -77.430196      540.93165     -1288.8374     -130.98863      63772.33       39.952512      39.952512      39.952512      0.77277901     265.02498     -167.07563     -897.6694     
     81000   81000          566.85684     -429.73143      5435.428       5828.1321      6790.8744     -962.74231      2655.3147      3887.4842     -6672.6128      4.6993132     -92.883963      540.53488     -1285.2787     -133.31328      62660.299      39.718925      39.718925      39.718925      0.78649351    -1457.5791     -66.528638      234.9134     
     82000   82000          559.82599      34.78187       5508.8963      5477.0823      6706.6457     -1229.5634      2495.3871      3754.5142     -6637.8983      1.7478651     -102.40984      542.23805     -1283.1425     -133.19157      62717.556      39.731019      39.731019      39.731019      0.78577549     290.38678      28.48462      -214.52579    
     83000   83000          564.71166      119.52359      5739.747       5628.4345      6765.1754     -1136.7409      2568.3265      3727.258      -6605.0984      3.2905214     -84.341394      538.83889     -1285.0149     -130.81323      63857.837      39.970361      39.970361      39.970361      0.77174425    -264.17296      1482.3694     -859.62566    
     84000   84000          560.35975      1019.0753      6498.7966      5564.0248      6713.0401     -1149.0153      2527.9602      3740.7811     -6625.6713      4.1289728     -57.757683      546.30619     -1284.7627     -132.81357      62896.056      39.768677      39.768677      39.768677      0.78354544     2997.3812     -434.59496      494.4397     
     85000   85000          561.89896     -1380.2684      4430.6265      5658.7807      6731.4797     -1072.699       2568.7583      3917.3179     -6691.4289      5.5712248     -130.51551      543.19717     -1285.5993     -136.91544      61011.747      39.367499      39.367499      39.367499      0.80774474    -288.59872      903.52494     -4755.7314    
     86000   86000          565.10075     -462.90758      5261.8217      5670.5712      6769.8367     -1099.2655      2552.5611      3850.7425     -6623.7959      5.7992759     -145.36554      544.09785     -1283.3048     -137.96814      60546.224      39.267117      39.267117      39.267117      0.81395527    -1195.8454     -44.471476     -148.40587    
     87000   87000          559.68332     -570.64839      5045.3286      5554.4144      6704.9366     -1150.5222      2537.6669      3867.9331     -6667.7957      6.9177695     -150.89616      541.71856     -1286.0665     -136.55868      61171.137      39.401751      39.401751      39.401751      0.80564006     207.41016     -1758.8891     -160.46623    
     88000   88000          556.57254      500.18489      6074.9571      5631.9449      6667.6697     -1035.7248      2555.7851      3915.1106     -6676.3498      6.4018967     -87.938746      538.33225     -1287.0661     -137.54876      60730.825      39.306985      39.306985      39.306985      0.81148112     37.374077      570.4183       892.76229    
     89000   89000          557.88203      298.59757      5890.1015      5626.3919      6683.3574     -1056.9655      2560.0772      3980.1954     -6713.8688      4.4562847     -150.5912       544.67321     -1281.9076     -137.94376      60556.926      39.269431      39.269431      39.269431      0.81381142     1509.4438     -1800.2325      1186.5814    
     90000   90000          566.255       -1362.544       4656.734       5865.5059      6783.6644     -918.15858      2649.5079      3969.135      -6640.588       6.4827326     -161.89384      543.18561     -1283.988      -137.32447      60830.017      39.328373      39.328373      39.328373      0.81015789    -1723.6602     -1846.0079     -517.96388    
     91000   91000          562.30901     -952.87585      4848.7748      5679.6225      6736.392      -1056.7695      2639.7843      3790.8141     -6562.0569      4.9925242     -176.17139      537.35924     -1291.4914     -139.71939      59787.336      39.102369      39.102369      39.102369      0.8242869     -2718.9637      649.73774     -789.4016     
     92000   92000          549.45925     -517.67371      4966.5593      5435.9437      6582.4535     -1146.5098      2493.1078      3844.7489     -6612.1525      3.5303284     -134.56588      543.13389     -1284.3124     -134.35978      62172.251      39.615535      39.615535      39.615535      0.79266743     20.438778      52.908619     -1626.3685    
     93000   93000          563.7326      -590.16055      5117.9791      5653.1637      6753.4465     -1100.2827      2485.6253      3892.492      -6606.7443      6.20432       -137.13371      545.67102     -1286.3973     -134.34091      62180.985      39.61739       39.61739       39.61739       0.79255609    -736.34316     -1898.8176      864.67915    
     94000   94000          560.21293      1727.3726      7291.2624      5712.6444      6711.2812     -998.63681      2644.597       3815.0023     -6585.707       4.7282308     -139.5992       544.45821     -1282.1164     -133.30631      62663.573      39.719617      39.719617      39.719617      0.78645241     1898.3278     -540.30113      3824.091     
     95000   95000          558.2263       451.68914      6104.4653      5694.2007      6687.4816     -993.28093      2666.4186      3820.7608     -6647.6256      8.4907412     -106.9713       548.57548     -1282.9297     -134.12734      62279.992      39.638406      39.638406      39.638406      0.79129615     2195.8459     -942.18346      101.40494    
     96000   96000          562.03887     -1983.6822      3801.1711      5575.7095      6733.1557     -1157.4462      2658.2862      3692.5343     -6621.4749      7.0162309     -155.22994      541.61667     -1280.1948     -136.18475      61339.102      39.437781      39.437781      39.437781      0.80343397    -2624.6663     -430.78238     -2895.598     
     97000   97000          571.27801     -946.68424      4783.6315      5633.786       6843.8395     -1210.0535      2575.9651      3817.9784     -6681.9433      7.1296132     -196.19858      548.47077     -1281.4556     -135.65915      61576.755      39.488648      39.488648      39.488648      0.80033315    -2411.1945     -228.63711     -200.2211     
     98000   98000          563.65787     -48.097614      5787.8877      5831.818       6752.5512     -920.73316      2571.8095      3986.3217     -6646.9189      8.5894733     -107.6447       549.13283     -1282.0231     -133.38327      62627.42       39.711977      39.711977      39.711977      0.7869064     -499.47218     -391.42296      746.6023     
     99000   99000          554.47485      227.14751      5818.3767      5612.0883      6642.5397     -1030.4514      2530.4209      3916.7023     -6638.0661      6.9362295     -111.65636      546.66348     -1281.4519     -134.14517      62271.717      39.63665       39.63665       39.63665       0.79140131    -93.371494      693.91767      80.896337    
    100000   100000         559.49534      164.60667      5835.805       5690.588       6702.6846     -1012.0965      2600.2976      3868.1178     -6576.1086      7.316006      -168.34299      543.35092     -1286.7273     -138.09304      60491.463      39.255276      39.255276      39.255276      0.81469212    -552.20157      699.36564      346.65593    
    101000   101000         554.33854      839.61954      6280.1875      5532.105       6640.9067     -1108.8017      2622.3569      3813.6342     -6662.0374      7.8828843     -153.15822      546.55729     -1284.0373     -136.73346      61092.944      39.384955      39.384955      39.384955      0.80667119     1410.7563     -860.17862      1968.2809    
    102000   102000         583.48106      718.56157      6626.8878      5985.3312      6990.0305     -1004.6993      2564.4329      3961.3991     -6643.5952      11.787585     -151.95014      539.31763     -1286.0911     -136.44914      61220.247      39.412292      39.412292      39.412292      0.80499379     2437.877      -1590.6475      1308.4552    
    103000   103000         553.61744      656.21197      6192.2299      5610.178       6632.268      -1022.09        2626.4915      3806.4737     -6586.7013      6.9061274     -131.9257       544.18565     -1287.5199     -137.34858      60819.339      39.326072      39.326072      39.326072      0.81030012     1207.853       1232.5327     -471.74973    
    104000   104000         564.21672      173.65367      5715.0367      5560.4991      6759.2461     -1198.747       2479.001       3902.7535     -6672.7045      3.240302      -168.32315      544.23588     -1286.95       -136.89623      61020.309      39.36934       39.36934       39.36934       0.80763141    -1110.3165      2590.8985     -959.62094    
    105000   105000         559.06406     -1380.8871      4513.0903      5749.9238      6697.5179     -947.59411      2650.0919      3909.2667     -6618.6358      4.5500556     -144.39491      541.25805     -1289.7301     -136.01559      61415.385      39.454123      39.454123      39.454123      0.80243603    -1302.5374     -2006.1568     -833.96702    
    106000   106000         555.95669      586.15904      5890.8329      5379.9558      6660.2919     -1280.3361      2429.0081      3805.8512     -6636.249       6.0727548     -140.32164      541.59817     -1286.2958     -139.77863      59761.995      39.096843      39.096843      39.096843      0.82463643     39.586387      2398.8755     -679.98477    
    107000   107000         554.33854     -86.556472      5545.6672      5623.2252      6640.9068     -1017.6816      2588.6263      3844.3005     -6636.1346      4.2391005     -76.46502       542.6632      -1284.9111     -135.9611       61440.001      39.459393      39.459393      39.459393      0.80211454     1089.4098     -1958.3144      609.23523    
    108000   108000         559.71278      127.77702      5827.8171      5713.6525      6705.2895     -991.63703      2619.5411      3872.1837     -6631.3994      1.2610191     -114.14412      541.95338     -1281.0327     -136.35251      61263.63       39.421599      39.421599      39.421599      0.80442374     341.16675     -926.2025       968.36683    
    109000   109000         553.24992     -397.06277      5229.7033      5584.8026      6627.8652     -1043.0626      2681.4389      3757.8171     -6591.1642      5.389185      -148.80163      540.87368     -1288.6157     -136.22321      61321.784      39.434069      39.434069      39.434069      0.80366087    -1028.9021     -546.02111      383.73487    
    110000   110000         561.95268     -641.61988      5231.4929      5819.5132      6732.1232     -912.60998      2636.7766      3915.8859     -6648.6016      5.4595949     -78.244482      544.32275     -1288.2088     -132.9313       62840.353      39.756933      39.756933      39.756933      0.78424       -343.43713     -1433.2381     -148.18436    
    111000   111000         552.88807     -460.64451      5115.068       5528.7271      6623.5304     -1094.8033      2627.2751      3857.102      -6664.7382      7.2158876     -174.78612      543.42582     -1290.2977     -135.66417      61574.475      39.488161      39.488161      39.488161      0.80036278    -1129.647      -1244.0354      991.74891    
    112000   112000         565.51347     -353.02603      5545.6563      5853.6092      6774.7811     -921.17187      2675.2855      3983.6222     -6652.631       5.1901718     -184.2137       541.99452     -1290.4196     -139.65747      59813.842      39.108146      39.108146      39.108146      0.82392163    -886.66918     -264.1075       91.698593    
    113000   113000         569.07168      517.69263      6110.1799      5658.2137      6817.4079     -1159.1943      2523.3894      3887.5895     -6645.1102      4.5701235     -185.88548      541.2438      -1284.9913     -139.5429       59862.952      39.118847      39.118847      39.118847      0.8232457      829.4395       860.73687     -137.09848    
    114000   114000         546.55558     -256.90677      5104.4933      5329.6255      6547.6678     -1218.0424      2571.3119      3765.1895     -6641.3597      5.9139545     -184.2056       547.58775     -1282.4802     -139.02075      60087.794      39.167762      39.167762      39.167762      0.82016521     230.72358     -174.19662     -827.24727    
    115000   115000         550.52144     -1103.9188      4561.4115      5555.359       6595.1784     -1039.8194      2586.5046      3873.5297     -6640.032       7.9396761     -135.18321      550.92881     -1283.5069     -135.3055       61737.699      39.523022      39.523022      39.523022      0.79824676    -2113.5562     -1821.3037      623.10363    
    116000   116000         549.31052     -1080.3536      4587.0085      5573.3764      6580.6717     -1007.2952      2646.1917      3888.9228     -6674.9766      5.2277673     -127.48633      539.97436     -1285.1489     -133.43468      62603.29       39.706876      39.706876      39.706876      0.78720971    -1298.4655      318.65698     -2261.2522    
    117000   117000         563.20795      181.96205      5800.4404      5631.9714      6747.1612     -1115.1898      2523.0865      3914.1365     -6693.1354      7.0352492     -120.10394      539.48329     -1285.692      -131.58388      63483.84       39.892176      39.892176      39.892176      0.77629076     419.03372      327.68937     -200.83695    
    118000   118000         564.01837     -1229.6171      4693.979       5845.6633      6756.8699     -911.20658      2699.1357      3951.915      -6753.7312      11.659954     -83.4381        545.57227     -1282.3203     -130.07032      64222.57       40.046315      40.046315      40.046315      0.76736136    -2008.1949     -954.56333     -726.09308    
    119000   119000         564.59343     -860.27098      4911.1838      5677.8751      6763.759      -1085.8839      2600.5544      3825.3208     -6649.2248      6.9128498     -127.28629      543.68346     -1285.8444     -136.69621      61109.592      39.388532      39.388532      39.388532      0.80645143     360.63967     -919.0865      -2022.3661    
    120000   120000         562.64576      516.44509      6225.3753      5758.0815      6740.4262     -982.34465      2570.3973      4040.9803     -6680.3595      4.1149496     -188.60993      551.30195     -1280.1697     -134.64057      62042.594      39.587977      39.587977      39.587977      0.79432395     1239.1988      622.68204     -312.54562    
    121000   121000         561.49139     -283.42484      5503.3273      5760.1794      6726.597      -966.41761      2643.2562      3924.9513     -6718.2203      3.7278745     -80.699968      542.64275     -1282.0754     -134.43013      62139.717      39.608624      39.608624      39.608624      0.79308244     229.60228      632.76102     -1712.6378    
    122000   122000         562.73333     -726.5762       5266.097       5933.91        6741.4752     -807.56529      2691.4285      3980.2487     -6612.1476      6.8126179     -134.08518      545.91459     -1285.737      -132.54646      63022.809      39.795374      39.795374      39.795374      0.78196956    -1267.0585     -1339.0017      426.3316     
    123000   123000         561.70141      2011.2943      7610.4565      5719.6613      6729.113      -1009.4516      2525.0369      3882.4403     -6652.2147      5.5673003     -28.737476      543.10344     -1284.6473     -129.59042      64460.396      40.095687      40.095687      40.095687      0.76453018     1725.1488      3885.6279      423.10627    
    124000   124000         566.99505      155.04657      5756.6541      5611.7618      6792.5301     -1180.7683      2584.1941      3800.8982     -6704.1335      5.0150493     -132.0306       550.1208      -1284.8323     -130.36434      64077.721      40.016185      40.016185      40.016185      0.76909599     808.96431     -582.0219       238.1973     
    125000   125000         559.80018      55.218993      5613.649       5562.8889      6706.3366     -1143.4477      2549.1727      3853.0394     -6665.2222      1.822463      -141.81684      544.18232     -1284.6256     -132.52806      63031.556      39.797215      39.797215      39.797215      0.78186104     1268.7164     -1228.8355      125.77617    
    126000   126000         559.58134      768.8583       6245.1967      5547.1337      6703.7148     -1156.5812      2605.1327      3719.1213     -6673.9613      5.2123765     -71.228074      541.6039      -1282.462      -134.18175      62254.742      39.633049      39.633049      39.633049      0.79161709     2090.4142      942.59787     -726.43719    
    127000   127000         559.62272      975.03779      6479.4828      5605.1391      6704.2106     -1099.0715      2580.5454      3868.8195     -6659.351       4.7749395     -146.35077      540.72042     -1288.2301     -135.85669      61487.219      39.469499      39.469499      39.469499      0.80149856     448.37476      1471.7392      1004.9994    
    128000   128000         552.27226     -527.81131      5148.7218      5627.8208      6616.153      -988.33215      2627.6786      3880.2807     -6618.7188      4.8229294     -126.04736      532.47516     -1288.8234     -134.21318      62240.163      39.629955      39.629955      39.629955      0.79180252    -2151.3707      1438.4326     -870.49584    
    129000   129000         549.57183     -315.0448       5265.0205      5562.2177      6583.8021     -1021.5844      2621.0088      3831.8897     -6658.1208      7.9502045     -76.769843      538.83492     -1286.3774     -129.14257      64683.937      40.141982      40.141982      40.141982      0.76188804    -857.20459      1113.2758     -1201.2056    
    130000   130000         560.95595      310.47088      5969.7603      5677.0713      6720.1825     -1043.1113      2522.8993      3882.3499     -6672.8019      6.6039139     -44.68938       544.38651     -1281.8596     -129.22789      64641.233      40.133146      40.133146      40.133146      0.76239137    -1597.9989      1373.4341      1155.9775    
    131000   131000         558.77457     -1558.0921      4236.6681      5682.5615      6694.0498     -1011.4883      2667.2473      3810.6418     -6673.2999      6.5929717     -93.06214       551.89066     -1281.4989     -131.28001      63630.783      39.922931      39.922931      39.922931      0.77449807    -1909.1201     -421.92513     -2343.2312    
    132000   132000         554.70272      235.75998      5686.7302      5476.0174      6645.2696     -1169.2521      2648.7957      3796.5438     -6738.433       5.643574      -146.57796      548.31822     -1283.5426     -136.30787      61283.693      39.425903      39.425903      39.425903      0.80416038    -2534.4569      1745.3646      1496.3723    
    133000   133000         560.1166      -588.51426      5339.7557      5870.6979      6710.1272     -839.42929      2650.8107      4050.6109     -6664.9574      4.9619989     -133.38869      538.79928     -1286.266      -135.03661      61860.63       39.549237      39.549237      39.549237      0.79666047    -499.68348     -2513.3506      1247.4913    
    134000   134000         562.8289       369.05352      6091.4655      5752.9943      6742.6202     -989.62585      2586.9279      3893.4146     -6674.7993      3.2580962     -55.868461      541.29003     -1283.8487     -132.83406      62886.354      39.766632      39.766632      39.766632      0.78366632     754.68404      1383.6305     -1031.154     
    135000   135000         555.37901     -417.6928       5242.7307      5621.8308      6653.3714     -1031.5406      2571.5754      3907.5591     -6686.3239      5.3357144     -81.831153      536.4276      -1284.2834     -134.22851      62233.053      39.628445      39.628445      39.628445      0.79189299    -158.72027     -1037.5072     -56.850981    
    136000   136000         559.63752      389.51074      6062.3086      5710.4919      6704.3879     -993.89605      2613.3373      4006.2097     -6771.0705      6.1264131     -106.68725      543.27672     -1285.0884     -134.8791       61932.874      39.564627      39.564627      39.564627      0.79573117    -201.81741     -1060.1793      2430.5289    
    137000   137000         556.28515     -117.31881      5562.5042      5671.8269      6664.2269     -992.39993      2622.3464      3813.3421     -6625.9034      5.4718247     -70.646728      548.54931     -1285.5595     -130.73715      63894.999      39.978113      39.978113      39.978113      0.77129539     419.59001     -961.74161      190.19517    
    138000   138000         560.0617       67.935041      5762.0645      5697.869       6709.4695     -1011.6005      2569.4502      3915.8901     -6655.7415      9.8772033     -111.38307      545.13907     -1284.8326     -128.92302      64794.09       40.164756      40.164756      40.164756      0.7605928      763.22155     -53.517332     -505.8991     
    139000   139000         551.06855      444.30142      5866.7588      5460.8198      6601.7326     -1140.9128      2495.7812      3840.0236     -6611.1745      6.6048358     -128.96893      542.4297      -1285.6088     -133.33945      62648          39.716326      39.716326      39.716326      0.7866479     -480.18074      2530.1804     -717.09543    
    140000   140000         565.48835      1479.9029      7099.8759      5748.0987      6774.4801     -1026.3815      2575.9813      3895.9742     -6701.0255      4.8402724     -60.80786       545.79256     -1287.1364     -133.37359      62631.964      39.712937      39.712937      39.712937      0.78684932     2113.2968      680.33932      1646.0725    
    141000   141000         566.05695     -668.75502      5233.6592      5842.8416      6781.2918     -938.45017      2589.4241      4003.7644     -6691.4615      7.1681366     -109.57795      545.24667     -1283.0141     -133.74004      62460.352      39.676633      39.676633      39.676633      0.78901122    -683.22268     -1229.8693     -93.173039    
    142000   142000         568.91177      484.98747      6090.7632      5647.4393      6815.4922     -1168.0529      2467.8414      3851.2954     -6650.3056      6.3262997     -100.19153      540.70944     -1283.7283     -133.27576      62677.941      39.722652      39.722652      39.722652      0.78627213    -645.10459      680.21715      1419.8498    
    143000   143000         555.32324     -755.7204       4914.7773      5625.7362      6652.7033     -1026.9671      2573.5118      3920.1846     -6687.2363      8.0597033     -104.6354       546.76988     -1283.6213     -129.49661      64507.092      40.105366      40.105366      40.105366      0.76397674     534.89946     -748.7611      -2053.2996    
    144000   144000         567.92681      195.92662      5922.693       5744.2187      6803.6925     -1059.4738      2562.7691      3826.9713     -6600.5474      6.4150189     -111.69187      542.85746     -1286.2473     -133.73946      62460.623      39.67669       39.67669       39.67669       0.78900779    -493.84138      241.36176      840.25946    
    145000   145000         553.55924     -218.95149      5424.0276      5622.762       6631.5708     -1008.8088      2658.0185      3888.2374     -6675.9005      6.0847092     -151.8684       549.36811     -1282.7486     -134.21976      62237.109      39.629306      39.629306      39.629306      0.79184138     1384.8742     -1410.0813     -631.64733    
    146000   146000         548.53649     -1255.4172      4542.5514      5713.2111      6571.3989     -858.18774      2648.0587      3900.6683     -6576.419       5.9495163     -98.550024      547.22905     -1285.1244     -130.64691      63939.13       39.987315      39.987315      39.987315      0.77076304    -1712.9067     -1456.5449     -596.79981    
    147000   147000         572.84129      551.73198      6224.1757      5722.1941      6862.5674     -1140.3733      2505.8309      3743.238      -6557.8406      4.8860816     -97.434578      546.06246     -1285.1156     -133.90046      62385.519      39.660781      39.660781      39.660781      0.78995766    -870.83236      1445.6054      1080.4229    
    148000   148000         571.23481     -1158.3761      4611.6258      5668.4644      6843.3219     -1174.8576      2562.8161      3868.4032     -6708.9928      9.3618904     -160.81992      541.27279     -1286.8989     -133.53119      62558.044      39.697308      39.697308      39.697308      0.78777907     290.70798     -1205.7152     -2560.1211    
    149000   149000         539.01265     -231.16355      5318.2175      5535.7694      6457.3045     -921.53516      2640.7311      3887.602      -6645.092       5.3963386     -81.216426      551.38991     -1280.346      -129.44888      64530.88       40.110296      40.110296      40.110296      0.76369512     1434.7658     -491.30665     -1636.9498    
    150000   150000         555.63112      352.00844      5897.4582      5570.5618      6656.3917     -1085.8299      2530.186       3776.1409     -6603.1279      8.6070433     -64.991422      545.49071     -1278.1352     -131.18516      63676.792      39.932551      39.932551      39.932551      0.77393845    -705.91695      17.504989      1744.4373    
    151000   151000         557.79049     -443.83608      4982.5697      5378.2753      6682.2607     -1303.9854      2557.0213      3752.3965     -6718.7236      9.9316996     -171.60253      548.64212     -1281.6508     -136.64452      61132.711      39.393498      39.393498      39.393498      0.80614646    -1273.8478      234.63559     -292.29603    
    152000   152000         568.57592      1251.2049      6721.9553      5614.9999      6811.4688     -1196.4689      2455.7566      3869.0424     -6626.8462      4.8842538     -168.69637      547.0087      -1277.6182     -137.70195      60663.267      39.292404      39.292404      39.292404      0.81238484     1788.7103      759.10813      1205.7963    
    153000   153000         567.51453      676.1996       6187.507       5591.2623      6798.7535     -1207.4912      2582.2424      3686.5571     -6630.4189      10.028736     -124.15503      550.86809     -1282.6136     -138.16313      60460.777      39.248637      39.248637      39.248637      0.8151056      2515.2816      553.09607     -1039.7789    
    154000   154000         557.12453     -480.82307      5044.5413      5475.5323      6674.2826     -1198.7503      2496.9858      3845.042      -6650.8036      8.1637272     -149.72523      541.97186     -1290.3848     -135.91235      61462.039      39.464111      39.464111      39.464111      0.80182693     298.96443     -2057.9595      316.52588    
    155000   155000         558.69743     -2092.9553      3667.1965      5504.835       6693.1257     -1188.2907      2559.507       3843.7532     -6667.8603      6.5469099     -182.4783       540.51951     -1288.2787     -138.75276      60203.848      39.192962      39.192962      39.192962      0.81858419    -3411.7371     -2329.4758     -537.65296    
    156000   156000         555.28297     -621.88577      4887.945       5425.1825      6652.2209     -1227.0384      2494.9519      3891.0645     -6672.6605      8.1163374     -212.48012      549.50799     -1285.5385     -141.02173      59235.199      38.981626      38.981626      38.981626      0.83197017    -1111.6913      433.22814     -1187.1942    
    157000   157000         555.89573     -1220.5559      4531.8414      5620.099       6659.5617     -1039.4627      2607.4936      3900.7945     -6692.5876      6.498303      -134.39151      551.99404     -1279.264      -136.63681      61136.159      39.394239      39.394239      39.394239      0.80610099    -2520.4682     -705.10037     -436.09894    
    158000   158000         568.09649     -107.49113      5489.2356      5584.8472      6805.7253     -1220.8781      2566.3489      3815.7671     -6687.8455      0.65309415    -177.25386      544.73854     -1283.2864     -136.96316      60990.489      39.362926      39.362926      39.362926      0.80802628    -569.05916     -172.00156      418.58733    
    159000   159000         557.0119       159.76977      5847.5123      5704.667       6672.9333     -968.26621      2573.2427      4023.0031     -6691.6534      8.0854735     -140.78506      544.43264     -1284.5917     -136.26073      61304.897      39.430449      39.430449      39.430449      0.80388224    -916.62536      980.33545      415.59923    
    160000   160000         561.83813     -151.16462      5505.0748      5641.3131      6730.7509     -1089.4378      2604.2155      3801.6124     -6641.3973      7.0553444     -121.0049       542.51269     -1282.4314     -135.1738       61797.846      39.535853      39.535853      39.535853      0.79746984     991.19585     -2078.5515      633.86177    
    161000   161000         544.43421      1109.7749      6422.0431      5419.7216      6522.2541     -1102.5325      2658.9856      3743.2222     -6651.4533      1.4103534     -120.45493      546.43361     -1280.6761     -134.88686      61929.308      39.563868      39.563868      39.563868      0.79577698    -459.27763      2804.8891      983.71323    
    162000   162000         564.28006      1109.6169      6605.4749      5634.3783      6760.0049     -1125.6266      2545.5553      3907.3746     -6684.7469      5.8848757     -155.31836      541.21012     -1285.5862     -139.20421      60008.603      39.150547      39.150547      39.150547      0.82124754     1313.0601      68.865448      1946.9251    
[...]
    452000   452000         550.00053     -355.88794      5147.5119      5467.4015      6588.9379     -1121.5364      2625.0516      3837.6715     -6731.9523      7.9162843     -113.22811      540.70015     -1287.6954     -135.53605      61632.678      39.500599      39.500599      39.500599      0.79960696    -186.74472      1059.0882     -1940.0073    
    453000   453000         557.97186     -1581.1472      4076.0393      5558.5686      6684.4335     -1125.8649      2561.8173      3734.0183     -6567.5793      4.1314347     -122.59633      547.40201     -1283.0583     -129.9304       64291.729      40.060685      40.060685      40.060685      0.7665359      803.20928     -1766.6684     -3779.9824    
    454000   454000         569.19752      132.12368      5838.3952      5716.2754      6818.9154     -1102.64        2531.7289      3844.9879     -6644.9512      4.5322722     -107.52272      546.62773     -1278.0429     -131.80639      63376.671      39.869716      39.869716      39.869716      0.77760345    -734.84848      1796.398      -665.17847    
    455000   455000         559.60265      468.11127      6013.9545      5581.8807      6703.9701     -1122.0894      2600.4631      3834.885      -6702.1763      6.4296756     -123.73485      542.64933     -1280.6053     -131.98755      63289.683      39.851466      39.851466      39.851466      0.77867222     997.3931       1002.4725     -595.53177    
    456000   456000         563.16061      615.25142      6353.087       5777.2196      6746.594      -969.37444      2591.9789      3861.3649     -6624.4355      6.6155645     -73.70867       550.73371     -1281.9233     -130.15831      64179.152      40.037288      40.037288      40.037288      0.76788049    -587.50024      1082.0734      1351.181     
    457000   457000         546.86073      656.85196      6007.9184      5405.2221      6551.3235     -1146.1013      2598.0541      3836.4722     -6741.076       5.9215026     -98.916784      538.00605     -1284.5623     -132.7733       62915.134      39.772697      39.772697      39.772697      0.78330785     2012.4377     -19.949419     -21.932449    
    458000   458000         553.3591       386.45449      6003.2009      5645.4331      6629.1732     -983.74016      2629.5662      3889.9809     -6658.4678      4.3884598     -102.78617      540.01748     -1286.4393     -131.59483      63478.559      39.89107       39.89107       39.89107       0.77635534     272.68977      1223.7721     -337.09843    
    459000   459000         557.52525      1609.3769      6879.8167      5430.0068      6679.0832     -1249.0764      2523.0486      3749.5763     -6635.5785      2.3754689     -144.75978      538.9639      -1282.7024     -135.2348       61769.975      39.529908      39.529908      39.529908      0.79782966     2285.2849      1499.1924      1043.6534    
    460000   460000         556.01084     -1021.2323      4613.1256      5519.9948      6660.9407     -1140.946       2551.7179      3897.7396     -6663.3461      3.9072471     -187.06759      543.35363     -1287.2507     -137.18976      60889.75       39.341242      39.341242      39.341242      0.80936312    -397.3387      -2117.128      -549.23016    
    461000   461000         569.11406     -0.080168526    5928.7692      5928.8419      6817.9157     -889.07379      2694.0866      3922.5616     -6669.6237      5.0023387     -94.241233      541.153       -1288.0124     -134.34664      62178.331      39.616827      39.616827      39.616827      0.79258991    -453.74955      161.71349      291.79556    
    462000   462000         561.29762     -784.19986      4871.0516      5578.3707      6724.2756     -1145.905       2595.6636      3829.4778     -6679.6649      7.5336069     -142.24479      532.27873     -1288.949      -135.06822      61846.153      39.546152      39.546152      39.546152      0.79684695    -207.36308     -640.06422     -1505.1723    
    463000   463000         572.34245     -1716.0462      4204.6993      5738.2786      6856.5913     -1118.3127      2610.78        3813.4184     -6670.3859      6.5149321     -135.28996      543.30583     -1286.656      -136.32154      61277.548      39.424585      39.424585      39.424585      0.80424103    -392.19657     -1864.2883     -2891.6537    
    464000   464000         557.14437      153.40774      5674.0757      5540.0384      6674.5202     -1134.4818      2587.7271      3867.9348     -6692.8489      10.619453     -160.6825       538.68166     -1285.9135     -139.43231      59910.432      39.129186      39.129186      39.129186      0.82259327     623.48161      445.10085     -608.35925    
    465000   465000         564.90079      531.86324      6143.0756      5680.3185      6767.4411     -1087.1227      2499.987       4034.3633     -6659.5675      7.8599534     -221.15956      538.58884     -1287.1948     -140.01952      59659.183      39.07441       39.07441       39.07441       0.82605754    -93.166811      842.17351      846.58303    
    466000   466000         562.54078     -284.4465       5223.319       5481.8687      6739.1685     -1257.2998      2512.7187      3801.7905     -6718.6085      8.2387011     -120.12446      544.25246     -1285.5672     -134.02882      62325.774      39.648116      39.648116      39.648116      0.7907149     -1359.8292     -676.86055      1183.3503    
    467000   467000         546.74837      628.06485      6041.6383      5482.6487      6549.9774     -1067.3287      2555.564       3952.46       -6672.2148      4.7259411     -164.12031      539.87131     -1283.6149     -136.88079      61027.189      39.37082       39.37082       39.37082       0.80754036     1035.3347      3.4646101      845.39522    
    468000   468000         567.05663     -519.08651      5243.2818      5710.9816      6793.2679     -1082.2862      2624.2297      3805.5894     -6641.2896      3.909177      -126.03165      537.50316     -1286.1964     -135.21169      61780.529      39.53216       39.53216       39.53216       0.79769336     1189.5392     -655.5736      -2091.2252    
    469000   469000         555.17702     -428.98831      5308.0704      5698.227       6650.9516     -952.72466      2707.8845      3849.3288     -6636.5486      6.3845668     -130.49278      539.07019     -1288.3514     -133.95174      62361.64       39.65572       39.65572       39.65572       0.79026013    -254.96121      139.17087     -1171.1746    
    470000   470000         561.74071     -401.13678      5250.6276      5621.116       6729.5838     -1108.4679      2599.0979      3781.8037     -6711.4777      8.8585163     -45.852843      545.71872     -1286.6162     -131.90452      63329.52       39.859826      39.859826      39.859826      0.77818241     559.44134      8.9479255     -1771.7996    
    471000   471000         548.84453      1404.4821      6695.0289      5433.3043      6575.0891     -1141.7849      2501.8527      3939.7008     -6721.6967      6.1607034     -117.36163      535.73772     -1286.1785     -135.61052      61598.832      39.493367      39.493367      39.493367      0.80004631     2369.2563      659.8001       1184.39      
    472000   472000         554.30859     -1415.9075      4461.1067      5716.0836      6640.5479     -924.46434      2603.4313      3993.4816     -6574.5569      7.8774188     -217.37543      545.51444     -1282.8368     -137.44878      60775.001      39.316513      39.316513      39.316513      0.81089128    -1499.1919     -591.65565     -2156.8748    
    473000   473000         566.69632      107.72739      5634.7972      5541.0454      6788.9514     -1247.9059      2486.1236      3837.0405     -6690.9865      5.0580761     -138.47464      538.47574     -1285.1428     -139.98731      59672.91       39.077407      39.077407      39.077407      0.82586751     1156.3605     -132.07453     -701.1038     
    474000   474000         558.51624      2670.4885      7945.4895      5563.1429      6690.9551     -1127.8122      2494.6274      3846.8568     -6666.7213      8.0908801     -71.296691      544.75209     -1284.1214     -136.56126      61169.981      39.401502      39.401502      39.401502      0.80565528     2722.0123      3145.0541      2144.3992    
    475000   475000         548.86601     -462.87904      5060.2726      5472.1216      6575.3466     -1103.225       2571.1891      3857.1587     -6685.1336      9.333747      -115.19111      544.22064     -1284.8025     -136.92139      61009.096      39.366928      39.366928      39.366928      0.80777985     1341.5178     -1341.2903     -1388.8646    
    476000   476000         553.33075      339.45962      5992.2727      5689.5431      6628.8336     -939.29043      2596.7947      3971.4914     -6649.4293      7.628325      -117.56251      538.13472     -1286.3479     -136.60765      61149.212      39.397043      39.397043      39.397043      0.80592891     1295.6845      350.35386     -627.6595     
    477000   477000         563.83089      125.75807      5709.1625      5597.3025      6754.6239     -1157.3214      2574.4509      3853.9417     -6664.0849      6.7279953     -175.38828      539.28697     -1292.2558     -136.96294      60990.584      39.362946      39.362946      39.362946      0.80802503     197.83995     -516.33872      695.77298    
    478000   478000         547.8828      -232.30085      5426.9783      5636.9711      6563.5678     -926.59675      2626.0149      3911.407      -6640.075       6.874008      -89.418552      544.25526     -1285.6543     -134.76845      61983.719      39.575451      39.575451      39.575451      0.79507843    -208.45563      378.14938     -866.59631    
    479000   479000         559.41982     -801.36539      4992.0542      5736.563       6701.7799     -965.21685      2542.8336      3929.0307     -6623.9499      2.5180904     -70.597479      539.42893     -1284.4808     -131.13014      63703.509      39.938136      39.938136      39.938136      0.77361386    -49.391139     -3329.077       974.37196    
    480000   480000         558.11355      254.256        5870.7061      5635.9411      6686.1309     -1050.1898      2633.2004      3815.9694     -6631.8981      3.8855311     -131.7256       543.84012     -1283.4616     -131.94097      63312.023      39.856155      39.856155      39.856155      0.77839747     66.716764      957.36832     -261.31709    
    481000   481000         551.15024      539.6089       5926.0274      5445.3156      6602.7113     -1157.3957      2578.2717      3722.8668     -6593.4238      2.8527263     -111.50705      536.40213     -1292.8583     -136.75275      61084.329      39.383103      39.383103      39.383103      0.80678496     871.27961      1154.0057     -406.45866    
    482000   482000         560.35228      772.61257      6221.7049      5548.1101      6712.9506     -1164.8405      2459.004       3898.2463     -6645.498       4.3472632     -136.96553      543.18581     -1287.1603     -139.73488      59780.709      39.100924      39.100924      39.100924      0.82437829     416.81848      212.91756      1688.1017    
    483000   483000         561.76976      260.70448      5963.2911      5737.5969      6729.9319     -992.335        2624.5808      3964.714      -6655.0082      3.2734536     -190.09405      544.50852     -1284.3095     -140.72452      59360.301      39.009049      39.009049      39.009049      0.83021679     764.41054     -703.0153       720.71819    
    484000   484000         560.23618      305.22497      5792.9488      5522.8167      6711.5598     -1188.7431      2533.3807      3853.2327     -6674.1792      2.9973987     -159.81278      542.00055     -1286.3625     -137.65297      60684.851      39.297063      39.297063      39.297063      0.81209589    -44.590677      268.25008      692.01552    
    485000   485000         552.71011     -218.41845      5220.0419      5415.8958      6621.3984     -1205.5026      2573.2263      3789.0311     -6647.1955      7.0001541     -184.08298      542.33536     -1285.8171     -135.86232      61484.672      39.468954      39.468954      39.468954      0.80153177    -1037.3804      292.24608      89.879004    
    486000   486000         562.98137      725.96112      6224.0044      5579.6803      6744.4468     -1164.7665      2541.7668      3887.6986     -6699.0089      5.254079      -156.90992      544.77797     -1288.3452     -137.26214      60857.64       39.334325      39.334325      39.334325      0.80979017     1734.3047     -438.88774      882.46636    
    487000   487000         563.31107     -524.48011      5414.5087      5880.9315      6748.3965     -867.46507      2623.7862      3985.4098     -6620.3264      5.0941818     -123.78038      546.55925     -1284.2077     -136.99068      60978.238      39.36029       39.36029       39.36029       0.80818863    -2298.8049     -935.38953      1660.7541    
    488000   488000         559.55203     -1327.3276      4342.5288      5550.3734      6703.3637     -1152.9903      2598.6023      3798.72       -6649.9713      6.9742834     -162.54124      544.83124     -1289.6055     -133.87788      62396.041      39.663011      39.663011      39.663011      0.78982444    -1720.8636     -2680.5231      419.40388    
    489000   489000         575.3027       959.18232      6583.0998      5709.0634      6892.0548     -1182.9914      2546.9019      3780.3044     -6678.2972      5.6383149     -90.743773      538.66957     -1285.4646     -133.69447      62481.643      39.681141      39.681141      39.681141      0.78874235     1431.6511      2534.095      -1088.1991    
    490000   490000         560.77499     -725.84354      5042.7384      5693.8716      6718.0146     -1024.143       2570.3366      3913.9325     -6618.964       5.2181022     -149.82442      542.31257     -1287.1544     -135.80475      61510.733      39.47453       39.47453       39.47453       0.80119218    -2085.3409      99.333949     -191.52373    
    491000   491000         538.91842     -180.90547      5308.7665      5468.3158      6456.1757     -987.85982      2564.6925      3987.3631     -6638.8699      4.9943759     -156.86048      541.90988     -1291.0892     -138.1333       60473.834      39.251462      39.251462      39.251462      0.81492962    -651.79813     -1101.4928      1210.5746    
    492000   492000         560.94295     -148.19258      5496.6347      5626.5404      6720.0267     -1093.4863      2580.4276      3892.574      -6640.9086      3.535237      -171.98286      534.87193     -1292.0036     -138.97603      60107.127      39.171962      39.171962      39.171962      0.8199014      382.28326     -129.71665     -697.14437    
    493000   493000         559.23249     -831.74345      4745.2255      5469.7342      6699.5357     -1229.8015      2531.9423      3792.7469     -6641.5588      5.0752614     -168.81308      541.24532     -1290.4394     -139.85807      59728.05       39.08944       39.08944       39.08944       0.82510509    -2.646337      -1550.0889     -942.49506    
    494000   494000         560.63627      262.30819      5755.0244      5526.1969      6716.3527     -1190.1559      2565.1405      3836.3652     -6671.802       6.9772488     -172.0535       537.17116     -1291.9544     -139.6514       59816.444      39.108714      39.108714      39.108714      0.82388579    -578.45087      135.64367      1229.7318    
    495000   495000         560.14087      132.03304      5690.3482      5571.5654      6710.418      -1138.8526      2576.3889      3812.2858     -6691.0976      8.0747701     -101.18337      540.3997      -1283.7208     -135.41631      61687.177      39.512238      39.512238      39.512238      0.79890053     73.044639      1421.1769     -1098.1224    
    496000   496000         556.44228     -1321.4751      4489.8989      5668.2226      6666.1093     -997.88665      2651.3472      3893.5483     -6626.9199      6.1171415     -186.4171       547.76597     -1283.3283     -136.62687      61140.609      39.395195      39.395195      39.395195      0.80604232    -2887.2647     -1085.6952      8.5346883    
    497000   497000         569.87282      1475.1292      7106.8914      5774.5195      6827.0055     -1052.486       2614.1011      3822.5911     -6638.7087      3.645403      -98.343277      534.94635     -1290.718      -134.87964      61932.625      39.564574      39.564574      39.564574      0.79573436     975.51462      1142.3062      2307.5669    
    498000   498000         563.31044     -806.09758      4867.9515      5596.2416      6748.389      -1152.1474      2573.282       3845.0336     -6698.7209      0.86844157    -121.3695       537.72574     -1288.9668     -134.84192      61949.946      39.568262      39.568262      39.568262      0.79551188    -659.08938     -1592.209      -166.99435    
    499000   499000         560.65086     -741.14063      5060.5123      5733.1409      6716.5276     -983.38668      2669.5347      3812.0916     -6611.7737      2.3546989     -106.37958      537.5181      -1286.7324     -134.23539      62229.863      39.627768      39.627768      39.627768      0.79193358    -233.93935      306.49402     -2295.9766    
    500000   500000         563.24859     -295.27184      5300.9476      5570.66        6747.648      -1176.988       2590.7046      3734.4588     -6642.5324      4.7533047     -123.85453      546.15071     -1286.6685     -133.37145      62632.969      39.71315       39.71315       39.71315       0.78683669     641.51154     -729.93901     -797.38806    
Loop time of 2779.03 on 8 procs for 500000 steps with 4020 atoms

Performance: 15.545 ns/day, 1.544 hours/ns, 179.919 timesteps/s, 723.273 katom-step/s
96.9% CPU use with 8 MPI tasks x 1 OpenMP threads

MPI task timing breakdown:
Section |  min time  |  avg time  |  max time  |%varavg| %total
---------------------------------------------------------------
Pair    | 954.88     | 1016.7     | 1092.3     | 151.0 | 36.58
Bond    | 221.21     | 222.97     | 225.06     |   8.4 |  8.02
Kspace  | 947.72     | 949.29     | 951.61     |   4.3 | 34.16
Neigh   | 115.46     | 116.48     | 117.35     |   5.4 |  4.19
Comm    | 60.014     | 61.471     | 63.618     |  16.1 |  2.21
Output  | 0.40123    | 0.45784    | 0.51169    |   5.4 |  0.02
Modify  | 323.15     | 400.79     | 462.21     | 241.3 | 14.42
Other   |            | 10.88      |            |       |  0.39

Nlocal:          502.5 ave         543 max         472 min
Histogram: 1 1 0 3 0 1 1 0 0 1
Nghost:        4597.62 ave        4634 max        4559 min
Histogram: 2 0 0 1 0 2 0 2 0 1
Neighs:              0 ave           0 max           0 min
Histogram: 8 0 0 0 0 0 0 0 0 0
FullNghs:       204982 ave      222460 max      188609 min
Histogram: 1 0 1 2 1 0 0 2 0 1

Total # of neighbors = 1639858
Ave neighs/atom = 407.92488
Ave special neighs/atom = 5.7761194
Neighbor list builds = 26641
Dangerous builds = 0

# --- Cleanup ---
unfix npt_fix

undump dump_npt

# --- Write Output ---
write_dump all custom npt_production_last.dump id type mol x y z xu yu zu vx vy vz modify sort id
write_data /home/alexzhao/PolyJarvis/data/PROPSULFIDE_CURATED/lammps/equil/npt_production/npt_production_out.data
System init for write_data ...
PPPM initialization ...
  using 12-bit tables for long-range coulomb
  G vector (1/distance) = 0.28692159
  grid = 24 24 24
  stencil order = 5
  estimated absolute RMS force accuracy = 0.0002851795
  estimated relative force accuracy = 8.588096e-07
  using double precision KISS FFT
  3d grid and FFT values/proc = 6859 1728
Generated 15 of 15 mixed pair_coeff terms from sixthpower/sixthpower mixing rule

print "STAGE COMPLETE: NPT T=560.0->560.0K P=1.0->1.0atm steps=500000"
STAGE COMPLETE: NPT T=560.0->560.0K P=1.0->1.0atm steps=500000
quit
