LAMMPS data file via write_data, version 22 Jul 2025, timestep = 500000, units = real

4020 atoms
6 atom types
4010 bonds
7 bond types
7600 angles
12 angle types
9570 dihedrals
14 dihedral types
4800 impropers
11 improper types

1.3056547822646891 41.01880445773984 xlo xhi
1.3056547822646891 41.01880445773984 ylo yhi
1.3056547822646891 41.01880445773984 zlo zhi

Masses

1 12.01115
2 12.01115
3 1.00797
4 1.00797
5 32.064
6 32.064

Pair Coeffs # lj/class2/coul/long/gpu

1 0.054 4.01
2 0.054 4.01
3 0.02 2.995
4 0.02 2.995
5 0.071 4.027
6 0.071 4.027

Bond Coeffs # class2

1 1.53 299.67 -501.77 679.81
2 1.101 345 -691.89 844.6
3 1.823 225.277 -327.706 488.972
4 1.101 345 -691.89 844.6
5 1.823 225.277 -327.706 488.972
6 1.823 225.277 -327.706 488.972
7 1.3261 275.112 -531.318 562.963

Angle Coeffs # class2

1 112.67 39.516 -7.443 -9.5583
2 110.77 41.453 -10.604 5.129
3 112.564 47.0276 -10.679 -10.1687
4 112.564 47.0276 -10.679 -10.1687
5 97.5 57.6938 -5.0559 -11.8206
6 110.77 41.453 -10.604 5.129
7 112.564 47.0276 -10.679 -10.1687
8 96.8479 56.7336 14.2713 0
9 107.66 39.641 -12.921 -2.4318
10 107.852 51.4949 -13.527 7.026
11 107.852 51.4949 -13.527 7.026
12 107.852 51.4949 -13.527 7.026

BondBond Coeffs

1 0 1.53 1.53
2 3.3872 1.53 1.101
3 10.9186 1.53 1.823
4 10.9186 1.53 1.823
5 -22.3144 1.823 1.823
6 3.3872 1.53 1.101
7 10.9186 1.53 1.823
8 -0.57 1.823 1.3261
9 5.3316 1.101 1.101
10 7.0463 1.101 1.823
11 7.0463 1.101 1.823
12 7.0463 1.101 1.823

BondAngle Coeffs

1 8.016 8.016 1.53 1.53
2 20.754 11.421 1.53 1.101
3 -3.5621 22.3865 1.53 1.823
4 -3.5621 22.3865 1.53 1.823
5 -13.0015 -13.0015 1.823 1.823
6 20.754 11.421 1.53 1.101
7 -3.5621 22.3865 1.53 1.823
8 10.7325 5.1221 1.823 1.3261
9 18.103 18.103 1.101 1.101
10 9.3225 44.9874 1.101 1.823
11 9.3225 44.9874 1.101 1.823
12 9.3225 44.9874 1.101 1.823

Dihedral Coeffs # class2

1 0 0 0.0316 0 -0.1681 0
2 -0.7017 0 0.0201 0 0.104 0
3 -0.4871 0 -0.4514 0 -0.1428 0
4 -0.5073 0 0.0155 0 -0.0671 0
5 -0.3338 0 -0.0684 0 -0.1706 0
6 -0.5073 0 0.0155 0 -0.0671 0
7 -0.3338 0 -0.0684 0 -0.1706 0
8 -0.1432 0 0.0617 0 -0.1083 0
9 -0.2078 0 -0.106 0 -0.3595 0
10 -0.2078 0 -0.106 0 -0.3595 0
11 -0.2078 0 -0.106 0 -0.3595 0
12 -0.5374 0 -0.5091 0 -0.1361 0
13 -1.2002 0 -1.2999 0 -0.1626 0
14 -1.2002 0 -1.2999 0 -0.1626 0

AngleAngleTorsion Coeffs

1 -16.164 112.67 110.77
2 -26.71 112.67 112.564
3 -28.1728 112.564 96.8479
4 -32.8949 112.564 97.5
5 -26.49 97.5 107.852
6 -32.8949 112.564 97.5
7 -26.49 97.5 107.852
8 -12.564 110.77 110.77
9 -13.1026 110.77 112.564
10 -13.1026 110.77 112.564
11 -13.1026 110.77 112.564
12 -18.6334 107.852 96.8479
13 -13.9674 112.564 112.564
14 -13.9674 112.564 112.564

EndBondTorsion Coeffs

1 0.2486 0.2422 -0.0925 0.0814 0.0591 0.2219 1.53 1.101
2 -0.1586 -0.7244 -0.2608 -0.7991 -0.959 0.5855 1.53 1.823
3 0.1026 0.0936 -0.0404 -0.3008 0.0606 0.4501 1.53 1.3261
4 -0.2542 -0.7984 -0.6525 -0.3047 -0.0109 -0.3763 1.53 1.823
5 0.2592 -0.0166 0.1306 -0.41 0.0668 0.4187 1.823 1.101
6 -0.2542 -0.7984 -0.6525 -0.3047 -0.0109 -0.3763 1.53 1.823
7 0.2592 -0.0166 0.1306 -0.41 0.0668 0.4187 1.823 1.101
8 0.213 0.312 0.0777 0.213 0.312 0.0777 1.101 1.101
9 -0.1526 -0.371 0.1048 1.0661 0.3298 0.425 1.101 1.823
10 -0.1526 -0.371 0.1048 1.0661 0.3298 0.425 1.101 1.823
11 -0.1526 -0.371 0.1048 1.0661 0.3298 0.425 1.101 1.823
12 0.4376 0.2001 -1.0696 0.2902 0.0695 0.1726 1.101 1.3261
13 -0.3252 0.5008 0.5191 -0.3252 0.5008 0.5191 1.823 1.823
14 -0.3252 0.5008 0.5191 -0.3252 0.5008 0.5191 1.823 1.823

MiddleBondTorsion Coeffs

1 -14.879 -3.6581 -0.3138 1.53
2 -4.2593 -5.6468 -3.3835 1.53
3 0.502 -1.0204 -0.9177 1.823
4 -2.5172 -2.0107 -2.8547 1.823
5 -0.6955 -2.9427 -1.2372 1.823
6 -2.5172 -2.0107 -2.8547 1.823
7 -0.6955 -2.9427 -1.2372 1.823
8 -14.261 -0.5322 -0.4864 1.53
9 -5.7537 -2.0104 0.2813 1.53
10 -5.7537 -2.0104 0.2813 1.53
11 -5.7537 -2.0104 0.2813 1.53
12 -0.3729 0.5373 -0.7035 1.823
13 1.7001 -3.3479 -0.8067 1.53
14 1.7001 -3.3479 -0.8067 1.53

BondBond13 Coeffs

1 0 1.53 1.101
2 0 1.53 1.823
3 0 1.53 1.3261
4 0 1.53 1.823
5 0 1.823 1.101
6 0 1.53 1.823
7 0 1.823 1.101
8 0 1.101 1.101
9 0 1.101 1.823
10 0 1.101 1.823
11 0 1.101 1.823
12 0 1.101 1.3261
13 0 1.823 1.823
14 0 1.823 1.823

AngleTorsion Coeffs

1 -0.2454 0 -0.1136 0.3113 0.4516 -0.1988 112.67 110.77
2 -2.0927 -0.1498 -1.7848 1.1179 0.3638 0.9423 112.67 112.564
3 -0.6045 3.8941 0.8885 1.0193 -0.6016 0.2097 112.564 96.8479
4 5.1289 2.0927 -2.4004 -4.5489 0.0886 0.6237 112.564 97.5
5 -1.0888 -0.2 -0.0909 0.5962 3.3479 0.2265 97.5 107.852
6 5.1289 2.0927 -2.4004 -4.5489 0.0886 0.6237 112.564 97.5
7 -1.0888 -0.2 -0.0909 0.5962 3.3479 0.2265 97.5 107.852
8 -0.8085 0.5569 -0.2466 -0.8085 0.5569 -0.2466 110.77 110.77
9 -2.0382 0.2102 -0.9023 0.3322 -0.0519 -0.3553 110.77 112.564
10 -2.0382 0.2102 -0.9023 0.3322 -0.0519 -0.3553 110.77 112.564
11 -2.0382 0.2102 -0.9023 0.3322 -0.0519 -0.3553 110.77 112.564
12 -2.2533 2.6948 -0.1723 1.434 -0.1915 -0.2611 107.852 96.8479
13 -5.0565 -0.6355 0.6015 -5.0565 -0.6355 0.6015 112.564 112.564
14 -5.0565 -0.6355 0.6015 -5.0565 -0.6355 0.6015 112.564 112.564

Improper Coeffs # class2

1 0 0
2 0 0
3 0 0
4 0 0
5 0 0
6 0 0
7 0 0
8 0 0
9 0 0
10 0 0
11 0 0

AngleAngle Coeffs

1 0.2738 -0.4825 0.2738 110.77 110.77 107.66
2 2.7985 -3.0031 -0.0668 110.77 112.564 107.852
3 -0.3157 -0.3157 -0.3157 107.66 107.66 107.66
4 0.5086 0.5086 -0.064 107.66 107.852 107.852
5 -1.3199 -1.3199 0.1184 112.67 110.77 110.77
6 -0.2564 -0.2564 -0.8766 112.67 112.564 112.564
7 -0.2564 -0.2564 -0.8766 112.67 112.564 112.564
8 2.7985 -3.0031 -0.0668 110.77 112.564 107.852
9 2.7985 -3.0031 -0.0668 110.77 112.564 107.852
10 -0.0668 -3.0031 2.7985 112.564 110.77 107.852
11 -0.0668 -3.0031 2.7985 112.564 110.77 107.852

Atoms # full

3426 9 6 -0.13 4.504321524386156 8.448584257142082 6.66328102007928 1 1 0
3428 9 3 0.053 2.968493312778781 7.310944212422417 5.104833868579623 1 1 0
3435 9 3 0.053 5.2542199464277815 6.116227192487224 4.561100087769837 1 1 0
3438 9 3 0.053 2.7391469741234693 5.839831477312536 3.220059773153152 1 1 0
3390 9 2 0.012 1.3251717337357403 12.201812721430185 2.735001769803289 1 1 0
2933 8 3 0.053 2.2779296453769278 3.325616592867996 6.345439475914744 0 0 0
1437 4 1 -0.041 7.536413799060734 3.445283340809637 20.417948888976078 0 0 0
1372 4 1 -0.159 7.828403511476068 5.319888550201768 5.907202131192135 0 0 0
1374 4 3 0.053 7.89897553158376 5.432372549940699 7.001559522969696 0 0 0
1375 4 3 0.053 7.806134967689051 6.406470010223009 5.693463637339689 0 0 0
1370 4 2 0.012 8.980591534863652 4.632903690704364 5.09158140077872 0 0 0
1371 4 3 0.053 8.810618879236486 4.6621166055993495 4.037913443492129 0 0 0
1379 4 3 0.053 9.781213548576408 7.434292996560479 5.4289993115742075 0 0 0
1377 4 1 -0.041 10.548443030361685 6.981997904035818 4.908719793214227 0 0 0
1367 4 1 -0.041 8.903801524405258 3.134975757643495 5.354757416439913 0 0 0
1369 4 3 0.053 7.8570128350993995 2.8004917229882533 5.452887822053723 0 0 0
1373 4 3 0.053 6.800293182997432 4.966736816626319 5.714316933673114 0 0 0
1368 4 3 0.053 9.444346592835462 2.821915346788856 6.259029578739961 0 0 0
1378 4 3 0.053 10.435343807759676 6.9854138380196344 3.819148766733328 0 0 0
4006 10 3 0.053 9.03125010202099 8.378182683076197 2.582186727362778 1 2 1
2109 6 3 0.053 17.767967644845374 17.09834052538062 20.7075604649939 0 1 0
1432 4 1 -0.159 6.610488267194 2.0629669562863016 17.580265432928005 0 0 0
1363 4 3 0.053 11.58766685671557 3.020666002931385 5.119330718856643 0 0 0
1362 4 1 -0.159 11.730507548166766 2.4319592482275136 4.248735025145097 0 0 0
1366 4 6 -0.13 9.150550379002187 2.0303314765987257 3.9657437349449034 0 0 0
1364 4 3 0.053 11.723268075746898 3.0933320682935124 3.3502343728433286 0 0 0
1360 4 2 0.012 10.766321849498217 1.3225632998669192 4.277761527792556 0 0 0
899 3 3 0.053 16.071514791522617 20.50172943077486 12.689678224831923 0 -1 0
1487 4 1 -0.041 18.309823033562274 7.816647763031322 21.107392079026976 0 0 0
1015 3 1 -0.041 17.160815639866023 20.46206510815108 1.688921956432035 0 -1 0
3418 9 3 0.053 2.5654018788921387 8.467304950969087 9.844304583190842 1 1 0
3431 9 3 0.053 5.083173659096371 9.019628197595924 3.7343508621917807 1 1 0
3430 9 2 0.012 4.541099985424465 8.072227973212934 3.9265167139566985 1 1 0
3401 9 3 0.053 2.7577623875269266 11.845490158947177 6.756634997136817 1 1 0
3427 9 1 -0.041 3.5382801250240337 8.225740042584905 5.056982849775273 1 1 0
941 3 3 0.053 7.987928599421441 11.282414242043819 3.128243081536075 0 -1 0
942 3 3 0.053 7.371973781621719 12.239264858625381 4.511011795757311 0 -1 0
940 3 1 -0.159 8.051544537476413 12.220451991225724 3.6924334890371777 0 -1 0
943 3 3 0.053 8.051732650814666 13.113906745083217 3.007750840343398 0 -1 0
3396 9 6 -0.13 2.7997583352817395 12.526016500598917 3.883603824191033 1 1 0
3436 9 6 -0.13 3.8291213747430466 7.749897940657244 2.29538037873901 1 1 0
3433 9 3 0.053 6.110980939258235 6.828544515983221 3.227722386370094 1 1 0
3429 9 3 0.053 2.7494990823588097 9.022368090280636 4.777151626093374 1 1 0
3434 9 3 0.053 6.292545079723197 7.621044669202495 4.949403776432995 1 1 0
3432 9 1 -0.159 5.679627625284302 7.0461247047048525 4.213025441296526 1 1 0
3437 9 1 -0.041 2.617794507457447 6.42704738101496 2.2809611466514412 1 1 0
1383 4 3 0.053 10.924266328466457 9.579965482955314 5.477661418392309 0 0 0
1385 4 3 0.053 11.847524532828755 9.20706507860432 3.90164669959155 0 0 0
936 3 3 0.053 8.49751709406247 13.56465829321419 5.99084371301718 0 -1 0
948 3 2 0.012 13.495942664150306 11.705517458975178 3.355037825620935 0 -1 0
935 3 1 -0.041 9.482834886356779 13.31255443776264 5.688550575343427 0 -1 0
938 3 2 0.012 9.375617529601254 12.21716279217171 4.538971490843073 0 -1 0
937 3 3 0.053 9.862487156512152 14.175090700401352 5.191025469956601 0 -1 0
939 3 3 0.053 9.632498520689099 11.119518123953432 4.970415442270163 0 -1 0
945 3 1 -0.041 12.329082961305414 12.49178140616898 4.034861083647122 0 -1 0
944 3 6 -0.13 10.594837038986377 12.689048260410019 3.1992193632909567 0 -1 0
934 3 6 -0.13 10.513376193902905 12.682044513253382 7.046041800036146 0 -1 0
950 3 1 -0.159 14.745809367168786 12.314616461754872 4.035477701821053 0 -1 0
952 3 3 0.053 14.826074796164649 12.13593085195994 5.144733818497768 0 -1 0
949 3 3 0.053 13.49688322964363 10.625982991556334 3.6795976161299957 0 -1 0
951 3 3 0.053 15.595547824147594 12.01779490019076 3.4239609892044935 0 -1 0
674 2 3 0.053 19.257915123320835 9.958916861174078 6.007097116555255 -1 0 0
3801 10 3 0.053 7.41685631964906 12.991113592942854 21.08886189608527 1 1 0
1023 3 3 0.053 20.063580374077564 20.914874648960428 2.36570513672958 0 -1 0
3397 9 1 -0.041 1.9187378319175052 13.235414884593412 5.291013477916783 1 1 0
3402 9 1 -0.159 4.166624330334011 13.26822913570499 6.330052056540834 1 1 0
3400 9 2 0.012 2.678838486214411 12.94601026012404 6.587734309340213 1 1 0
3404 9 3 0.053 4.3105879530132025 14.313427779499275 5.8879334785660555 1 1 0
3405 9 3 0.053 4.695473149255681 12.521677621178497 5.657804665764939 1 1 0
3802 10 2 0.012 9.516577241429685 12.480264702577154 20.370672391582577 1 1 0
3399 9 3 0.053 1.937482464776651 14.360876888873117 5.044669369578406 1 1 0
858 3 2 0.012 20.8336128785137 20.66574062931862 17.51255335461138 0 -1 0
1003 3 3 0.053 9.683812604632626 19.999721893702933 2.586825138594957 0 -1 0
946 3 3 0.053 12.067235601925221 12.030666392785056 4.984804938785482 0 -1 0
947 3 3 0.053 12.596282132891947 13.487869536375944 4.5542767769799495 0 -1 0
929 3 3 0.053 10.218917329250404 15.128502814282921 7.6147742108160825 0 -1 0
2294 6 2 0.012 10.30503315407358 20.400547350388567 14.771223068064792 0 1 0
928 3 2 0.012 10.39574091326037 14.169914429912673 8.17088919296968 0 -1 0
908 3 2 0.012 12.43622016943335 17.87544909020208 10.64867119991474 0 -1 0
909 3 3 0.053 11.75135475916936 17.081243669273142 10.661463010750396 0 -1 0
3424 9 3 0.053 2.809470510156836 6.089799032543545 9.079664029475959 1 1 0
1033 3 3 0.053 19.202276211403664 17.4663368795381 5.8616793007940196 0 -1 0
920 3 1 -0.159 15.78490262771374 15.102326426199062 8.472930011012675 0 -1 0
923 3 3 0.053 16.12810000951582 14.395673550751628 7.736026826648065 0 -1 0
921 3 3 0.053 15.716340503691798 16.056781674681368 7.915082977525675 0 -1 0
1489 4 3 0.053 18.27621272271224 6.613189199418588 20.98826355709851 0 0 0
953 3 3 0.053 14.75373430004334 13.47584969854519 3.808815274882225 0 -1 0
1007 3 3 0.053 13.237493818033997 18.983378158704312 2.1871252008962228 0 -1 0
1434 4 3 0.053 7.557778633713917 1.7301005764940427 17.133319128944137 0 0 0
914 3 6 -0.13 13.679961935926949 17.431350231450836 9.416303823100732 0 -1 0
1014 3 6 -0.13 15.516669743199245 19.958260459138064 2.0471395438968565 0 -1 0
924 3 6 -0.13 13.227149383130792 14.484737660998933 7.862561936586659 0 -1 0
1022 3 3 0.053 20.42198102119472 19.18124364333116 2.064577607333571 0 -1 0
1026 3 3 0.053 17.768240727379254 15.80216703194412 3.2612709820131975 0 -1 0
1491 4 3 0.053 20.001102744196913 7.5863313181080585 20.0857047780928 0 0 0
1365 4 3 0.053 12.65240440200552 1.9081252359341083 4.449003971502645 0 0 0
1595 4 3 0.053 20.889082646829404 5.750835087272306 8.469783464560702 0 0 0
2277 6 3 0.053 6.402529071317221 19.15191362307648 6.7313502078541045 0 1 0
769 2 3 0.053 20.85505707909918 1.4886450476417834 12.605340788302932 -1 0 0
1029 3 3 0.053 20.24432952615944 17.464626971325885 3.4620362759237153 0 -1 0
1433 4 3 0.053 6.6832815023862135 1.5364709707569562 18.61295422101965 0 0 0
1438 4 3 0.053 6.455528652497967 3.2052586554237177 20.207731790447145 0 0 0
911 3 3 0.053 11.388474148076787 18.762990368816087 9.1522611125152 0 -1 0
913 3 3 0.053 10.67411507477544 18.99405763165452 10.737806643828858 0 -1 0
910 3 1 -0.159 11.615983681398129 19.062967800034443 10.207172198771888 0 -1 0
1027 3 3 0.053 17.70123170596502 17.204996663872464 4.14452364832203 0 -1 0
1435 4 3 0.053 5.745175064617974 1.5870681057360319 16.87380332520049 0 0 0
1001 3 3 0.053 9.357350284609215 18.33953295477803 2.716243588309415 0 -1 0
1000 3 1 -0.159 10.143042479406445 19.033859203938796 2.3597391460184554 0 -1 0
1002 3 3 0.053 11.003013135582375 18.91250606988766 3.013463246036339 0 -1 0
1028 3 2 0.012 19.69977502398982 16.591642648853284 3.9070440087613334 0 -1 0
877 3 3 0.053 20.43969582446823 15.825652267866918 12.113092059593521 0 -1 0
912 3 3 0.053 12.077319435833566 20.050654733926223 10.18243297808634 0 -1 0
1439 4 3 0.053 7.970986631928751 2.775375866206194 21.154151572602032 0 0 0
2266 6 1 -0.159 1.601309002385536 19.208461689791296 11.343829784239025 0 1 0
860 3 1 -0.159 19.361653245080042 20.7544108958225 18.0050825967928 0 -1 0
768 2 1 -0.159 20.922308479393163 2.4716193039497827 12.041853085486826 -1 0 0
3421 9 3 0.053 2.1776899617863172 7.642531906660398 7.459565857597621 1 1 0
2941 8 3 0.053 6.12911542936452 2.3867876033331585 9.015178600982686 0 0 0
2942 8 3 0.053 5.103017193954733 2.2026936576392546 10.52507161657553 0 0 0
3374 9 3 0.053 2.524002299615459 18.12371250037025 1.568057639469997 1 1 0
629 2 3 0.053 10.484098916646099 1.371336154773715 15.949916540540269 -1 0 0
2940 8 1 -0.159 5.770890050625455 1.6474586262565274 9.882764182677832 0 0 0
1411 4 3 0.053 3.9024989641963583 5.269876593306804 12.407706179081739 0 0 0
2107 6 3 0.053 17.858969095414288 18.523974574256307 19.709853020765728 0 1 0
3423 9 3 0.053 4.4273302614620125 6.960593631845281 9.440828742082623 1 1 0
771 2 3 0.053 20.136601687066452 2.442218071625426 11.27451357017932 -1 0 0
3425 9 3 0.053 3.990244147736772 5.8094708883969295 8.035791156477382 1 1 0
641 2 3 0.053 10.196715400245054 1.7478916510859774 11.28858470726995 -1 0 0
1376 4 6 -0.13 10.58153535704988 5.3375389414385195 5.530400269417294 0 0 0
2134 6 2 0.012 15.187637069989826 21.12947630947352 20.571740446797726 0 1 0
636 2 2 0.012 11.825423849565594 2.84284463163811 11.666276068685614 -1 0 0
638 2 1 -0.159 10.832269520172735 2.305094053615436 10.589066442767379 -1 0 0
639 2 3 0.053 10.156044271518262 3.043625508738972 10.070276370779954 -1 0 0
640 2 3 0.053 11.332418685099286 1.5684000304478134 9.814776554051605 -1 0 0
1445 4 3 0.053 6.035823662660526 5.8859417230107915 20.00621364212113 0 0 0
637 2 3 0.053 11.296925323347782 3.2183750681799683 12.539046285241525 -1 0 0
645 2 3 0.053 12.693443854433951 3.4093593388160643 8.751865316490814 -1 0 0
642 2 6 -0.13 12.943003434176411 4.1755391267616275 11.083510962989111 -1 0 0
643 2 1 -0.041 13.556014272811735 3.6328212254929455 9.359006639306866 -1 0 0
644 2 3 0.053 14.21323228676093 2.6927075353210848 9.5239352273119 -1 0 0
653 2 1 -0.041 16.305197418859777 6.605418465144702 7.697085017572426 -1 0 0
646 2 2 0.012 14.63614644063424 4.398749472912064 8.61763846922561 -1 0 0
652 2 6 -0.13 14.609294398785506 6.2397645354052145 8.309284436365154 -1 0 0
654 2 3 0.053 16.715851022317125 7.505645383279578 8.266874338507245 -1 0 0
892 3 3 0.053 20.740768769357604 20.73349839032731 10.194307495525528 0 -1 0
655 2 3 0.053 16.991786619547682 5.731747367835399 8.154090465365234 -1 0 0
647 2 3 0.053 15.440904457606424 4.269672038789724 9.395426993079129 -1 0 0
657 2 3 0.053 15.881819903773119 6.145245489027993 5.518488026082739 -1 0 0
656 2 2 0.012 16.63550806701403 6.780894344340087 6.153622331553426 -1 0 0
957 3 3 0.053 13.957713175270488 9.199290042543076 1.61018428565845 0 -1 0
1018 3 2 0.012 18.216490457502914 19.560605742806313 2.284370793749502 0 -1 0
1449 4 3 0.053 10.30393886048639 4.201368066060752 20.768797562056477 0 0 0
660 2 3 0.053 18.392062912265292 5.439962240868018 5.9141557118990224 -1 0 0
661 2 3 0.053 18.108276730914127 6.6155368121636515 4.6809221264516125 -1 0 0
659 2 3 0.053 18.882394382076786 7.132642593758663 6.239276138034383 -1 0 0
658 2 1 -0.159 18.13508946883198 6.48785351806949 5.792347347794304 -1 0 0
765 2 3 0.053 20.072369646871124 4.681281368647788 11.174001446690484 -1 0 0
766 2 2 0.012 20.582499371791176 3.609607956644858 12.993875306905975 -1 0 0
1035 3 1 -0.041 20.699243053789225 15.257983821643268 1.46228336897937 0 -1 0
763 2 1 -0.041 20.572197901913796 4.968551373230845 12.189027288408253 -1 0 0
25 1 3 0.053 4.880882490280156 17.580227037966544 19.706149222764704 0 1 0
651 2 3 0.053 15.387474010912612 4.3152962131424975 6.623457396649002 -1 0 0
3414 9 3 0.053 2.369622475717227 10.56034599969189 11.198718060947389 1 1 0
3416 9 6 -0.13 1.5879329391357637 10.049738657486262 8.30005877689965 1 1 0
3420 9 2 0.012 3.1907612474201255 7.892746154936648 7.889295311788094 1 1 0
3415 9 3 0.053 2.575779382168805 12.38426340923551 11.255212718156734 1 1 0
3413 9 3 0.053 3.647846384344131 11.39631385527953 10.379901423128638 1 1 0
3417 9 1 -0.041 2.8974063726512767 8.964501591683986 8.946207029778776 1 1 0
3419 9 3 0.053 3.8479169725651574 9.467117882736094 9.123206468200566 1 1 0
1406 4 6 -0.13 6.7558422876248985 5.67041478827609 12.590060279313704 0 0 0
1408 4 3 0.053 5.521665016684975 7.218440377625872 11.531472098137982 0 0 0
1401 4 3 0.053 7.935054119779478 7.617837882524847 12.834567338693379 0 0 0
1398 4 3 0.053 7.258549677559033 6.790621043836221 10.284906750804941 0 0 0
1397 4 1 -0.041 8.236914682801508 6.895746371160812 10.696673423888297 0 0 0
1400 4 2 0.012 8.226927679200713 6.72683359375235 12.222367990430985 0 0 0
1020 3 1 -0.159 19.656894616016167 19.963154147737725 1.8602304158091933 0 -1 0
3412 9 1 -0.159 2.5287916562882513 11.50550151181814 10.616913880727694 1 1 0
1382 4 1 -0.159 11.790250544263612 9.198842704070348 5.031822075952148 0 0 0
1384 4 3 0.053 12.753424563517424 9.706750329300826 5.5178321083101025 0 0 0
1381 4 3 0.053 12.730312800473182 7.233896404238363 5.191487449557927 0 0 0
1380 4 2 0.012 11.787874894104142 7.706338424076264 5.36938592091963 0 0 0
933 3 3 0.053 9.232277057634924 12.906644656451672 9.547797623914375 0 -1 0
1391 4 3 0.053 11.06246442909232 7.639268844080617 9.892738839252422 0 0 0
1390 4 2 0.012 10.47489557288871 8.38361186181805 9.3949499789693 0 0 0
1396 4 6 -0.13 8.834973088445564 8.626255105288804 10.192160560042693 0 0 0
1399 4 3 0.053 8.823618877714152 6.045109069903406 10.245067420962108 0 0 0
1392 4 1 -0.159 11.217139653786903 9.75190240069404 9.537305275202293 0 0 0
1394 4 3 0.053 10.601847916083896 10.547775899234274 9.104086324359706 0 0 0
927 3 3 0.053 11.89895695141982 13.56854512685913 9.672675109575493 0 -1 0
1389 4 3 0.053 9.48625164460909 7.026448388326431 7.916499192260295 0 0 0
1386 4 6 -0.13 11.868269629529701 7.613574549169995 7.225372248740334 0 0 0
1387 4 1 -0.041 10.207008572365671 7.970153428818885 8.042736429030779 0 0 0
1395 4 3 0.053 11.322928166078515 9.96584529810402 10.568605356543216 0 0 0
1393 4 3 0.053 12.146660438515038 9.59451997562659 9.10689192668313 0 0 0
1388 4 3 0.053 9.739118785417656 8.777983773704523 7.496199350865831 0 0 0
662 2 6 -0.13 16.29795938660167 8.54996839933535 5.596452046642625 -1 0 0
665 2 3 0.053 14.804076867180015 10.186106801391858 6.639556762947938 -1 0 0
667 2 3 0.053 16.52113849237482 11.578699019491195 6.942729128122702 -1 0 0
664 2 3 0.053 15.25630364378257 8.899294513995432 7.7744922739290825 -1 0 0
663 2 1 -0.041 15.605201472457802 9.628839016806502 7.11134266050986 -1 0 0
666 2 2 0.012 16.567229464508394 10.690399085686035 7.735661788197844 -1 0 0
672 2 6 -0.13 18.197705665718455 10.234067398002706 8.275971216586857 -1 0 0
671 2 3 0.053 16.167685995406597 11.98507870947887 9.421336100146352 -1 0 0
670 2 3 0.053 14.7667845021351 11.421912351419536 8.562361096851498 -1 0 0
669 2 3 0.053 15.604389719693708 10.382817652109482 9.717137795442968 -1 0 0
668 2 1 -0.159 15.764493183761227 11.13695785714725 8.932615294408198 -1 0 0
675 2 3 0.053 18.913112242398707 11.635472099165012 6.33168961352068 -1 0 0
676 2 2 0.012 20.785219268802024 10.733655383300125 7.126596758129081 -1 0 0
673 2 1 -0.041 19.261031417486432 10.687652324945274 6.8200558856220095 -1 0 0
730 2 3 0.053 20.384862010940264 12.884088744413777 10.746129201820896 -1 0 0
956 3 3 0.053 15.418695449330475 10.200836693130976 1.5430855604569138 0 -1 0
3403 9 3 0.053 4.727156863898888 13.349466671241515 7.280370132534196 1 1 0
3406 9 6 -0.13 2.2098644077194414 13.919223394088423 8.161547984425237 1 1 0
2278 6 3 0.053 6.765533138338215 17.626606662894822 7.440407919207105 0 1 0
2272 6 3 0.053 4.228960162390974 18.225674680860024 7.7625809715098 0 1 0
2271 6 1 -0.041 4.78434612275429 18.02379750644718 8.731453447426222 0 1 0
2270 6 6 -0.13 3.5129514011836322 17.739568130354403 9.978728990750716 0 1 0
2273 6 3 0.053 5.146300366622954 17.08034328776622 8.627609944995848 0 1 0
2274 6 2 0.012 5.965540339401857 18.79522644872035 9.036652663272099 0 1 0
2280 6 6 -0.13 6.923541185349461 18.121858264288036 10.399542383810557 0 1 0
2276 6 1 -0.159 6.770996373165569 18.765432366386023 7.667115619305459 0 1 0
925 3 1 -0.041 11.703617258346256 14.292392513187618 8.946070737286945 0 -1 0
926 3 3 0.053 11.596079955969303 15.264932573782126 9.424038511617157 0 -1 0
931 3 3 0.053 8.131864366663173 13.864223647537177 8.633602261303789 0 -1 0
930 3 1 -0.159 9.132488082129036 13.924466033171791 9.104622078050937 0 -1 0
932 3 3 0.053 9.131538969716612 14.726233650155622 9.761299705544552 0 -1 0
917 3 3 0.053 13.40691900656947 15.56828803584342 10.72321618230527 0 -1 0
2285 6 3 0.053 7.332686092310726 17.835421587506755 12.98544023159396 0 1 0
907 3 3 0.053 13.73382017700758 17.459823231446233 12.383740591113494 0 -1 0
919 3 3 0.053 14.636828374116785 13.882917761553822 9.88620798652452 0 -1 0
922 3 3 0.053 16.55564755566634 15.334140186929964 9.207084469108517 0 -1 0
918 3 2 0.012 14.559082990706047 14.769876997197889 9.251212201124904 0 -1 0
915 3 1 -0.041 14.237620687842496 15.945289589662046 10.221771723899913 0 -1 0
916 3 3 0.053 15.109682461143597 16.06041287593378 10.98317196012874 0 -1 0
886 3 3 0.053 18.173511726460838 19.020551719697146 7.790219952627431 0 -1 0
885 3 1 -0.041 18.825595453338604 18.950135926956715 8.69694387110929 0 -1 0
884 3 6 -0.13 18.39545413758365 17.318319058022194 9.362024787025362 0 -1 0
881 3 3 0.053 20.606940041198953 15.692974381703694 8.42174618402795 0 -1 0
880 3 1 -0.159 20.732179063029342 15.67248528175346 9.51345928969426 0 -1 0
1442 4 1 -0.159 6.872057082001019 6.037569518195762 20.655752498766404 0 0 0
882 3 3 0.053 20.247289005622363 14.701216306966504 9.872794492957038 0 -1 0
878 3 2 0.012 19.954129173896344 16.81352666239993 10.306753502104621 0 -1 0
879 3 3 0.053 20.601894244673424 17.769310267528077 10.2988054734748 0 -1 0
887 3 3 0.053 19.962448931541417 18.880829867568803 8.545295065958186 0 -1 0
2269 6 3 0.053 2.308347878853283 19.759818324038704 11.928087688522988 0 1 0
2264 6 2 0.012 2.2008542313313675 19.025799450954995 9.96398273867458 0 1 0
2926 8 3 0.053 3.245134447304924 1.9543200310187272 3.951538501580754 0 0 0
2283 6 3 0.053 5.099195833044837 18.690070068429808 11.918598940135686 0 1 0
2261 6 1 -0.041 2.680882515591653 20.401537852398622 9.470695556069069 0 1 0
2263 6 3 0.053 3.667266039127938 20.59976222608176 9.99696009138848 0 1 0
2275 6 3 0.053 5.6461051073546615 19.79429427216853 9.31307530105512 0 1 0
2260 6 6 -0.13 2.990333070765489 20.403100206100444 7.648635604776325 0 1 0
3803 10 3 0.053 10.08382731464442 11.483410436301444 20.101393666852232 1 1 0
2279 6 3 0.053 7.684192805774675 19.26481097667895 7.927910541895882 0 1 0
901 3 3 0.053 15.126131224203345 18.525601899493545 14.215065943863774 0 -1 0
2281 6 1 -0.041 6.201620164024494 19.079393136192436 11.603862457942537 0 1 0
2290 6 6 -0.13 8.685905469775188 19.907573363693487 12.724600215387861 0 1 0
2284 6 2 0.012 7.1007823461544355 19.01470898907283 12.919085119634554 0 1 0
905 3 1 -0.041 13.09182470648315 18.223661189588793 11.926631289411969 0 -1 0
2282 6 3 0.053 6.135927422094182 20.138921855934036 11.390559185464188 0 1 0
902 3 3 0.053 15.756703247994915 17.371589215521734 12.966916222598622 0 -1 0
906 3 3 0.053 12.237056775510428 18.28335101187614 12.673784340472482 0 -1 0
904 3 6 -0.13 13.9111854129022 19.827170678267578 11.98754546815911 0 -1 0
630 2 3 0.053 10.352228482882326 1.5617401053651438 14.206745994989788 -1 0 0
900 3 1 -0.159 15.818266985384595 18.43684112905251 13.333178182709057 0 -1 0
893 3 3 0.053 19.50488623552462 20.542899286758797 11.43394253157401 0 -1 0
888 3 2 0.012 18.548340437154057 20.30020901139289 9.42279951443684 0 -1 0
894 3 6 -0.13 16.77412779126719 20.630586567938277 10.020939737400733 0 -1 0
898 3 2 0.012 15.621935277446768 19.594872389889485 12.299212104728332 0 -1 0
897 3 3 0.053 16.222225995333844 18.28839906009119 10.38790929085589 0 -1 0
895 3 1 -0.041 16.506533207330474 19.214654532248687 10.998834499231467 0 -1 0
890 3 1 -0.159 19.70415447584656 20.813483760843035 10.415184500585976 0 -1 0
903 3 3 0.053 16.78271596751506 18.598544303592043 13.70196509132379 0 -1 0
896 3 3 0.053 17.609893144464785 18.887029995302985 11.489770561718334 0 -1 0
1813 5 3 0.053 1.486195051843202 17.932115961866998 16.24815646556039 1 1 0
1410 4 2 0.012 4.054769898948828 6.212666343312764 12.992630186058017 0 0 0
1431 4 3 0.053 6.0422261252457785 4.046576000702526 18.347505018280238 0 0 0
1416 4 6 -0.13 4.315269200997204 5.606790058193256 14.676311754540595 0 0 0
1427 4 1 -0.041 6.677737982605109 4.297613372895852 16.476795588115277 0 0 0
1421 4 3 0.053 4.899619381548089 6.290216690302781 17.458314353435583 0 0 0
1420 4 2 0.012 5.473023918641335 6.964307066762241 16.81164943419966 0 0 0
1417 4 1 -0.041 4.480437020960528 7.177125435139897 15.653943913603264 0 0 0
1429 4 3 0.053 5.639144094253085 3.905484872551303 16.082988012076108 0 0 0
1430 4 2 0.012 6.883266516932139 3.4637074167731194 17.807865169912397 0 0 0
1422 4 1 -0.159 5.823707768681473 8.196685878668013 17.76211558839768 0 0 0
1412 4 1 -0.159 2.8000434720528373 7.144189584793206 12.853178283925711 0 0 0
1418 4 3 0.053 4.759739279346273 7.975547141683138 14.900514356175309 0 0 0
1419 4 3 0.053 3.5260545522170097 7.38956084617902 16.160326070703228 0 0 0
631 2 3 0.053 11.151600585373677 2.8090208619310015 15.196030402308937 -1 0 0
3410 9 2 0.012 1.4634095260174036 11.444492728555854 9.55563019041945 1 1 0
1448 4 3 0.053 10.40917595619624 5.95926139132114 21.023716420928125 0 0 0
3793 10 3 0.053 6.182247567979118 8.944829532370306 20.68391990552958 1 1 0
3805 10 3 0.053 9.036813732522962 14.384433652837343 19.221243848609344 1 1 0
2106 6 1 -0.159 18.43026907848543 17.64467601438896 20.028660053214242 0 1 0
1428 4 3 0.053 7.459704224635169 3.8725012547008304 15.797500811556992 0 0 0
1426 4 6 -0.13 7.064277054954289 6.111698449664177 16.363740529566854 0 0 0
867 3 3 0.053 19.995045594644306 19.766750843848758 14.558954957867437 0 -1 0
2256 6 1 -0.159 1.6558738379482363 20.0574794824286 5.404081627142548 0 1 0
1436 4 6 -0.13 8.460566854136987 3.4306886461086195 18.775277836595954 0 0 0
767 2 3 0.053 19.615038274155037 3.304385240972656 13.49270791428986 -1 0 0
633 2 1 -0.041 12.550159974240815 1.5212315216555008 12.212084546296767 -1 0 0
761 2 3 0.053 18.220263968767995 8.752208753302446 11.81037859458659 -1 0 0
752 2 6 -0.13 16.156553286361948 7.3520823648335165 14.116940237424078 -1 0 0
632 2 6 -0.13 13.567501626116874 1.6853898913275815 13.793628982929292 -1 0 0
750 2 3 0.053 13.091313066366679 8.49785049649794 13.05059222037646 -1 0 0
749 2 3 0.053 13.697582749885026 7.350364719405778 12.055779697358549 -1 0 0
748 2 1 -0.159 13.904941569269539 8.337253894825789 12.466644274942066 -1 0 0
746 2 2 0.012 15.274486915478178 8.734868904003772 13.279965286900053 -1 0 0
747 2 3 0.053 15.951949276439796 9.08519374487301 12.54926720994867 -1 0 0
762 2 6 -0.13 19.514270437515158 6.080552827379217 13.199955528160213 -1 0 0
753 2 1 -0.041 16.63455233616547 6.242145256673925 12.741545865012117 -1 0 0
759 2 3 0.053 18.896788785075117 7.6908585985579405 10.651046214707941 -1 0 0
756 2 2 0.012 18.058143312442503 6.410256145294915 12.03791036214903 -1 0 0
758 2 1 -0.159 18.063819754113815 7.727540018855732 11.205212154773486 -1 0 0
757 2 3 0.053 18.085612990762314 5.602847705689709 11.303326828562998 -1 0 0
755 2 3 0.053 15.860363752661462 6.109341302641363 11.985084860575459 -1 0 0