units real
atom_style full
boundary p p p

# --- Force Field Styles ---
pair_style lj/class2/coul/long 9.5 9.5
kspace_style pppm 1e-6
dielectric 1.000000
bond_style class2
angle_style class2
dihedral_style class2
improper_style class2
special_bonds lj/coul 0 0 1
pair_modify mix sixthpower tail yes
neighbor 2.0 bin
neigh_modify delay 0 every 1 check yes
neigh_modify one 4000
# KOKKOS: package loaded via -pk kokkos on the command line

read_data /home/alexzhao/PolyJarvis/data/PS3/lammps/equil/minimize/minimize_out.data
Reading data file ...
  orthogonal box = (0 0 0) to (50.734685 50.734685 50.734685)
  1 by 1 by 1 MPI processor grid
  reading atoms ...
  6420 atoms
  reading velocities ...
  6420 velocities
  scanning bonds ...
  4 = max bonds/atom
  scanning angles ...
  14 = max angles/atom
  scanning dihedrals ...
  34 = max dihedrals/atom
  scanning impropers ...
  11 = max impropers/atom
  orthogonal box = (0 0 0) to (50.734685 50.734685 50.734685)
  1 by 1 by 1 MPI processor grid
  reading bonds ...
  6810 bonds
  reading angles ...
  12000 angles
  reading dihedrals ...
  19110 dihedrals
  reading impropers ...
  5600 impropers
Finding 1-2 1-3 1-4 neighbors ...
  special bond factors lj:    0        0        1       
  special bond factors coul:  0        0        1       
     4 = max # of 1-2 neighbors
     8 = max # of 1-3 neighbors
    12 = max # of special neighbors
  special bonds CPU = 0.003 seconds
  read_data CPU = 0.272 seconds
include /home/alexzhao/PolyJarvis/data/PS3/lammps/equil/emc_build.params
# LAMMPS parameters created by EMC v9.4.4, build Jul 31 2025 20:33:44

# Variables

variable	seed		index	472913
variable	ntotal		index	6420
variable	fshape		index	1
variable	output		index	emc_build
variable	field		index	pcff/pcff
variable	location1	index	~/emc/field/
variable	nav		index	0.6022141179
variable	temperature	index	300
variable	radius		index	5
variable	nrelax		index	100
variable	weight_nonbond	index	0.0001
variable	weight_bond	index	0.0001
variable	weight_focus	index	1
variable	cutoff		index	9.5
variable	charge_cutoff	index	9.5
variable	kappa		index	4
variable	density1	index	0.53
variable	lprevious	index	0
variable	lphase		index	50.7346850343
variable	f_poly		index	10
variable	chem_repeat	index	*CC(c1ccccc1)*
variable	chem_cap	index	*[H]
variable	lg_repeat	index	16
variable	lg_cap		index	1
variable	norm_poly	index	100
variable	l_poly		index	642
variable	mg_repeat	index	92.14181
variable	mg_cap		index	1.00797
variable	m_poly		index	3687.68834
variable	n_poly		index	10
variable	mtotal		index	41681.3434
variable	nphase1		index	6420
variable	mphase1		index	41681.3434
variable	vphase1		index	130591.498627
variable	lbox		index	50.7346850343
variable	lphase1		index	50.7346850343
variable	lxx		index	50.7346850343
variable	lyy		index	50.7346850343
variable	lzz		index	50.7346850343
variable	lzy		index	0
variable	lzx		index	0
variable	lyx		index	0
variable	vtotal		index	130591.498627
variable	nl_poly		index	10

# Types

variable	type_c		index	1
variable	type_c1		index	2
variable	type_cp		index	3
variable	type_hc		index	4

variable	type_bond_c_c	index	1
variable	type_bond_c_c1	index	2
variable	type_bond_c_cp	index	3
variable	type_bond_c_hc	index	4
variable	type_bond_c1_cp	index	5
variable	type_bond_c1_hc	index	6
variable	type_bond_cp_cp	index	7
variable	type_bond_cp_hc	index	8

variable	type_angle_c_c_c1 index	1
variable	type_angle_c_c_cp index	2
variable	type_angle_c_c_hc index	3
variable	type_angle_c_c1_c index	4
variable	type_angle_c_c1_cp index	5
variable	type_angle_c_c1_hc index	6
variable	type_angle_c_cp_cp index	7
variable	type_angle_c1_c_c1 index	8
variable	type_angle_c1_c_hc index	9
variable	type_angle_c1_cp_cp index	10
variable	type_angle_cp_c_hc index	11
variable	type_angle_cp_c1_hc index	12
variable	type_angle_cp_cp_cp index	13
variable	type_angle_cp_cp_hc index	14
variable	type_angle_hc_c_hc index	15

# Clusters

variable	n0_poly		index	1
variable	n1_poly		index	10
variable	nl_poly		index	10

# Flags

variable	flag_charged	index	1

# Masses

mass		1    12.01115  # c
mass		2    12.01115  # c1
mass		3    12.01115  # cp
mass		4     1.00797  # hc

# Potentials

pair_modify	mix sixthpower tail yes
special_bonds	lj/coul 0 0 1

# Pair Coeffs

pair_coeff	 1  1    0.05400    4.01000  # c,c
pair_coeff	 2  2    0.05400    4.01000  # c1,c1
pair_coeff	 3  3    0.06400    4.01000  # cp,cp
pair_coeff	 4  4    0.02000    2.99500  # hc,hc

# Bond Coeffs

bond_coeff	1    1.53000  299.67000 -501.77000  679.81000  # c,c
bond_coeff	2    1.53000  299.67000 -501.77000  679.81000  # c,c1
bond_coeff	3    1.50100  321.90210 -521.82080  572.16280  # c,cp
bond_coeff	4    1.10100  345.00000 -691.89000  844.60000  # c,hc
bond_coeff	5    1.50100  321.90210 -521.82080  572.16280  # c1,cp
bond_coeff	6    1.10100  345.00000 -691.89000  844.60000  # c1,hc
bond_coeff	7    1.41700  470.83610 -627.61790 1327.63450  # cp,cp
bond_coeff	8    1.09820  372.82510 -803.45260  894.31730  # cp,hc

# Angle Coeffs

angle_coeff	 1  112.67000   39.51600   -7.44300   -9.55830  # c,c,c1
angle_coeff	 2  108.40000   43.95940   -8.39240   -9.33790  # c,c,cp
angle_coeff	 3  110.77000   41.45300  -10.60400    5.12900  # c,c,hc
angle_coeff	 4  112.67000   39.51600   -7.44300   -9.55830  # c,c1,c
angle_coeff	 5  108.40000   43.95940   -8.39240   -9.33790  # c,c1,cp
angle_coeff	 6  110.77000   41.45300  -10.60400    5.12900  # c,c1,hc
angle_coeff	 7  120.05000   44.71480  -22.73520    0.00000  # c,cp,cp
angle_coeff	 8  112.67000   39.51600   -7.44300   -9.55830  # c1,c,c1
angle_coeff	 9  110.77000   41.45300  -10.60400    5.12900  # c1,c,hc
angle_coeff	10  120.05000   44.71480  -22.73520    0.00000  # c1,cp,cp
angle_coeff	11  111.00000   44.32340   -9.44540    0.00000  # cp,c,hc
angle_coeff	12  111.00000   44.32340   -9.44540    0.00000  # cp,c1,hc
angle_coeff	13  118.90000   61.02260  -34.99310    0.00000  # cp,cp,cp
angle_coeff	14  117.94000   35.15580  -12.46820    0.00000  # cp,cp,hc
angle_coeff	15  107.66000   39.64100  -12.92100   -2.43180  # hc,c,hc

# BondBond Coeffs

angle_coeff	 1 bb    0.00000    1.53000    1.53000  # c,c,c1
angle_coeff	 2 bb    0.00000    1.53000    1.50100  # c,c,cp
angle_coeff	 3 bb    3.38720    1.53000    1.10100  # c,c,hc
angle_coeff	 4 bb    0.00000    1.53000    1.53000  # c,c1,c
angle_coeff	 5 bb    0.00000    1.53000    1.50100  # c,c1,cp
angle_coeff	 6 bb    3.38720    1.53000    1.10100  # c,c1,hc
angle_coeff	 7 bb   12.06760    1.50100    1.41700  # c,cp,cp
angle_coeff	 8 bb    0.00000    1.53000    1.53000  # c1,c,c1
angle_coeff	 9 bb    3.38720    1.53000    1.10100  # c1,c,hc
angle_coeff	10 bb   12.06760    1.50100    1.41700  # c1,cp,cp
angle_coeff	11 bb    2.91680    1.50100    1.10100  # cp,c,hc
angle_coeff	12 bb    2.91680    1.50100    1.10100  # cp,c1,hc
angle_coeff	13 bb   68.28560    1.41700    1.41700  # cp,cp,cp
angle_coeff	14 bb    1.07950    1.41700    1.09820  # cp,cp,hc
angle_coeff	15 bb    5.33160    1.10100    1.10100  # hc,c,hc

# BondAngle Coeffs

angle_coeff	 1 ba    8.01600    8.01600    1.53000    1.53000  # c,c,c1
angle_coeff	 2 ba    0.00000    0.00000    1.53000    1.50100  # c,c,cp
angle_coeff	 3 ba   20.75400   11.42100    1.53000    1.10100  # c,c,hc
angle_coeff	 4 ba    8.01600    8.01600    1.53000    1.53000  # c,c1,c
angle_coeff	 5 ba    0.00000    0.00000    1.53000    1.50100  # c,c1,cp
angle_coeff	 6 ba   20.75400   11.42100    1.53000    1.10100  # c,c1,hc
angle_coeff	 7 ba   47.05790   31.07710    1.50100    1.41700  # c,cp,cp
angle_coeff	 8 ba    8.01600    8.01600    1.53000    1.53000  # c1,c,c1
angle_coeff	 9 ba   20.75400   11.42100    1.53000    1.10100  # c1,c,hc
angle_coeff	10 ba   47.05790   31.07710    1.50100    1.41700  # c1,cp,cp
angle_coeff	11 ba   26.46080   11.77170    1.50100    1.10100  # cp,c,hc
angle_coeff	12 ba   26.46080   11.77170    1.50100    1.10100  # cp,c1,hc
angle_coeff	13 ba   28.87080   28.87080    1.41700    1.41700  # cp,cp,cp
angle_coeff	14 ba   20.00330   24.21830    1.41700    1.09820  # cp,cp,hc
angle_coeff	15 ba   18.10300   18.10300    1.10100    1.10100  # hc,c,hc

# Dihedral Coeffs

dihedral_coeff	 1    0.00000    0.00000    0.05140    0.00000   -0.14300    0.00000  # c,c,c1,c
dihedral_coeff	 2    0.00000    0.00000    0.00000    0.00000    0.15800  180.00000  # c,c,c1,cp
dihedral_coeff	 3    0.00000    0.00000    0.03160    0.00000   -0.16810    0.00000  # c,c,c1,hc
dihedral_coeff	 4   -0.28020    0.00000   -0.06780    0.00000   -0.01220    0.00000  # c,c,cp,cp
dihedral_coeff	 5    0.00000    0.00000    0.05140    0.00000   -0.14300    0.00000  # c,c1,c,c1
dihedral_coeff	 6    0.00000    0.00000    0.03160    0.00000   -0.16810    0.00000  # c,c1,c,hc
dihedral_coeff	 7   -0.28020    0.00000   -0.06780    0.00000   -0.01220    0.00000  # c,c1,cp,cp
dihedral_coeff	 8    0.00000    0.00000    4.40720    0.00000    0.00000    0.00000  # c,cp,cp,cp
dihedral_coeff	 9    0.00000    0.00000    1.55900    0.00000    0.00000    0.00000  # c,cp,cp,hc
dihedral_coeff	10    0.00000    0.00000    0.00000    0.00000    0.15800  180.00000  # c1,c,c,cp
dihedral_coeff	11    0.00000    0.00000    0.03160    0.00000   -0.16810    0.00000  # c1,c,c,hc
dihedral_coeff	12    0.00000    0.00000    0.00000    0.00000    0.15800  180.00000  # c1,c,c1,cp
dihedral_coeff	13    0.00000    0.00000    0.03160    0.00000   -0.16810    0.00000  # c1,c,c1,hc
dihedral_coeff	14    0.00000    0.00000    4.40720    0.00000    0.00000    0.00000  # c1,cp,cp,cp
dihedral_coeff	15    0.00000    0.00000    1.55900    0.00000    0.00000    0.00000  # c1,cp,cp,hc
dihedral_coeff	16   -0.02280    0.00000    0.02800    0.00000   -0.18630    0.00000  # cp,c,c,hc
dihedral_coeff	17   -0.02280    0.00000    0.02800    0.00000   -0.18630    0.00000  # cp,c1,c,hc
dihedral_coeff	18   -0.28010    0.00000   -0.06780    0.00000   -0.01220    0.00000  # cp,cp,c,hc
dihedral_coeff	19   -0.28010    0.00000   -0.06780    0.00000   -0.01220    0.00000  # cp,cp,c1,hc
dihedral_coeff	20    8.36670    0.00000    1.19320    0.00000    0.00000    0.00000  # cp,cp,cp,cp
dihedral_coeff	21    0.00000    0.00000    3.96610    0.00000    0.00000    0.00000  # cp,cp,cp,hc
dihedral_coeff	22   -0.14320    0.00000    0.06170    0.00000   -0.10830    0.00000  # hc,c,c,hc
dihedral_coeff	23   -0.14320    0.00000    0.06170    0.00000   -0.10830    0.00000  # hc,c,c1,hc
dihedral_coeff	24    0.00000    0.00000    1.87690    0.00000    0.00000    0.00000  # hc,cp,cp,hc

# MiddleBondTorsion Coeffs

dihedral_coeff	 1 mbt  -17.78700   -7.18770    0.00000    1.53000  # c,c,c1,c
dihedral_coeff	 2 mbt    0.00000    0.00000    0.00000    1.53000  # c,c,c1,cp
dihedral_coeff	 3 mbt  -14.87900   -3.65810   -0.31380    1.53000  # c,c,c1,hc
dihedral_coeff	 4 mbt    0.00000    0.00000    0.00000    1.50100  # c,c,cp,cp
dihedral_coeff	 5 mbt  -17.78700   -7.18770    0.00000    1.53000  # c,c1,c,c1
dihedral_coeff	 6 mbt  -14.87900   -3.65810   -0.31380    1.53000  # c,c1,c,hc
dihedral_coeff	 7 mbt    0.00000    0.00000    0.00000    1.50100  # c,c1,cp,cp
dihedral_coeff	 8 mbt    0.00000    9.17920    0.00000    1.41700  # c,cp,cp,cp
dihedral_coeff	 9 mbt    0.00000    3.94210    0.00000    1.41700  # c,cp,cp,hc
dihedral_coeff	10 mbt    0.00000    0.00000    0.00000    1.53000  # c1,c,c,cp
dihedral_coeff	11 mbt  -14.87900   -3.65810   -0.31380    1.53000  # c1,c,c,hc
dihedral_coeff	12 mbt    0.00000    0.00000    0.00000    1.53000  # c1,c,c1,cp
dihedral_coeff	13 mbt  -14.87900   -3.65810   -0.31380    1.53000  # c1,c,c1,hc
dihedral_coeff	14 mbt    0.00000    9.17920    0.00000    1.41700  # c1,cp,cp,cp
dihedral_coeff	15 mbt    0.00000    3.94210    0.00000    1.41700  # c1,cp,cp,hc
dihedral_coeff	16 mbt    0.00000    0.00000    0.00000    1.53000  # cp,c,c,hc
dihedral_coeff	17 mbt    0.00000    0.00000    0.00000    1.53000  # cp,c1,c,hc
dihedral_coeff	18 mbt   -5.56790    1.40830    0.30100    1.50100  # cp,cp,c,hc
dihedral_coeff	19 mbt   -5.56790    1.40830    0.30100    1.50100  # cp,cp,c1,hc
dihedral_coeff	20 mbt   27.59890   -2.31200    0.00000    1.41700  # cp,cp,cp,cp
dihedral_coeff	21 mbt    0.00000   -1.15210    0.00000    1.41700  # cp,cp,cp,hc
dihedral_coeff	22 mbt  -14.26100   -0.53220   -0.48640    1.53000  # hc,c,c,hc
dihedral_coeff	23 mbt  -14.26100   -0.53220   -0.48640    1.53000  # hc,c,c1,hc
dihedral_coeff	24 mbt    0.00000    4.82280    0.00000    1.41700  # hc,cp,cp,hc

# EndBondTorsion Coeffs

dihedral_coeff	 1 ebt   -0.07320    0.00000    0.00000   -0.07320    0.00000    0.00000    1.53000    1.53000  # c,c,c1,c
dihedral_coeff	 2 ebt    0.00000    0.00000    0.00000    0.00000    0.00000    0.00000    1.53000    1.50100  # c,c,c1,cp
dihedral_coeff	 3 ebt    0.24860    0.24220   -0.09250    0.08140    0.05910    0.22190    1.53000    1.10100  # c,c,c1,hc
dihedral_coeff	 4 ebt    0.00000    0.00000    0.00000    0.00000    0.00000    0.00000    1.53000    1.41700  # c,c,cp,cp
dihedral_coeff	 5 ebt   -0.07320    0.00000    0.00000   -0.07320    0.00000    0.00000    1.53000    1.53000  # c,c1,c,c1
dihedral_coeff	 6 ebt    0.24860    0.24220   -0.09250    0.08140    0.05910    0.22190    1.53000    1.10100  # c,c1,c,hc
dihedral_coeff	 7 ebt    0.00000    0.00000    0.00000    0.00000    0.00000    0.00000    1.53000    1.41700  # c,c1,cp,cp
dihedral_coeff	 8 ebt    0.00000    0.24210    0.00000    0.00000   -0.69180    0.00000    1.50100    1.41700  # c,cp,cp,cp
dihedral_coeff	 9 ebt    0.00000   -1.79700    0.00000    0.00000   -0.48790    0.00000    1.50100    1.09820  # c,cp,cp,hc
dihedral_coeff	10 ebt    0.00000    0.00000    0.00000    0.00000    0.00000    0.00000    1.53000    1.50100  # c1,c,c,cp
dihedral_coeff	11 ebt    0.24860    0.24220   -0.09250    0.08140    0.05910    0.22190    1.53000    1.10100  # c1,c,c,hc
dihedral_coeff	12 ebt    0.00000    0.00000    0.00000    0.00000    0.00000    0.00000    1.53000    1.50100  # c1,c,c1,cp
dihedral_coeff	13 ebt    0.24860    0.24220   -0.09250    0.08140    0.05910    0.22190    1.53000    1.10100  # c1,c,c1,hc
dihedral_coeff	14 ebt    0.00000    0.24210    0.00000    0.00000   -0.69180    0.00000    1.50100    1.41700  # c1,cp,cp,cp
dihedral_coeff	15 ebt    0.00000   -1.79700    0.00000    0.00000   -0.48790    0.00000    1.50100    1.09820  # c1,cp,cp,hc
dihedral_coeff	16 ebt    0.00000    0.00000    0.00000    0.00000    0.00000    0.00000    1.50100    1.10100  # cp,c,c,hc
dihedral_coeff	17 ebt    0.00000    0.00000    0.00000    0.00000    0.00000    0.00000    1.50100    1.10100  # cp,c1,c,hc
dihedral_coeff	18 ebt   -0.58350    1.12200    0.39780    1.39970    0.77560    0.00000    1.41700    1.10100  # cp,cp,c,hc
dihedral_coeff	19 ebt   -0.58350    1.12200    0.39780    1.39970    0.77560    0.00000    1.41700    1.10100  # cp,cp,c1,hc
dihedral_coeff	20 ebt   -0.11850    6.32040    0.00000   -0.11850    6.32040    0.00000    1.41700    1.41700  # cp,cp,cp,cp
dihedral_coeff	21 ebt    0.00000   -6.89580    0.00000    0.00000   -0.46690    0.00000    1.41700    1.09820  # cp,cp,cp,hc
dihedral_coeff	22 ebt    0.21300    0.31200    0.07770    0.21300    0.31200    0.07770    1.10100    1.10100  # hc,c,c,hc
dihedral_coeff	23 ebt    0.21300    0.31200    0.07770    0.21300    0.31200    0.07770    1.10100    1.10100  # hc,c,c1,hc
dihedral_coeff	24 ebt    0.00000   -0.68900    0.00000    0.00000   -0.68900    0.00000    1.09820    1.09820  # hc,cp,cp,hc

# AngleTorsion Coeffs

dihedral_coeff	 1 at    0.38860   -0.31390    0.13890    0.38860   -0.31390    0.13890  112.67000  112.67000  # c,c,c1,c
dihedral_coeff	 2 at    0.00000    0.00000    0.00000    0.00000    0.00000    0.00000  112.67000  108.40000  # c,c,c1,cp
dihedral_coeff	 3 at   -0.24540    0.00000   -0.11360    0.31130    0.45160   -0.19880  112.67000  110.77000  # c,c,c1,hc
dihedral_coeff	 4 at    0.00000    0.00000    0.00000    0.00000    0.00000    0.00000  108.40000  120.05000  # c,c,cp,cp
dihedral_coeff	 5 at    0.38860   -0.31390    0.13890    0.38860   -0.31390    0.13890  112.67000  112.67000  # c,c1,c,c1
dihedral_coeff	 6 at   -0.24540    0.00000   -0.11360    0.31130    0.45160   -0.19880  112.67000  110.77000  # c,c1,c,hc
dihedral_coeff	 7 at    0.00000    0.00000    0.00000    0.00000    0.00000    0.00000  108.40000  120.05000  # c,c1,cp,cp
dihedral_coeff	 8 at    0.00000   -4.46830    0.00000    0.00000    3.89870    0.00000  120.05000  118.90000  # c,cp,cp,cp
dihedral_coeff	 9 at    0.00000   -0.12420    0.00000    0.00000    3.46010    0.00000  120.05000  117.94000  # c,cp,cp,hc
dihedral_coeff	10 at    0.00000    0.00000    0.00000    0.00000    0.00000    0.00000  112.67000  108.40000  # c1,c,c,cp
dihedral_coeff	11 at   -0.24540    0.00000   -0.11360    0.31130    0.45160   -0.19880  112.67000  110.77000  # c1,c,c,hc
dihedral_coeff	12 at    0.00000    0.00000    0.00000    0.00000    0.00000    0.00000  112.67000  108.40000  # c1,c,c1,cp
dihedral_coeff	13 at   -0.24540    0.00000   -0.11360    0.31130    0.45160   -0.19880  112.67000  110.77000  # c1,c,c1,hc
dihedral_coeff	14 at    0.00000   -4.46830    0.00000    0.00000    3.89870    0.00000  120.05000  118.90000  # c1,cp,cp,cp
dihedral_coeff	15 at    0.00000   -0.12420    0.00000    0.00000    3.46010    0.00000  120.05000  117.94000  # c1,cp,cp,hc
dihedral_coeff	16 at    0.00000    0.00000    0.00000    0.00000    0.00000    0.00000  108.40000  110.77000  # cp,c,c,hc
dihedral_coeff	17 at    0.00000    0.00000    0.00000    0.00000    0.00000    0.00000  108.40000  110.77000  # cp,c1,c,hc
dihedral_coeff	18 at    0.22510    0.65480    0.12370    4.62660    0.16320    0.04610  120.05000  111.00000  # cp,cp,c,hc
dihedral_coeff	19 at    0.22510    0.65480    0.12370    4.62660    0.16320    0.04610  120.05000  111.00000  # cp,cp,c1,hc
dihedral_coeff	20 at    1.97670    1.02390    0.00000    1.97670    1.02390    0.00000  118.90000  118.90000  # cp,cp,cp,cp
dihedral_coeff	21 at    0.00000    2.50140    0.00000    0.00000    2.71470    0.00000  118.90000  117.94000  # cp,cp,cp,hc
dihedral_coeff	22 at   -0.80850    0.55690   -0.24660   -0.80850    0.55690   -0.24660  110.77000  110.77000  # hc,c,c,hc
dihedral_coeff	23 at   -0.80850    0.55690   -0.24660   -0.80850    0.55690   -0.24660  110.77000  110.77000  # hc,c,c1,hc
dihedral_coeff	24 at    0.00000    2.45010    0.00000    0.00000    2.45010    0.00000  117.94000  117.94000  # hc,cp,cp,hc

# AngleAngleTorsion Coeffs

dihedral_coeff	 1 aat  -22.04500  112.67000  112.67000  # c,c,c1,c
dihedral_coeff	 2 aat    0.00000  112.67000  108.40000  # c,c,c1,cp
dihedral_coeff	 3 aat  -16.16400  112.67000  110.77000  # c,c,c1,hc
dihedral_coeff	 4 aat    0.00000  108.40000  120.05000  # c,c,cp,cp
dihedral_coeff	 5 aat  -22.04500  112.67000  112.67000  # c,c1,c,c1
dihedral_coeff	 6 aat  -16.16400  112.67000  110.77000  # c,c1,c,hc
dihedral_coeff	 7 aat    0.00000  108.40000  120.05000  # c,c1,cp,cp
dihedral_coeff	 8 aat  -14.40970  120.05000  118.90000  # c,cp,cp,cp
dihedral_coeff	 9 aat    4.44440  120.05000  117.94000  # c,cp,cp,hc
dihedral_coeff	10 aat    0.00000  112.67000  108.40000  # c1,c,c,cp
dihedral_coeff	11 aat  -16.16400  112.67000  110.77000  # c1,c,c,hc
dihedral_coeff	12 aat    0.00000  112.67000  108.40000  # c1,c,c1,cp
dihedral_coeff	13 aat  -16.16400  112.67000  110.77000  # c1,c,c1,hc
dihedral_coeff	14 aat  -14.40970  120.05000  118.90000  # c1,cp,cp,cp
dihedral_coeff	15 aat    4.44440  120.05000  117.94000  # c1,cp,cp,hc
dihedral_coeff	16 aat    0.00000  108.40000  110.77000  # cp,c,c,hc
dihedral_coeff	17 aat    0.00000  108.40000  110.77000  # cp,c1,c,hc
dihedral_coeff	18 aat   -5.88880  120.05000  111.00000  # cp,cp,c,hc
dihedral_coeff	19 aat   -5.88880  120.05000  111.00000  # cp,cp,c1,hc
dihedral_coeff	20 aat    0.00000  118.90000  118.90000  # cp,cp,cp,cp
dihedral_coeff	21 aat   -4.81410  118.90000  117.94000  # cp,cp,cp,hc
dihedral_coeff	22 aat  -12.56400  110.77000  110.77000  # hc,c,c,hc
dihedral_coeff	23 aat  -12.56400  110.77000  110.77000  # hc,c,c1,hc
dihedral_coeff	24 aat    0.35980  117.94000  117.94000  # hc,cp,cp,hc

# BondBond13 Coeffs

dihedral_coeff	 1 bb13    0.00000    1.53000    1.53000  # c,c,c1,c
dihedral_coeff	 2 bb13    0.00000    1.53000    1.50100  # c,c,c1,cp
dihedral_coeff	 3 bb13    0.00000    1.53000    1.10100  # c,c,c1,hc
dihedral_coeff	 4 bb13    0.00000    1.53000    1.41700  # c,c,cp,cp
dihedral_coeff	 5 bb13    0.00000    1.53000    1.53000  # c,c1,c,c1
dihedral_coeff	 6 bb13    0.00000    1.53000    1.10100  # c,c1,c,hc
dihedral_coeff	 7 bb13    0.00000    1.53000    1.41700  # c,c1,cp,cp
dihedral_coeff	 8 bb13    2.50850    1.50100    1.41700  # c,cp,cp,cp
dihedral_coeff	 9 bb13    0.87430    1.50100    1.09820  # c,cp,cp,hc
dihedral_coeff	10 bb13    0.00000    1.53000    1.50100  # c1,c,c,cp
dihedral_coeff	11 bb13    0.00000    1.53000    1.10100  # c1,c,c,hc
dihedral_coeff	12 bb13    0.00000    1.53000    1.50100  # c1,c,c1,cp
dihedral_coeff	13 bb13    0.00000    1.53000    1.10100  # c1,c,c1,hc
dihedral_coeff	14 bb13    2.50850    1.50100    1.41700  # c1,cp,cp,cp
dihedral_coeff	15 bb13    0.87430    1.50100    1.09820  # c1,cp,cp,hc
dihedral_coeff	16 bb13    0.00000    1.50100    1.10100  # cp,c,c,hc
dihedral_coeff	17 bb13    0.00000    1.50100    1.10100  # cp,c1,c,hc
dihedral_coeff	18 bb13   -3.48260    1.41700    1.10100  # cp,cp,c,hc
dihedral_coeff	19 bb13   -3.48260    1.41700    1.10100  # cp,cp,c1,hc
dihedral_coeff	20 bb13   53.00000    1.41700    1.41700  # cp,cp,cp,cp
dihedral_coeff	21 bb13   -6.27410    1.41700    1.09820  # cp,cp,cp,hc
dihedral_coeff	22 bb13    0.00000    1.10100    1.10100  # hc,c,c,hc
dihedral_coeff	23 bb13    0.00000    1.10100    1.10100  # hc,c,c1,hc
dihedral_coeff	24 bb13   -1.70770    1.09820    1.09820  # hc,cp,cp,hc

# Improper Coeffs

improper_coeff	 1    0.00000    0.00000  # c,c,cp,hc
improper_coeff	 2    0.00000    0.00000  # c,c,hc,c1
improper_coeff	 3    0.00000    0.00000  # c,c,hc,cp
improper_coeff	 4    0.00000    0.00000  # c,c,hc,hc
improper_coeff	 5    0.00000    0.00000  # c,c1,c1,hc
improper_coeff	 6    0.00000    0.00000  # c,c1,hc,hc
improper_coeff	 7    0.00000    0.00000  # c,cp,hc,hc
improper_coeff	 8    0.00000    0.00000  # c,hc,hc,hc
improper_coeff	 9    0.00000    0.00000  # c1,c,c,cp
improper_coeff	10    0.00000    0.00000  # c1,c,c,hc
improper_coeff	11    0.00000    0.00000  # c1,c,cp,hc
improper_coeff	12    7.81530    0.00000  # cp,c,cp,cp
improper_coeff	13    7.81530    0.00000  # cp,c1,cp,cp
improper_coeff	14    4.89120    0.00000  # cp,cp,cp,hc

# AngleAngle Coeffs

improper_coeff	 1 aa    2.04030   -1.82020    1.08270  108.40000  110.77000  111.00000  # c,c,cp,hc
improper_coeff	 2 aa    0.11840   -1.31990   -1.31990  110.77000  112.67000  110.77000  # c,c,hc,c1
improper_coeff	 3 aa    1.08270   -1.82020    2.04030  110.77000  108.40000  111.00000  # c,c,hc,cp
improper_coeff	 4 aa    0.27380   -0.48250    0.27380  110.77000  110.77000  107.66000  # c,c,hc,hc
improper_coeff	 5 aa   -1.31990   -1.31990    0.11840  112.67000  110.77000  110.77000  # c,c1,c1,hc
improper_coeff	 6 aa    0.27380   -0.48250    0.27380  110.77000  110.77000  107.66000  # c,c1,hc,hc
improper_coeff	 7 aa    2.37940    3.01180    2.37940  111.00000  111.00000  107.66000  # c,cp,hc,hc
improper_coeff	 8 aa   -0.31570   -0.31570   -0.31570  107.66000  107.66000  107.66000  # c,hc,hc,hc
improper_coeff	 9 aa    0.00000    0.00000    0.00000  112.67000  108.40000  108.40000  # c1,c,c,cp
improper_coeff	10 aa   -1.31990   -1.31990    0.11840  112.67000  110.77000  110.77000  # c1,c,c,hc
improper_coeff	11 aa    2.04030   -1.82020    1.08270  108.40000  110.77000  111.00000  # c1,c,cp,hc
improper_coeff	12 aa    0.00000    0.00000    0.00000  120.05000  120.05000  118.90000  # cp,c,cp,cp
improper_coeff	13 aa    0.00000    0.00000    0.00000  120.05000  120.05000  118.90000  # cp,c1,cp,cp
improper_coeff	14 aa    0.00000    0.00000    0.00000  118.90000  117.94000  117.94000  # cp,cp,cp,hc


# --- Thermo Output ---
thermo_style custom step time temp press enthalpy etotal ke pe ebond eangle edihed eimp evdwl ecoul elong etail vol lx ly lz density pxx pyy pzz
thermo_modify flush yes
thermo 1000

# --- Trajectory ---
dump dump_nvt all custom 1000 nvt_softheat.dump id type mol x y z ix iy iz vx vy vz

# --- Restart Checkpointing ---
restart 10000 nvt_1.rst nvt_2.rst

# --- Initial Velocities (optional) ---
velocity all create 300.0 752221 mom yes rot yes dist gaussian

# --- SHAKE Constraints ---
# Constrains H-X bonds to allow 2fs timestep
# SHAKE disabled

# --- NVT Thermostat (Nose-Hoover) ---
# T_damp = 50.0 fs  (coupling timescale for heat exchange)
# Ramp: 300.0 K -> 630.0 K over 500000 steps
timestep 0.5
fix nvt_fix all nvt temp 300.0 630.0 50.0

run 500000
PPPM Kokkos initialization ...
  using 12-bit tables for long-range coulomb
  G vector (1/distance) = 0.29040648
  grid = 32 32 32
  stencil order = 5
  estimated absolute RMS force accuracy = 0.00037971678
  estimated relative force accuracy = 1.1435058e-06
  using double precision cuFFT
  3d grid and FFT values/proc = 59319 32768
Generated 6 of 6 mixed pair_coeff terms from sixthpower/sixthpower mixing rule
Neighbor list info ...
  update: every = 1 steps, delay = 0 steps, check = yes
  max neighbors/atom: 4000, page size: 100000
  master list distance cutoff = 11.5
  ghost atom cutoff = 11.5
  binsize = 11.5, bins = 5 5 5
  1 neighbor lists, perpetual/occasional/extra = 1 0 0
  (1) pair lj/class2/coul/long/kk, perpetual
      attributes: full, newton off, kokkos_device
      pair build: full/bin/kk/device
      stencil: full/bin/3d
      bin: kk/device
Per MPI rank memory allocation (min/avg/max) = 35.47 | 35.47 | 35.47 Mbytes
   Step          Time           Temp          Press         Enthalpy        TotEng         KinEng         PotEng         E_bond        E_angle        E_dihed        E_impro         E_vdwl         E_coul         E_long         E_tail         Volume           Lx             Ly             Lz          Density          Pxx            Pyy            Pzz      
         0   0              300            1574.3947      8299.737       5301.2345      5740.1459     -438.91142      816.1566       1255.4412     -3054.7782      26.294248      541.47324      3693.9369     -3717.4353     -220.24632      130591.5       50.734685      50.734685      50.734685      0.52999999     1534.911       1547.2666      1641.0066    
      1000   500            308.37874      880.89829      13167.646      11489.937      5900.4632      5589.4743      3118.6126      3220.2249     -2003.8345      214.5538       1049.4296      3702.9905     -3712.5027     -220.24632      130591.5       50.734685      50.734685      50.734685      0.52999999     646.47568      823.6796       1172.5396    
      2000   1000           294.65406     -948.58724      9326.2033      11132.829      5637.8577      5494.9709      2915.8912      3225.7473     -1960.3209      218.89448      1074.1929      3731.1216     -3710.5557     -220.24632      130591.5       50.734685      50.734685      50.734685      0.52999999    -426.41673     -1238.9217     -1180.4233    
      3000   1500           295.17033     -630.25548      9984.8163      11185.165      5647.736       5537.429       2964.4462      3159.2        -1942.849       215.74497      1134.7494      3716.2896     -3710.1522     -220.24632      130591.5       50.734685      50.734685      50.734685      0.52999999    -1033.96       -829.88261     -26.923821    
      4000   2000           304.11319      577.3048       12405.584      11306.083      5818.847       5487.2356      3013.2727      3080.4589     -1998.7819      228.67708      1135.9051      3731.915      -3704.2111     -220.24632      130591.5       50.734685      50.734685      50.734685      0.52999999     314.20318      282.43867      1135.2726    
      5000   2500           305.11818      115.58017      11492.146      11272.019      5838.0763      5433.9424      2903.0304      3114.6055     -1970.8343      214.18286      1146.5933      3732.7361     -3706.3716     -220.24632      130591.5       50.734685      50.734685      50.734685      0.52999999     135.49563     -527.30381      738.5487     
      6000   3000           304.48954     -336.36464      10637.303      11277.924      5826.048       5451.8761      2859.7382      3167.2099     -1934.6192      214.4286       1123.5178      3730.8319     -3709.231      -220.24632      130591.5       50.734685      50.734685      50.734685      0.52999999    -272.18598     -395.40986     -341.49809    
      7000   3500           306.21551      434.33257      12112.396      11285.191      5859.0723      5426.1187      2910.8487      3129.9166     -1966.3464      229.41939      1116.4832      3715.7988     -3710.0015     -220.24632      130591.5       50.734685      50.734685      50.734685      0.52999999     357.32044      255.45549      690.22179    
      8000   4000           302.11915     -432.09834      10421.456      11244.406      5780.6934      5463.7127      2927.7725      3116.0351     -1923.9961      218.88827      1107.6958      3726.9288     -3709.6116     -220.24632      130591.5       50.734685      50.734685      50.734685      0.52999999     186.83062     -322.56257     -1160.5631    
      9000   4500           303.07466     -1287.6438      8917.0341      11369.407      5798.9759      5570.4313      2951.8378      3113.9921     -1877.2234      226.58623      1137.8629      3728.2933     -3710.9177     -220.24632      130591.5       50.734685      50.734685      50.734685      0.52999999    -1803.4679     -665.04745     -1394.4161    
     10000   5000           301.44798      0.29123369     11237.692      11237.138      5767.8512      5469.2865      2969.1709      3108.3469     -1956.5586      207.7606       1126.2771      3722.2132     -3707.9236     -220.24632      130591.5       50.734685      50.734685      50.734685      0.52999999    -443.16651     -388.48928      832.52949    
     11000   5500           304.80525      680.92507      12587.701      11290.85       5832.0888      5458.7615      2961.8447      3126.5678     -1995.3636      218.74042      1146.5274      3713.5366     -3713.0919     -220.24632      130591.5       50.734685      50.734685      50.734685      0.52999999     128.86305      319.86598      1594.0462    
     12000   6000           305.58882     -72.217685      11296.72       11434.261      5847.0815      5587.1799      3058.185       3150.6007     -1980.4243      221.93271      1131.8443      3719.5786     -3714.5372     -220.24632      130591.5       50.734685      50.734685      50.734685      0.52999999    -544.37475      464.75893     -137.03724    
     13000   6500           311.39928     -295.55226      10963.03       11525.922      5958.2577      5567.664       2981.7478      3134.4842     -1936.5537      214.90356      1169.8286      3723.2934     -3720.0398     -220.24632      130591.5       50.734685      50.734685      50.734685      0.52999999    -806.02182      378.52495     -459.15991    
     14000   7000           309.43865      5.9665468      11410.151      11398.787      5920.7433      5478.0437      2906.4559      3128.1856     -1945.4605      224.55528      1150.0642      3726.2401     -3711.9969     -220.24632      130591.5       50.734685      50.734685      50.734685      0.52999999     114.83248      153.59448     -250.52732    
     15000   7500           311.80957     -683.2417       10113.235      11414.498      5966.108       5448.39        3032.8029      3071.3489     -1960.917       215.29058      1088.5294      3715.1735     -3713.8382     -220.24632      130591.5       50.734685      50.734685      50.734685      0.52999999    -638.41666     -1168.1291     -243.17932    
     16000   8000           309.0886      -180.57918      11046.496      11390.417      5914.0455      5476.3717      2979.9782      3082.163      -1949.5402      218.44482      1133.6241      3724.7581     -3713.0564     -220.24632      130591.5       50.734685      50.734685      50.734685      0.52999999     61.953409     -979.27443      375.58347    
     17000   8500           312.74589     -188.66946      11045.117      11404.447      5984.0235      5420.423       2943.4042      3099.2358     -1962.1062      212.15956      1133.0267      3710.7846     -3716.0815     -220.24632      130591.5       50.734685      50.734685      50.734685      0.52999999    -633.27703      349.39576     -282.12713    
     18000   9000           311.23832     -330.2813       10846.854      11475.889      5955.1779      5520.7109      2996.0751      3081.2911     -1944.22        218.99496      1165.8077      3713.9793     -3711.2173     -220.24632      130591.5       50.734685      50.734685      50.734685      0.52999999    -236.88063     -284.63981     -469.32348    
     19000   9500           311.43974     -682.04903      10179.297      11478.289      5959.0319      5519.2571      3011.2589      3124.948      -1946.6376      216.08738      1121.0552      3711.9124     -3719.3672     -220.24632      130591.5       50.734685      50.734685      50.734685      0.52999999    -701.63046     -1007.3276     -337.18904    
     20000   10000          317.52002     -919.73047      10013.677      11765.344      6075.3709      5689.9728      3063.8998      3098.5227     -1829.6259      221.86675      1143.0104      3715.4446     -3723.1455     -220.24632      130591.5       50.734685      50.734685      50.734685      0.52999999    -751.74603     -703.24029     -1304.2051    
     21000   10500          311.2167      -631.40687      10296.636      11499.178      5954.7643      5544.4138      3038.3796      3059.848      -1883.3165      227.45103      1102.8027      3716.535      -3717.2861     -220.24632      130591.5       50.734685      50.734685      50.734685      0.52999999    -1610.6083     -188.04396     -95.568339    
     22000   11000          315.78293      355.51164      12249.431      11572.344      6042.1337      5530.2104      2965.1695      3093.4265     -1911.049       229.61985      1141.1373      3726.462      -3714.5558     -220.24632      130591.5       50.734685      50.734685      50.734685      0.52999999     1138.9543     -383.3719       310.95256    
     23000   11500          314.25129     -1092.5338      9472.506       11553.284      6012.8275      5540.4561      2975.0335      3141.648      -1859.1477      225.70199      1044.8665      3731.7518     -3719.3981     -220.24632      130591.5       50.734685      50.734685      50.734685      0.52999999    -1345.8475     -765.68388     -1166.07      
     24000   12000          313.068       -1036.1478      9608.9675      11582.356      5990.1866      5592.169       2945.5194      3133.5782     -1842.2181      229.7502       1120.1602      3721.6073     -3716.2283     -220.24632      130591.5       50.734685      50.734685      50.734685      0.52999999    -973.85235     -1177.4303     -957.16074    
     25000   12500          319.30529     -1237.561       9321.4489      11678.437      6109.5299      5568.9072      3020.9793      3163.0712     -1917.7231      220.61754      1064.6736      3729.5131     -3712.2245     -220.24632      130591.5       50.734685      50.734685      50.734685      0.52999999    -1203.1087     -953.0629      -1556.5113    
     26000   13000          317.32993     -61.311813      11482.021      11598.792      6071.7338      5527.0583      3045.812       3051.0752     -1949.4187      228.57758      1145.049       3723.4363     -3717.4732     -220.24632      130591.5       50.734685      50.734685      50.734685      0.52999999    -375.47508      155.69978      35.839858    
     27000   13500          318.83595     -1007.0714      9804.642       11722.653      6100.5496      5622.1033      3001.5734      3102.461      -1842.349       223.09924      1136.5072      3720.8797     -3720.0683     -220.24632      130591.5       50.734685      50.734685      50.734685      0.52999999    -1700.312      -581.9616      -738.94065    
     28000   14000          315.56449     -677.9013       10352.571      11643.663      6037.954       5605.7089      2907.9819      3173.5466     -1866.9427      231.52932      1157.8597      3720.4602     -3718.7261     -220.24632      130591.5       50.734685      50.734685      50.734685      0.52999999    -847.28928     -344.74915     -841.66548    
     29000   14500          326.96954     -658.04961      10557.292      11810.576      6256.1763      5554.3996      3047.0532      3047.155      -1906.6181      230.36972      1146.3934      3712.0358     -3721.9896     -220.24632      130591.5       50.734685      50.734685      50.734685      0.52999999    -261.70154     -1329.0403     -383.40702    
     30000   15000          318.89738     -112.71458      11399.111      11613.781      6101.725       5512.0561      3030.9304      3063.4394     -1896.1824      230.75819      1070.6799      3730.2052     -3717.7745     -220.24632      130591.5       50.734685      50.734685      50.734685      0.52999999    -515.75034     -1155.9731      1333.5797    
     31000   15500          319.45807     -1161.0825      9483.2151      11694.547      6112.4532      5582.0934      2930.0679      3163.7437     -1835.8902      238.00274      1100.1125      3703.487      -3717.4303     -220.24632      130591.5       50.734685      50.734685      50.734685      0.52999999    -1541.9444     -942.23819     -999.06481    
     32000   16000          318.51355     -1060.3585      9646.6268      11666.125      6094.3809      5571.7443      2991.3086      3134.9402     -1852.0976      229.27584      1075.3166      3711.266      -3718.2654     -220.24632      130591.5       50.734685      50.734685      50.734685      0.52999999    -1091.5361     -1211.4835     -878.05586    
     33000   16500          316.16946     -527.44326      10716.326      11720.864      6049.5295      5671.3347      3075.8424      3191.5976     -1908.0096      223.40299      1094.2342      3713.8921     -3719.625      -220.24632      130591.5       50.734685      50.734685      50.734685      0.52999999    -265.33253     -1229.5652     -87.432046    
     34000   17000          326.46704     -732.69257      10396.443      11791.887      6246.5615      5545.3257      3003.1774      3137.6386     -1865.0378      228.95865      1044.4369      3715.8226     -3719.6706     -220.24632      130591.5       50.734685      50.734685      50.734685      0.52999999    -633.41937     -638.79835     -925.86       
     35000   17500          322.61378     -273.59335      11310.888      11831.958      6172.8338      5659.1241      3023.6074      3170.3415     -1838.0194      237.50125      1073.5854      3715.4627     -3723.3546     -220.24632      130591.5       50.734685      50.734685      50.734685      0.52999999    -678.9066      -662.47562      520.60217    
     36000   18000          326.85289     -1065.7866      9749.031       11778.868      6253.9443      5524.9232      2992.7988      3100.1078     -1869.3405      232.68154      1079.2759      3715.3775     -3725.9779     -220.24632      130591.5       50.734685      50.734685      50.734685      0.52999999    -978.79846      216.94176     -2435.5032    
     37000   18500          324.76416     -29.088729      11700.535      11755.935      6213.9788      5541.9567      2969.2579      3113.5849     -1870.707       220.63869      1113.539       3720.3847     -3724.7415     -220.24632      130591.5       50.734685      50.734685      50.734685      0.52999999    -250.56128     -280.71842      444.01351    
     38000   19000          324.33891     -384.52175      11195.223      11927.562      6205.8421      5721.7194      3125.3073      3167.3267     -1850.2169      235.08986      1057.3215      3713.9381     -3727.0471     -220.24632      130591.5       50.734685      50.734685      50.734685      0.52999999    -973.50379     -1164.432       984.37056    
     39000   19500          325.23551      37.006405      12034.503      11964.023      6222.9975      5741.0255      3062.5055      3198.0637     -1847.6108      244.68906      1111.4784      3703.862      -3731.9624     -220.24632      130591.5       50.734685      50.734685      50.734685      0.52999999    -75.744685      385.52514     -198.76124    
     40000   20000          327.36228     -506.65312      10898.63       11863.572      6263.6909      5599.8814      3018.5779      3076.298      -1830.7956      229.21849      1118.5945      3712.0992     -3724.1111     -220.24632      130591.5       50.734685      50.734685      50.734685      0.52999999    -227.78462     -1430.2504      138.07563    
     41000   20500          322.00685     -487.03514      10831.439      11759.018      6161.221       5597.7971      2958.5727      3159.3693     -1868.9564      229.69497      1124.049       3714.8639     -3719.7963     -220.24632      130591.5       50.734685      50.734685      50.734685      0.52999999    -248.98387     -320.7182      -891.40336    
     42000   21000          326.58949     -494.91301      11003.61       11946.193      6248.9044      5697.2886      3072.4265      3178.3615     -1884.4992      230.20049      1105.5588      3717.0757     -3721.8352     -220.24632      130591.5       50.734685      50.734685      50.734685      0.52999999    -18.891296     -785.98327     -679.86446    
     43000   21500          326.96522     -780.42917      10396.129      11882.49       6256.0936      5626.3966      3020.9369      3127.0841     -1875.9659      232.05564      1128.6371      3716.6272     -3722.9785     -220.24632      130591.5       50.734685      50.734685      50.734685      0.52999999    -748.35801     -684.73635     -908.19315    
     44000   22000          331.32595     -166.39088      11786.544      12103.443      6339.531       5763.9116      3049.8386      3167.9265     -1806.4512      236.44521      1129.6685      3712.5473     -3726.0633     -220.24632      130591.5       50.734685      50.734685      50.734685      0.52999999    -292.95173      92.73813      -298.95903    
     45000   22500          331.34806     -491.69817      11130.987      12067.447      6339.9541      5727.4933      3035.6996      3212.9882     -1839.9741      229.74325      1085.8239      3722.1811     -3718.9687     -220.24632      130591.5       50.734685      50.734685      50.734685      0.52999999     230.17705     -865.5312      -839.74034    
     46000   23000          329.46112     -466.60139      11068.945      11957.607      6303.8496      5653.7578      3066.5432      3135.8957     -1849.1915      223.87162      1091.3579      3705.5011     -3720.2202     -220.24632      130591.5       50.734685      50.734685      50.734685      0.52999999    -11.485572     -963.45681     -424.86178    
     47000   23500          324.7708      -499.44454      11030.631      11981.845      6214.1058      5767.7387      3032.0442      3223.5963     -1827.7892      229.25771      1129.5439      3703.4967     -3722.4109     -220.24632      130591.5       50.734685      50.734685      50.734685      0.52999999    -325.07552     -388.9454      -784.31271    
     48000   24000          328.29204     -96.801227      11895.84       12080.202      6281.4807      5798.7215      3075.9832      3245.4099     -1855.2277      242.21787      1106.4364      3705.1532     -3721.2513     -220.24632      130591.5       50.734685      50.734685      50.734685      0.52999999    -485.92596      256.09618     -60.5739      
     49000   24500          336.23925     -207.8782       11815.929      12211.842      6433.5412      5778.3006      3081.7077      3229.0469     -1861.0311      233.24976      1100.6721      3716.543      -3721.8878     -220.24632      130591.5       50.734685      50.734685      50.734685      0.52999999    -1164.6222      534.61304      6.3745392    
     50000   25000          333.13027     -465.51919      11279.279      12165.88       6374.0546      5791.8253      3106.7591      3195.6189     -1847.0951      239.20426      1116.2886      3704.4796     -3723.43       -220.24632      130591.5       50.734685      50.734685      50.734685      0.52999999     528.52236     -1135.1546     -789.92531    
     51000   25500          330.67861      59.430083      12136.911      12023.724      6327.1449      5696.5788      3049.6477      3158.1139     -1849.4557      231.17439      1118.4897      3706.8216     -3718.2128     -220.24632      130591.5       50.734685      50.734685      50.734685      0.52999999    -534.01755     -248.97204      961.27984    
     52000   26000          336.93713      297.68971      12717.048      12150.085      6446.8944      5703.191       3055.6957      3170.256      -1867.8503      231.10245      1134.8158      3702.5319     -3723.3606     -220.24632      130591.5       50.734685      50.734685      50.734685      0.52999999     738.89728     -220.15176      374.32361    
     53000   26500          333.99136     -178.31273      11795.251      12134.855      6390.5305      5744.3248      3124.3115      3138.6835     -1861.3301      224.05453      1133.2804      3705.2045     -3719.8795     -220.24632      130591.5       50.734685      50.734685      50.734685      0.52999999     384.38795     -305.9545      -613.37164    
     54000   27000          336.87934     -293.92891      11579.671      12139.471      6445.7886      5693.6823      3057.5114      3093.2211     -1775.4605      239.4219       1094.9259      3706.495      -3722.4324     -220.24632      130591.5       50.734685      50.734685      50.734685      0.52999999    -256.80931     -586.35017     -38.627263    
     55000   27500          334.45294     -655.10364      11022.274      12269.947      6399.3622      5870.585       3096.9702      3193.767      -1757.5694      236.05945      1111.3844      3714.4547     -3724.4814     -220.24632      130591.5       50.734685      50.734685      50.734685      0.52999999    -343.98887     -674.42085     -946.90118    
     56000   28000          335.0791       204.4254       12622.559      12233.222      6411.343       5821.8788      3025.0803      3250.1889     -1788.8443      240.9211       1111.3396      3706.3443     -3723.1511     -220.24632      130591.5       50.734685      50.734685      50.734685      0.52999999     1.8030769     -52.287913      663.76103    
     57000   28500          339.4309      -467.50917      11444.501      12334.892      6494.6097      5840.2823      3086.5668      3242.8562     -1793.0159      235.40112      1083.5842      3708.6714     -3723.7816     -220.24632      130591.5       50.734685      50.734685      50.734685      0.52999999    -468.28769     -527.4103      -406.82951    
     58000   29000          336.36711     -1293.3625      9769.0503      12232.315      6435.9876      5796.3273      3017.244       3175.258      -1757.9378      243.10513      1127.0137      3713.4089     -3721.7645     -220.24632      130591.5       50.734685      50.734685      50.734685      0.52999999    -1120.7107     -1742.4755     -1016.9014    
     59000   29500          339.01066      269.78403      12912.644      12398.828      6486.5688      5912.2594      3088.888       3202.5276     -1784.6546      244.05355      1166.1904      3717.9619     -3722.7074     -220.24632      130591.5       50.734685      50.734685      50.734685      0.52999999     391.50164      149.75225      268.09821    
     60000   30000          338.10581     -811.10674      10759.18       12303.968      6469.2556      5834.712       3112.7564      3207.5923     -1777.3549      235.7657       1068.2837      3708.4921     -3720.8234     -220.24632      130591.5       50.734685      50.734685      50.734685      0.52999999     452.11105     -1068.4381     -1816.9931    
     61000   30500          340.48409      516.63802      13434.686      12450.727      6514.7612      5935.9659      3148.3641      3203.5693     -1819.3633      237.64471      1174.7234      3713.7674     -3722.7396     -220.24632      130591.5       50.734685      50.734685      50.734685      0.52999999     316.59448     -81.855275      1315.1748    
     62000   31000          338.10701     -350.31665      11622.908      12290.102      6469.2785      5820.8231      3170.782       3165.97       -1878.8263      235.39081      1138.1672      3712.2898     -3722.9504     -220.24632      130591.5       50.734685      50.734685      50.734685      0.52999999    -534.79129     -859.47215      343.31349    
     63000   31500          338.99739     -633.17092      11118.933      12324.835      6486.3149      5838.5197      3110.6668      3214.531      -1829.4896      230.16696      1115.6449      3719.172      -3722.1723     -220.24632      130591.5       50.734685      50.734685      50.734685      0.52999999    -1227.911      -290.12857     -381.47317    
     64000   32000          342.54613     -112.93792      12256.627      12471.722      6554.2159      5917.5062      3163.5847      3257.3477     -1869.7383      238.9831       1138.0093      3711.7226     -3722.4029     -220.24632      130591.5       50.734685      50.734685      50.734685      0.52999999    -366.69289     -363.71708      391.5962     
     65000   32500          344.98165      175.02426      12802.059      12468.717      6600.8167      5867.9006      3172.343       3273.0786     -1912.6647      235.31639      1113.3172      3712.1215     -3725.6115     -220.24632      130591.5       50.734685      50.734685      50.734685      0.52999999     75.742139      375.43655      73.894075    
     66000   33000          342.88483     -239.23961      11940.086      12395.728      6560.6966      5835.0312      3120.176       3242.9594     -1847.8427      236.16559      1107.6165      3702.4877     -3726.5313     -220.24632      130591.5       50.734685      50.734685      50.734685      0.52999999    -686.02885      176.14734     -207.83732    
     67000   33500          351.93947      58.21683       12877.227      12766.35       6733.9463      6032.404       3219.5922      3268.5633     -1802.2024      239.15419      1127.6569      3708.153      -3728.5131     -220.24632      130591.5       50.734685      50.734685      50.734685      0.52999999     176.78718      791.0506      -793.18728    
     68000   34000          341.65656     -1206.2969      10229.679      12527.123      6537.195       5989.9285      3209.2402      3359.3274     -1863.5402      234.34746      1050.69        3721.4896     -3721.626      -220.24632      130591.5       50.734685      50.734685      50.734685      0.52999999    -1409.9882     -508.6404      -1700.2621    
     69000   34500          347.37018     -1013.2018      10714.036      12643.722      6646.5184      5997.2038      3258.8466      3258.6262     -1877.1608      233.78413      1139.6365      3704.5675     -3721.0963     -220.24632      130591.5       50.734685      50.734685      50.734685      0.52999999    -436.96437     -1581.8007     -1020.8405    
     70000   35000          343.29964      282.04217      12954.238      12417.077      6568.6334      5848.4434      3115.3737      3204.2913     -1840.8761      237.45394      1149.2807      3706.1799     -3723.26       -220.24632      130591.5       50.734685      50.734685      50.734685      0.52999999     420.73046      455.90467     -30.508618    
     71000   35500          348.27905      146.20778      12922.957      12644.497      6663.9086      5980.5889      3214.2988      3240.4512     -1818.4234      247.93674      1109.4037      3708.8216     -3721.8997     -220.24632      130591.5       50.734685      50.734685      50.734685      0.52999999     67.884914      294.09028      76.648159    
     72000   36000          352.89716      315.2593       13323.607      12723.182      6752.2706      5970.9111      3152.2693      3247.3785     -1828.0578      244.1543       1158.8104      3714.6948     -3718.3383     -220.24632      130591.5       50.734685      50.734685      50.734685      0.52999999     256.34665     -137.10348      826.53473    
     73000   36500          348.03769     -760.56403      11144.827      12593.354      6659.2905      5934.0634      3163.7939      3162.5862     -1757.1401      243.32861      1128.5037      3712.6993     -3719.7082     -220.24632      130591.5       50.734685      50.734685      50.734685      0.52999999    -1024.7828     -1500.3108      243.4015     
     74000   37000          349.28496     -1199.8776      10589.731      12874.949      6683.1554      6191.7936      3248.9686      3358.8919     -1758.8329      250.12785      1104.731       3712.1758     -3724.2686     -220.24632      130591.5       50.734685      50.734685      50.734685      0.52999999    -1360.8581     -1032.8605     -1205.9141    
     75000   37500          348.53394     -275.04085      12154.041      12677.868      6668.7855      6009.0822      3226.5854      3319.6265     -1878.9557      253.29825      1105.3124      3706.7492     -3723.5338     -220.24632      130591.5       50.734685      50.734685      50.734685      0.52999999     40.900007     -335.48136     -530.5412     
     76000   38000          348.11076      231.77038      13114.893      12673.476      6660.6886      6012.7874      3234.0305      3268.7585     -1836.5073      248.90626      1118.9218      3703.865      -3725.1874     -220.24632      130591.5       50.734685      50.734685      50.734685      0.52999999     133.26094     -77.366257      639.41646    
     77000   38500          356.21282     -99.030409      12752.944      12941.552      6815.712       6125.84        3193.8853      3330.6899     -1771.7027      241.15614      1140.56        3707.922      -3716.6705     -220.24632      130591.5       50.734685      50.734685      50.734685      0.52999999     253.94517     -319.64528     -231.39112    
     78000   39000          353.75962     -420.28741      11901.333      12701.788      6768.7729      5933.0153      3142.3897      3200.8911     -1789.2599      241.66497      1148.187       3709.4808     -3720.3384     -220.24632      130591.5       50.734685      50.734685      50.734685      0.52999999    -409.64937     -342.86185     -508.35102    
     79000   39500          355.31519     -2.3836068      12882.782      12887.322      6798.5369      6088.7849      3354.5347      3219.9895     -1844.9258      249.56015      1130.0797      3703.5246     -3723.9778     -220.24632      130591.5       50.734685      50.734685      50.734685      0.52999999     665.79877     -243.43618     -429.51341    
     80000   40000          346.51835     -526.78439      11635.583      12638.867      6630.2197      6008.6472      3214.6106      3223.6828     -1829.9386      255.16682      1156.6379      3707.4609     -3718.9733     -220.24632      130591.5       50.734685      50.734685      50.734685      0.52999999     89.038225     -927.2251      -742.16628    
     81000   40500          356.5254      -628.98238      11798.935      12996.859      6821.6927      6175.1659      3244.9513      3251.8659     -1730.8678      255.18259      1161.4927      3710.336      -3717.7948     -220.24632      130591.5       50.734685      50.734685      50.734685      0.52999999    -543.41136     -239.80688     -1103.7289    
     82000   41000          350.49839     -1495.2245      9876.3367      12724.056      6706.3731      6017.6831      3248.9793      3207.9208     -1705.7178      247.90597      1047.4734      3694.2911     -3723.1697     -220.24632      130591.5       50.734685      50.734685      50.734685      0.52999999    -2181.9838     -1293.3251     -1010.3647    
     83000   41500          354.53412     -557.95884      11817.376      12880.033      6783.592       6096.441       3235.1826      3278.9397     -1773.3608      250.99938      1110.4107      3715.221      -3720.9515     -220.24632      130591.5       50.734685      50.734685      50.734685      0.52999999    -573.96834     -94.137361     -1005.7708    
     84000   42000          353.28639     -114.05707      12750.166      12967.393      6759.7182      6207.6745      3297.5867      3358.0547     -1790.7927      253.38052      1107.4662      3706.5434     -3724.5644     -220.24632      130591.5       50.734685      50.734685      50.734685      0.52999999     360.63194     -664.81455     -37.98859     
     85000   42500          357.45976     -151.66641      12677.377      12966.232      6839.5706      6126.6618      3254.2143      3292.9289     -1788.3566      248.11184      1141.4766      3704.3741     -3726.0873     -220.24632      130591.5       50.734685      50.734685      50.734685      0.52999999    -189.25841     -516.34457      250.60376    
     86000   43000          356.29591     -407.0853       12145.892      12921.204      6817.3016      6103.9021      3226.3104      3259.2782     -1782.4849      254.49388      1156.3828      3713.7634     -3723.8418     -220.24632      130591.5       50.734685      50.734685      50.734685      0.52999999     172.25371     -789.17032     -604.33931    
     87000   43500          357.03474     -375.68556      12345.762      13061.271      6831.4383      6229.8326      3287.4762      3266.2547     -1725.4469      256.03525      1160.5772      3710.5867     -3725.6506     -220.24632      130591.5       50.734685      50.734685      50.734685      0.52999999    -58.476993     -1285.6163      217.0366     
     88000   44000          359.6889       507.73254      14033.697      13066.698      6882.2226      6184.4759      3361.6233      3260.7509     -1861.7931      243.87585      1200.2548      3702.4798     -3722.7157     -220.24632      130591.5       50.734685      50.734685      50.734685      0.52999999     791.22042      198.37011      533.6071     
     89000   44500          355.18543      1.4593156      12931.108      12928.328      6796.054       6132.2745      3232.1358      3276.3043     -1790.5588      251.19775      1177.9597      3711.9337     -3726.698      -220.24632      130591.5       50.734685      50.734685      50.734685      0.52999999    -151.3042       340.26376     -184.58161    
     90000   45000          361.98332     -31.187723      13099.39       13158.789      6926.1237      6232.665       3319.782       3303.9867     -1795.7693      244.85616      1172.7067      3710.395      -3723.2923     -220.24632      130591.5       50.734685      50.734685      50.734685      0.52999999    -90.669265      76.834848     -79.72875     
     91000   45500          360.27139     -30.695285      13018.38       13076.84       6893.3678      6183.4726      3306.2851      3277.9495     -1769.2676      253.24653      1140.8404      3701.9919     -3727.5733     -220.24632      130591.5       50.734685      50.734685      50.734685      0.52999999    -398.18886      146.43658      159.66643    
     92000   46000          362.7835      -951.07062      11457.067      13268.422      6941.4341      6326.9875      3341.6285      3300.7907     -1683.1998      252.4721       1135.7014      3705.531      -3725.9364     -220.24632      130591.5       50.734685      50.734685      50.734685      0.52999999    -873.47683     -1062.3143     -917.42076    
     93000   46500          364.93932     -647.67496      11973.863      13207.388      6982.6831      6224.7048      3341.4841      3303.8118     -1756.4648      246.21107      1109.9733      3704.0097     -3724.3203     -220.24632      130591.5       50.734685      50.734685      50.734685      0.52999999    -336.66933     -1291.7689     -314.58665    
     94000   47000          357.46254     -1135.3943      10952.22       13114.627      6839.6238      6275.0033      3343.8867      3291.9604     -1703.5521      249.00525      1101.1115      3715.1253     -3722.5338     -220.24632      130591.5       50.734685      50.734685      50.734685      0.52999999    -1897.2965     -923.46685     -585.41957    
     95000   47500          355.94986     -501.74042      12181.3        13136.886      6810.6804      6326.2056      3328.3962      3339.5492     -1722.0585      254.46261      1152.8462      3698.3606     -3725.3506     -220.24632      130591.5       50.734685      50.734685      50.734685      0.52999999    -730.25713     -535.03617     -239.92796    
     96000   48000          368.81875     -236.84204      12792.796      13243.872      7056.9114      6186.9604      3227.8466      3293.4698     -1733.0569      255.40983      1164.9018      3702.1654     -3723.7762     -220.24632      130591.5       50.734685      50.734685      50.734685      0.52999999    -313.468       -531.90018      134.84206    
     97000   48500          365.61938     -183.05393      12881.43       13230.064      6995.6952      6234.3688      3336.4668      3283.7135     -1761.227       253.44644      1133.1292      3716.3179     -3727.478      -220.24632      130591.5       50.734685      50.734685      50.734685      0.52999999    -593.87555      30.916503      13.797243    
     98000   49000          369.70164     -310.65037      12831.06       13422.707      7073.8045      6348.903       3363.1955      3349.0998     -1772.8825      252.22926      1165.2275      3710.827      -3718.7935     -220.24632      130591.5       50.734685      50.734685      50.734685      0.52999999    -1276.8901      458.17907     -113.24008    
     99000   49500          362.8403       384.97659      14065.995      13332.791      6942.5209      6390.2696      3388.1236      3334.0003     -1745.9153      257.76926      1179.2891      3705.3207     -3728.318      -220.24632      130591.5       50.734685      50.734685      50.734685      0.52999999    -89.976945      563.65973      681.247      
    100000   50000          365.67138     -721.31011      11901.405      13275.171      6996.6903      6278.4808      3328.5575      3265.3262     -1702.1478      265.5826       1147.0574      3698.0705     -3723.9655     -220.24632      130591.5       50.734685      50.734685      50.734685      0.52999999     90.830826     -1172.3055     -1082.4556    
    101000   50500          373.56476      888.80901      15219.533      13526.757      7147.7207      6379.0368      3362.5202      3305.9572     -1741.4967      261.89297      1213.4261      3703.78       -3727.043      -220.24632      130591.5       50.734685      50.734685      50.734685      0.52999999     485.80765      1144.8778      1035.7416    
    102000   51000          361.76608      272.25442      13924.848      13406.328      6921.9669      6484.3606      3485.7384      3317.8987     -1766.6926      268.61387      1193.8175      3711.0671     -3726.0824     -220.24632      130591.5       50.734685      50.734685      50.734685      0.52999999     353.9547      -140.98173      603.7903     
    103000   51500          362.88712     -310.85726      12654.547      13246.588      6943.4167      6303.1712      3302.0827      3262.4875     -1666.4844      255.19702      1178.9838      3705.5892     -3734.6846     -220.24632      130591.5       50.734685      50.734685      50.734685      0.52999999    -395.7089      -543.65193      6.7890599    
    104000   52000          372.9661      -1265.6888      11084.888      13495.447      7136.2661      6359.181       3186.9733      3402.6933     -1616.3618      272.12057      1137.1119      3703.6503     -3727.0065     -220.24632      130591.5       50.734685      50.734685      50.734685      0.52999999    -1128.978      -1538.5723     -1129.5161    
    105000   52500          365.80786     -1241.1023      11011.482      13375.215      6999.3016      6375.9134      3327.6064      3309.0642     -1626.7357      260.85229      1140.6114      3691.9911     -3727.4763     -220.24632      130591.5       50.734685      50.734685      50.734685      0.52999999    -1537.9259     -895.37518     -1290.0058    
    106000   53000          372.50413     -658.91577      12275.997      13530.93       7127.4268      6403.5032      3383.1144      3273.2942     -1684.0503      265.70623      1173.5337      3718.033      -3726.1279     -220.24632      130591.5       50.734685      50.734685      50.734685      0.52999999    -434.93602     -119.16773     -1422.6436    
    107000   53500          367.97689     -522.02167      12348.03       13342.243      7040.8034      6301.4392      3322.2133      3249.5388     -1703.224       255.73889      1193.5094      3713.3185     -3729.6557     -220.24632      130591.5       50.734685      50.734685      50.734685      0.52999999    -616.09044     -1069.3969      119.42236    
    108000   54000          364.8193      -94.669226      13301.984      13482.286      6980.3866      6501.8991      3423.056       3308.8586     -1668.8916      265.9574       1194.7879      3703.5005     -3725.3698     -220.24632      130591.5       50.734685      50.734685      50.734685      0.52999999     105.07629      159.66032     -548.74429    
    109000   54500          370.83296     -213.40833      13115.749      13522.195      7095.4511      6426.7436      3385.0443      3334.1239     -1710.0778      258.49637      1192.7219      3700.5151     -3734.0802     -220.24632      130591.5       50.734685      50.734685      50.734685      0.52999999     241.06889     -197.42759     -683.86629    
    110000   55000          381.03724      123.12128      13961.292      13726.802      7290.6978      6436.1045      3404.9698      3299.0608     -1688.2369      254.58143      1200.6154      3696.5407     -3731.4267     -220.24632      130591.5       50.734685      50.734685      50.734685      0.52999999    -504.96564      280.62101      593.70848    
    111000   55500          372.72445     -684.52034      12153.936      13457.635      7131.6425      6325.9921      3260.2288      3280.2037     -1583.0042      271.15247      1132.1274      3699.8374     -3734.5534     -220.24632      130591.5       50.734685      50.734685      50.734685      0.52999999    -792.17013     -764.19997     -497.19094    
    112000   56000          374.87264     -406.02557      12820.73       13594.023      7172.7455      6421.278       3438.452       3388.9286     -1738.6218      259.36968      1105.4575      3699.9737     -3732.2816     -220.24632      130591.5       50.734685      50.734685      50.734685      0.52999999     843.759       -642.44548     -1419.3902    
    113000   56500          371.93925     -190.71857      13113.597      13476.829      7116.6186      6360.2103      3383.0169      3307.7549     -1722.7175      259.10679      1173.8334      3689.6067     -3730.3908     -220.24632      130591.5       50.734685      50.734685      50.734685      0.52999999    -766.56377     -94.617878      289.02594    
    114000   57000          377.00623     -809.45496      12105.396      13647.038      7213.5693      6433.4684      3444.6631      3305.7366     -1661.2072      261.0686       1127.5223      3690.8184     -3735.1334     -220.24632      130591.5       50.734685      50.734685      50.734685      0.52999999    -866.98003     -1063.1824     -498.20247    
    115000   57500          376.4681      -1203.7644      11375.53       13668.151      7203.2727      6464.8784      3449.8634      3346.8883     -1653.9943      255.59059      1107.3853      3691.7135     -3732.5683     -220.24632      130591.5       50.734685      50.734685      50.734685      0.52999999    -871.24494     -1157.5922     -1582.456     
    116000   58000          376.57153     -188.71762      13297.142      13656.563      7205.2517      6451.3116      3339.3847      3285.156      -1651.4415      262.30734      1248.4249      3696.7713     -3729.2912     -220.24632      130591.5       50.734685      50.734685      50.734685      0.52999999     134.42357     -704.19583      3.6194071    
    117000   58500          376.18325     -398.47283      12985.259      13744.168      7197.8225      6546.3452      3359.6727      3390.1769     -1624.8657      262.48551      1196.2704      3696.8411     -3734.2356     -220.24632      130591.5       50.734685      50.734685      50.734685      0.52999999    -572.41016     -14.751195     -608.25714    
    118000   59000          377.2574      -740.04569      12434.749      13844.198      7218.375       6625.8226      3433.9852      3417.5652     -1628.1257      273.51374      1160.0152      3699.5554     -3730.6865     -220.24632      130591.5       50.734685      50.734685      50.734685      0.52999999    -250.52794     -975.83774     -993.77139    
    119000   59500          379.98422     -679.71712      12475.302      13769.852      7270.5495      6499.3026      3339.7545      3323.5945     -1625.9787      256.18117      1237.3961      3699.6915     -3731.3366     -220.24632      130591.5       50.734685      50.734685      50.734685      0.52999999    -1266.8801     -441.28847     -330.98276    
    120000   60000          379.59506      116.84332      13985.048      13762.515      7263.1035      6499.4115      3389.8592      3381.5916     -1689.8081      254.01936      1201.411       3694.5691     -3732.2306     -220.24632      130591.5       50.734685      50.734685      50.734685      0.52999999    -39.901126      687.47131     -297.04022    
    121000   60500          382.94702      276.06122      14372.882      13847.112      7327.2393      6519.8726      3427.8363      3359.1749     -1694.7708      262.43215      1212.6121      3686.0203     -3733.4322     -220.24632      130591.5       50.734685      50.734685      50.734685      0.52999999    -514.21127      1818.6736     -476.2787     
    122000   61000          374.93076     -463.90703      12923.937      13807.468      7173.8575      6633.6107      3411.898       3460.6875     -1651.5384      263.35943      1174.6216      3705.0434     -3730.4607     -220.24632      130591.5       50.734685      50.734685      50.734685      0.52999999    -284.36408     -1499.0889      391.73184    
    123000   61500          378.87986     -371.16217      13020.782      13727.676      7249.419       6478.2572      3461.0204      3384.3912     -1729.7237      255.30578      1132.3858      3706.2794     -3731.4016     -220.24632      130591.5       50.734685      50.734685      50.734685      0.52999999    -130.60317     -258.77558     -724.10776    
    124000   62000          382.42156      119.01834      14065.272      13838.596      7317.1853      6521.411       3482.4986      3308.8625     -1663.7427      251.28169      1181.585       3693.4522     -3732.5261     -220.24632      130591.5       50.734685      50.734685      50.734685      0.52999999     15.024196      318.54136      23.489458    
    125000   62500          379.6876      -89.226365      13687.498      13857.434      7264.874       6592.5595      3459.9608      3408.8319     -1680.6389      259.52862      1170.3896      3702.7313     -3728.2439     -220.24632      130591.5       50.734685      50.734685      50.734685      0.52999999    -97.534593      175.34157     -345.48607    
    126000   63000          378.05189     -22.509171      13787.85       13830.719      7233.5767      6597.1427      3448.4737      3390.0786     -1652.1411      270.02571      1167.053       3704.1169     -3730.4642     -220.24632      130591.5       50.734685      50.734685      50.734685      0.52999999     299.1655      -212.66165     -154.03137    
    127000   63500          389.08676      348.75635      14748.957      14084.735      7444.716       6640.0191      3444.296       3408.3115     -1666.6474      273.22644      1221.2822      3691.2141     -3731.6637     -220.24632      130591.5       50.734685      50.734685      50.734685      0.52999999    -739.97177      1900.7236     -114.4828     
    128000   64000          385.61559     -704.90544      12643.393      13985.916      7378.2991      6607.6166      3392.7195      3417.6523     -1603.9464      257.83123      1179.2121      3696.6403     -3732.4924     -220.24632      130591.5       50.734685      50.734685      50.734685      0.52999999    -1623.1425     -879.78222      388.2084     
    129000   64500          389.09342      37.205232      14082.855      14011.996      7444.8433      6567.1524      3459.1922      3317.2665     -1633.4283      265.04674      1189.0639      3697.6661     -3727.6546     -220.24632      130591.5       50.734685      50.734685      50.734685      0.52999999     276.75666      784.07438     -949.21535    
    130000   65000          384.35208     -153.52793      13578.708      13871.108      7354.1235      6516.9848      3468.5919      3347.3182     -1717.483       258.60347      1193.5251      3694.0453     -3727.6161     -220.24632      130591.5       50.734685      50.734685      50.734685      0.52999999    -98.909049     -147.1195      -214.55523    
    131000   65500          393.12055     -434.81861      13330.68       14158.811      7521.8977      6636.9132      3480.9185      3381.8282     -1679.8207      254.92984      1235.194       3691.8904     -3728.0269     -220.24632      130591.5       50.734685      50.734685      50.734685      0.52999999     3.5974488     -354.63234     -953.42095    
    132000   66000          387.17249     -241.59209      13557.765      14017.888      7408.0887      6609.799       3487.0963      3320.2918     -1650.9729      268.35825      1216.2976      3697.4502     -3728.7224     -220.24632      130591.5       50.734685      50.734685      50.734685      0.52999999    -393.83384     -330.48467     -0.45776247   
    133000   66500          382.17221     -1526.5875      11003.938      13911.39       7312.4142      6598.9755      3404.2932      3385.6214     -1581.9753      259.69876      1177.6545      3687.0034     -3733.3205     -220.24632      130591.5       50.734685      50.734685      50.734685      0.52999999    -1207.4689     -2024.1385     -1348.1551    
    134000   67000          389.64282     -527.73695      13130.447      14135.544      7455.3554      6680.189       3489.1145      3381.1128     -1629.6086      260.81878      1213.2528      3694.815      -3729.3162     -220.24632      130591.5       50.734685      50.734685      50.734685      0.52999999     123.05585     -998.68971     -707.577      
    135000   67500          388.11198      587.80635      15394.021      14274.518      7426.0646      6848.4534      3540.0321      3505.3045     -1643.6251      270.63844      1218.7472      3687.973      -3730.6166     -220.24632      130591.5       50.734685      50.734685      50.734685      0.52999999    -356.31283      1749.0747      370.65724    
    136000   68000          390.12144     -257.30527      13662.56       14152.609      7464.5132      6688.0961      3464.481       3361.7863     -1589.7958      276.59415      1215.9402      3693.5146     -3734.4243     -220.24632      130591.5       50.734685      50.734685      50.734685      0.52999999     317.20035     -740.25324     -348.86292    
    137000   68500          397.40276     -197.93489      13945.728      14322.703      7603.8328      6718.8703      3508.6457      3446.7355     -1630.3425      270.71228      1158.6085      3696.7153     -3732.2044     -220.24632      130591.5       50.734685      50.734685      50.734685      0.52999999     22.341331      284.15672     -900.3027     
    138000   69000          391.32568      249.94179      14788.559      14312.534      7487.555       6824.9791      3509.9185      3408.1311     -1579.136       279.89807      1240.6157      3697.2746     -3731.7229     -220.24632      130591.5       50.734685      50.734685      50.734685      0.52999999     140.46844      1092.5455     -483.18853    
    139000   69500          389.08933     -708.10704      12788.688      14137.308      7444.765       6692.5432      3509.0992      3432.958      -1634.495       259.20769      1150.5789      3702.6047     -3727.4102     -220.24632      130591.5       50.734685      50.734685      50.734685      0.52999999    -671.03425     -579.31605     -873.97082    
    140000   70000          390.72452      392.71605      15089.935      14341.99       7476.0526      6865.9375      3512.8128      3494.7061     -1628.8366      255.30145      1261.6491      3699.0547     -3728.7502     -220.24632      130591.5       50.734685      50.734685      50.734685      0.52999999     243.10718      754.73633      180.30464    
    141000   70500          392.88421     -570.46699      13168.912      14255.391      7517.3756      6738.0153      3554.0243      3454.7996     -1690.7936      256.56108      1199.2889      3699.8691     -3735.7341     -220.24632      130591.5       50.734685      50.734685      50.734685      0.52999999    -572.47679     -803.40401     -335.52018    
    142000   71000          395.62878     -413.88759      13487.763      14276.03       7569.8897      6706.14        3458.3055      3482.2674     -1646.8716      265.33183      1185.2272      3696.0733     -3734.1935     -220.24632      130591.5       50.734685      50.734685      50.734685      0.52999999    -230.87384     -1012.7872      1.998275     
    143000   71500          403.43647     -156.19443      14233.159      14530.638      7719.2808      6811.3574      3595.8284      3418.1752     -1654.5024      265.24826      1198.7395      3709.9465     -3722.078      -220.24632      130591.5       50.734685      50.734685      50.734685      0.52999999     559.78832     -507.78161     -520.59       
    144000   72000          395.37398      112.2376       14583.227      14369.466      7565.0144      6804.4517      3543.4084      3430.1082     -1652.8544      269.11202      1226.8214      3710.0717     -3722.2157     -220.24632      130591.5       50.734685      50.734685      50.734685      0.52999999    -464.56966      189.54569      611.73678    
    145000   72500          395.65333     -673.35174      13089.331      14371.758      7570.3595      6801.3986      3516.1742      3428.2039     -1569.5781      268.73034      1185.0368      3701.7476     -3728.9161     -220.24632      130591.5       50.734685      50.734685      50.734685      0.52999999    -1033.7283     -154.51028     -831.81666    
    146000   73000          397.98037      322.40018      14929.497      14315.472      7614.8846      6700.5876      3506.0523      3387.1178     -1630.0189      269.8258       1194.9013      3705.3836     -3732.6743     -220.24632      130591.5       50.734685      50.734685      50.734685      0.52999999    -233.17516      1175.5381      24.83762     
    147000   73500          398.41154      32.898589      14594.529      14531.872      7623.1346      6908.7374      3590.6451      3465.7937     -1634.8818      268.58183      1245.8779      3703.5558     -3730.8353     -220.24632      130591.5       50.734685      50.734685      50.734685      0.52999999    -67.788113     -506.51809      673.00197    
    148000   74000          396.71421      1099.5635      16488.205      14394.039      7590.6582      6803.3804      3575.9749      3437.5225     -1718.3463      271.83137      1268.8074      3700.2827     -3732.6922     -220.24632      130591.5       50.734685      50.734685      50.734685      0.52999999     1194.008       1402.3573      702.32533    
    149000   74500          396.97347     -795.68245      12932.616      14448.028      7595.6188      6852.4089      3495.3829      3429.9732     -1513.7263      282.91665      1197.2302      3695.5931     -3734.9608     -220.24632      130591.5       50.734685      50.734685      50.734685      0.52999999    -522.69593     -1375.8995     -488.45195    
    150000   75000          398.93305     -143.60105      14104.245      14377.739      7633.113       6744.6259      3459.2311      3446.143      -1613.6584      259.60583      1216.4334      3711.5525     -3734.6815     -220.24632      130591.5       50.734685      50.734685      50.734685      0.52999999     192.68621     -166.87502     -456.61435    
[...]
    455000   227500         603.76021     -208.64535      22069.471      22466.845      11552.239      10914.606      4942.1951      4611.3168     -772.00507      400.72175      1733.0126      3703.754      -3704.3889     -220.24632      130591.5       50.734685      50.734685      50.734685      0.52999999     865.14562     -364.55891     -1126.5228    
    456000   228000         607.97783     -758.63285      20945.233      22390.082      11632.938      10757.143      4982.7687      4573.1337     -940.95936      380.20009      1769.0805      3702.3028     -3709.3831     -220.24632      130591.5       50.734685      50.734685      50.734685      0.52999999    -2264.7229      273.18728     -284.3629     
    457000   228500         594.79284     -592.52289      21068.053      22196.539      11380.659      10815.88       5190.227       4424.3985     -861.87685      396.13971      1678.4971      3694.9187     -3706.4245     -220.24632      130591.5       50.734685      50.734685      50.734685      0.52999999    -1035.0262     -403.35074     -339.19173    
    458000   229000         601.59724     -395.26081      21581.399      22334.19       11510.853      10823.337      5068.5924      4505.227      -856.38447      392.5188       1731.5713      3695.2309     -3713.4186     -220.24632      130591.5       50.734685      50.734685      50.734685      0.52999999    -1300.6859      25.273872      89.62955     
    459000   229500         602.90518      313.73173      23074.903      22477.387      11535.879      10941.508      5120.3754      4502.099      -807.74513      390.24194      1758.1056      3691.6215     -3713.1904     -220.24632      130591.5       50.734685      50.734685      50.734685      0.52999999    -374.67975      522.04381      793.83113    
    460000   230000         609.80041     -504.05187      21616.631      22576.62       11667.811      10908.809      5183.0137      4561.9213     -933.16573      395.06708      1702.1017      3711.1735     -3711.3026     -220.24632      130591.5       50.734685      50.734685      50.734685      0.52999999     355.47628     -2037.4557      169.82385    
    461000   230500         602.98784      280.93263      22911.483      22376.434      11537.461      10838.974      5100.7278      4543.1804     -935.37071      377.00941      1766.1206      3694.2114     -3706.905      -220.24632      130591.5       50.734685      50.734685      50.734685      0.52999999    -604.87768      903.2508       544.42477    
    462000   231000         609.08349     -110.32748      22393.215      22603.338      11654.094      10949.245      5078.7114      4604.8897     -888.52837      395.99412      1773.0602      3692.19       -3707.0725     -220.24632      130591.5       50.734685      50.734685      50.734685      0.52999999     512.52059      434.31564     -1277.8187    
    463000   231500         593.794       -1639.0272      19372.45       22494.048      11361.547      11132.501      5135.2105      4554.3728     -666.0678       413.45711      1727.8795      3677.8615     -3710.2132     -220.24632      130591.5       50.734685      50.734685      50.734685      0.52999999    -690.92629     -3454.7531     -771.4021     
    464000   232000         593.6171      -914.23226      20578.33       22319.525      11358.163      10961.362      5167.7524      4620.6616     -845.0156       405.64446      1635.8943      3687.722      -3711.2973     -220.24632      130591.5       50.734685      50.734685      50.734685      0.52999999    -1929.1757     -363.22848     -450.29258    
    465000   232500         611.07711     -882.40133      20923.128      22603.699      11692.239      10911.46       5084.6687      4527.9889     -806.07213      397.13562      1724.2273      3693.2618     -3709.7501     -220.24632      130591.5       50.734685      50.734685      50.734685      0.52999999    -1133.4955     -281.59812     -1232.1104    
    466000   233000         613.98965     -336.32852      22153.068      22793.62       11747.967      11045.653      5129.1409      4640.0178     -832.09117      404.48883      1724.9183      3690.6753     -3711.4969     -220.24632      130591.5       50.734685      50.734685      50.734685      0.52999999    -454.77569      38.398194     -592.60806    
    467000   233500         617.76216     -355.09887      22160.978      22837.279      11820.15       11017.13       5171.7051      4590.2396     -876.97771      404.34924      1747.9109      3691.758      -3711.8556     -220.24632      130591.5       50.734685      50.734685      50.734685      0.52999999    -1036.3116     -1801.4954      1772.5104    
    468000   234000         605.92042      882.48897      24118.373      22437.635      11593.572      10844.063      5146.9684      4547.3083     -922.5911       382.72426      1719.3736      3683.5853     -3713.306      -220.24632      130591.5       50.734685      50.734685      50.734685      0.52999999     1358.804       634.94672      653.71615    
    469000   234500         600.23338     -12.613104      22540.687      22564.71       11484.757      11079.952      5114.4342      4638.2738     -794.97564      392.253        1755.9376      3685.6804     -3711.6512     -220.24632      130591.5       50.734685      50.734685      50.734685      0.52999999    -502.79994      932.59458     -467.63396    
    470000   235000         614.06226     -652.16633      21613.493      22855.572      11749.357      11106.216      5053.5387      4622.168      -728.80861      423.57784      1748.1792      3700.1402     -3712.5797     -220.24632      130591.5       50.734685      50.734685      50.734685      0.52999999    -298.44298     -511.42915     -1146.6268    
    471000   235500         616.23648     -501.60815      21675.134      22630.468      11790.958      10839.51       4967.0555      4557.2974     -800.13467      394.60708      1748.9652      3689.3899     -3717.6702     -220.24632      130591.5       50.734685      50.734685      50.734685      0.52999999    -688.60605     -355.39247     -460.82592    
    472000   236000         617.35111     -774.57791      21459.48       22934.697      11812.285      11122.412      5123.9272      4686.7239     -732.03575      410.04355      1663.2708      3691.8912     -3721.4093     -220.24632      130591.5       50.734685      50.734685      50.734685      0.52999999    -309.62082     -470.52897     -1543.5839    
    473000   236500         617.63407     -202.56775      22461.4        22847.199      11817.699      11029.5        5166.9485      4617.7484     -810.70885      402.8507       1681.5966      3688.3245     -3717.2597     -220.24632      130591.5       50.734685      50.734685      50.734685      0.52999999    -51.636479     -489.71015     -66.356614    
    474000   237000         608.09448     -1150.3445      20519.467      22710.347      11635.17       11075.177      5143.7394      4537.5485     -683.55866      412.47243      1698.0486      3688.3256     -3721.3989     -220.24632      130591.5       50.734685      50.734685      50.734685      0.52999999    -1472.4013     -920.19014     -1058.4421    
    475000   237500         613.81079      4.1207268      22785.397      22777.549      11744.545      11033.004      5087.7993      4610.714      -841.38041      402.17978      1807.0499      3687.2385     -3720.597      -220.24632      130591.5       50.734685      50.734685      50.734685      0.52999999     312.79688      104.49424     -404.92894    
    476000   238000         620.03482      144.49682      23206.699      22931.499      11863.635      11067.864      5044.7159      4610.4226     -781.00022      401.04649      1815.8596      3688.4023     -3711.5825     -220.24632      130591.5       50.734685      50.734685      50.734685      0.52999999    -83.201862      1479.5795     -962.88716    
    477000   238500         622.36528     -485.38865      22150.64       23075.084      11908.225      11166.859      5077.1806      4626.5546     -731.08349      412.06804      1813.296       3680.7892     -3711.9464     -220.24632      130591.5       50.734685      50.734685      50.734685      0.52999999    -418.03517     -32.184476     -1005.9463    
    478000   239000         610.59545     -1250.6127      20267.435      22649.281      11683.023      10966.258      5039.5307      4586.2853     -783.7848       392.6204       1764.1912      3678.7612     -3711.3462     -220.24632      130591.5       50.734685      50.734685      50.734685      0.52999999    -812.6219      -1780.3457     -1158.8704    
    479000   239500         613.60652     -347.03973      22269.943      22930.895      11740.637      11190.259      5203.8884      4672.4733     -820.72046      411.63046      1762.7707      3677.8951     -3717.6788     -220.24632      130591.5       50.734685      50.734685      50.734685      0.52999999    -566.95578      397.34772     -871.51112    
    480000   240000         605.6891       315.59661      23376.184      22775.117      11589.146      11185.971      5186.9133      4589.9739     -831.96234      405.721        1843.4216      3702.0128     -3710.1092     -220.24632      130591.5       50.734685      50.734685      50.734685      0.52999999     1321.5081      41.143717     -415.86199    
    481000   240500         622.61311      922.2316       24842.152      23085.722      11912.967      11172.755      5084.4108      4717.1885     -860.52677      408.46513      1841.8142      3689.261      -3707.8574     -220.24632      130591.5       50.734685      50.734685      50.734685      0.52999999     1660.1277      343.77692      762.79023    
    482000   241000         619.81663     -1370.3629      20660.756      23270.671      11859.46       11411.212      5176.2767      4682.5001     -643.11458      441.92488      1775.4327      3693.3963     -3715.2044     -220.24632      130591.5       50.734685      50.734685      50.734685      0.52999999    -49.784692     -2334.7858     -1726.5183    
    483000   241500         611.00623     -799.00779      21436.923      22958.668      11690.883      11267.785      5205.9004      4651.4068     -733.79609      404.38421      1766.1863      3691.0597     -3717.3564     -220.24632      130591.5       50.734685      50.734685      50.734685      0.52999999    -1005.4572      407.25092     -1798.8171    
    484000   242000         611.39954     -355.22633      22541.381      23217.925      11698.408      11519.517      5203.845       4853.2499     -713.7295       426.54873      1789.0619      3681.1565     -3720.6158     -220.24632      130591.5       50.734685      50.734685      50.734685      0.52999999     1028.1076     -1918.714      -175.07257    
    485000   242500         620.17824     -406.65771      21989.677      22764.174      11866.379      10897.795      4953.2061      4524.3013     -727.108        399.80806      1778.4252      3686.0457     -3716.8827     -220.24632      130591.5       50.734685      50.734685      50.734685      0.52999999    -1324.5387      700.81011     -596.24456    
    486000   243000         611.77481     -1527.7093      20144.247      23053.835      11705.589      11348.246      5195.0059      4742.4554     -715.58471      431.80473      1725.2717      3684.0796     -3714.7865     -220.24632      130591.5       50.734685      50.734685      50.734685      0.52999999    -2500.533      -1520.3702     -562.22481    
    487000   243500         618.44392     -163.04144      22777.617      23088.137      11833.194      11254.942      5150.5219      4725.574      -745.04006      426.11143      1728.1387      3683.2042     -3713.5682     -220.24632      130591.5       50.734685      50.734685      50.734685      0.52999999    -617.52588     -686.88814      815.28969    
    488000   244000         615.83146     -1251.5273      20558.863      22942.451      11783.208      11159.242      5101.1932      4618.443      -648.24721      417.9056       1698.5032      3683.2025     -3711.7579     -220.24632      130591.5       50.734685      50.734685      50.734685      0.52999999    -1773.7542     -480.98995     -1499.8378    
    489000   244500         617.67145     -488.60627      22004.673      22935.244      11818.414      11116.83       5057.4823      4670.8211     -726.55854      411.23422      1735.5249      3679.4988     -3711.1727     -220.24632      130591.5       50.734685      50.734685      50.734685      0.52999999     454.82994     -1305.8603     -614.78849    
    490000   245000         626.65654     -357.33376      22503.768      23184.325      11990.333      11193.992      5116.9929      4648.8315     -763.33448      419.43907      1785.1993      3698.1165     -3711.2528     -220.24632      130591.5       50.734685      50.734685      50.734685      0.52999999    -223.35568     -1669.2206      820.57499    
    491000   245500         618.46456     -1080.3971      20951.899      23009.562      11833.589      11175.973      4985.953       4628.6018     -645.10786      414.40153      1796.7983      3700.2542     -3704.9283     -220.24632      130591.5       50.734685      50.734685      50.734685      0.52999999    -2306.427      -351.14391     -583.62045    
    492000   246000         631.06571     -208.59147      22844.62       23241.891      12074.697      11167.194      5176.0088      4572.2804     -723.36276      407.40575      1767.2419      3683.948      -3716.3282     -220.24632      130591.5       50.734685      50.734685      50.734685      0.52999999     251.80397     -496.3957      -381.18267    
    493000   246500         630.54635     -339.66495      22961.397      23608.303      12064.76       11543.543      5357.5237      4796.9518     -797.5256       416.71448      1786.6805      3695.2913     -3712.0933     -220.24632      130591.5       50.734685      50.734685      50.734685      0.52999999     165.21092     -667.29437     -516.9114     
    494000   247000         629.43269     -206.95007      23021.124      23415.27       12043.452      11371.818      5211.4516      4725.9341     -768.25969      414.6152       1816.5363      3681.0229     -3709.4823     -220.24632      130591.5       50.734685      50.734685      50.734685      0.52999999    -102.18029      543.08462     -1061.7546    
    495000   247500         627.16446     -249.1596       22989.889      23464.424      12000.052      11464.372      5261.8785      4711.5843     -755.01611      421.95185      1868.1385      3673.0839     -3717.249      -220.24632      130591.5       50.734685      50.734685      50.734685      0.52999999     372.47421     -1399.8027      279.84967    
    496000   248000         637.65903      77.590405      23631.793      23484.019      12200.853      11283.166      5207.714       4623.9567     -779.19499      410.84355      1842.9248      3684.9774     -3708.0556     -220.24632      130591.5       50.734685      50.734685      50.734685      0.52999999    -63.562816      858.98338     -562.64935    
    497000   248500         628.67272      163.17914      23753.822      23443.04       12028.91       11414.13       5176.1139      4643.4231     -653.55347      435.5915       1831.5486      3689.4837     -3708.4775     -220.24632      130591.5       50.734685      50.734685      50.734685      0.52999999     360.70262      18.409888      110.4249     
    498000   249000         627.76322     -1152.9472      21133.698      23329.535      12011.508      11318.027      5171.1197      4731.2891     -727.69915      402.51776      1757.4067      3690.3996     -3707.0066     -220.24632      130591.5       50.734685      50.734685      50.734685      0.52999999    -1115.5015     -2396.2231      52.883041    
    499000   249500         632.23238     -257.28451      23116.375      23606.385      12097.02       11509.364      5240.8835      4730.5053     -694.58326      436.49103      1816.1612      3689.6522     -3709.7458     -220.24632      130591.5       50.734685      50.734685      50.734685      0.52999999     216.44336     -477.53929     -510.7576     
    500000   250000         625.87923     -1518.7027      20470.5        23362.935      11975.46       11387.474      5238.5697      4717.6483     -729.49714      423.45649      1775.079       3678.2393     -3716.0215     -220.24632      130591.5       50.734685      50.734685      50.734685      0.52999999    -2524.2964     -538.96957     -1492.8422    
Loop time of 734.275 on 1 procs for 500000 steps with 6420 atoms

Performance: 29.417 ns/day, 0.816 hours/ns, 680.944 timesteps/s, 4.372 Matom-step/s
99.9% CPU use with 1 MPI tasks x 1 OpenMP threads

MPI task timing breakdown:
Section |  min time  |  avg time  |  max time  |%varavg| %total
---------------------------------------------------------------
Pair    | 6.8214     | 6.8214     | 6.8214     |   0.0 |  0.93
Bond    | 127.17     | 127.17     | 127.17     |   0.0 | 17.32
Kspace  | 462.09     | 462.09     | 462.09     |   0.0 | 62.93
Neigh   | 40.109     | 40.109     | 40.109     |   0.0 |  5.46
Comm    | 9.8606     | 9.8606     | 9.8606     |   0.0 |  1.34
Output  | 4.6921     | 4.6921     | 4.6921     |   0.0 |  0.64
Modify  | 67.362     | 67.362     | 67.362     |   0.0 |  9.17
Other   |            | 16.16      |            |       |  2.20

Nlocal:           6420 ave        6420 max        6420 min
Histogram: 1 0 0 0 0 0 0 0 0 0
Nghost:          13684 ave       13684 max       13684 min
Histogram: 1 0 0 0 0 0 0 0 0 0
Neighs:              0 ave           0 max           0 min
Histogram: 1 0 0 0 0 0 0 0 0 0
FullNghs:  2.30198e+06 ave 2.30198e+06 max 2.30198e+06 min
Histogram: 1 0 0 0 0 0 0 0 0 0

Total # of neighbors = 2301980
Ave neighs/atom = 358.56386
Ave special neighs/atom = 5.8598131
Neighbor list builds = 11832
Dangerous builds = 0

# --- Cleanup ---
unfix nvt_fix

undump dump_nvt

# --- Write Output ---
write_dump all custom nvt_softheat_last.dump id type mol x y z xu yu zu vx vy vz modify sort id
write_data /home/alexzhao/PolyJarvis/data/PS3/lammps/equil/nvt_softheat/nvt_softheat_out.data
System init for write_data ...
PPPM Kokkos initialization ...
  using 12-bit tables for long-range coulomb
  G vector (1/distance) = 0.29040648
  grid = 32 32 32
  stencil order = 5
  estimated absolute RMS force accuracy = 0.00037971678
  estimated relative force accuracy = 1.1435058e-06
  using double precision cuFFT
  3d grid and FFT values/proc = 59319 32768
Generated 6 of 6 mixed pair_coeff terms from sixthpower/sixthpower mixing rule

print "STAGE COMPLETE: NVT T=300.0->630.0K steps=500000"
STAGE COMPLETE: NVT T=300.0->630.0K steps=500000
quit
16.16      |            |       |  2.20

Nlocal:           6420 ave        6420 max        6420 min
Histogram: 1 0 0 0 0 0 0 0 0 0
Nghost:          13684 ave       13684 max       13684 min
Histogram: 1 0 0 0 0 0 0 0 0 0
Neighs:              0 ave           0 max           0 min
Histogram: 1 0 0 0 0 0 0 0 0 0
FullNghs:  2.30198e+06 ave 2.30198e+06 max 2.30198e+06 min
Histogram: 1 0 0 0 0 0 0 0 0 0

Total # of neighbors = 2301980
Ave neighs/atom = 358.56386
Ave special neighs/atom = 5.8598131
Neighbor list builds = 11832
Dangerous builds = 0
System init for write_data ...
PPPM Kokkos initialization ...
  using 12-bit tables for long-range coulomb
  G vector (1/distance) = 0.29040648
  grid = 32 32 32
  stencil order = 5
  estimated absolute RMS force accuracy = 0.00037971678
  estimated relative force accuracy = 1.1435058e-06
  using double precision cuFFT
  3d grid and FFT values/proc = 59319 32768
Generated 6 of 6 mixed pair_coeff terms from sixthpower/sixthpower mixing rule
STAGE COMPLETE: NVT T=300.0->630.0K steps=500000
