units real
atom_style full
boundary p p p

# --- Force Field Styles ---
pair_style lj/class2/coul/long 9.5 9.5
kspace_style pppm 1e-6
dielectric 1.000000
bond_style class2
angle_style class2
dihedral_style class2
improper_style class2
special_bonds lj/coul 0 0 1
pair_modify mix sixthpower tail yes
neighbor 2.0 bin
neigh_modify delay 0 every 1 check yes
neigh_modify one 4000
# KOKKOS: package loaded via -pk kokkos on the command line

read_data /home/alexzhao/PolyJarvis/data/PMMA4/lammps/equil/npt_extend/npt_extend_out.data
Reading data file ...
  orthogonal box = (4.8465158 4.8465158 4.8465158) to (46.904482 46.904482 46.904482)
  1 by 1 by 1 MPI processor grid
  reading atoms ...
  7520 atoms
  reading velocities ...
  7520 velocities
  scanning bonds ...
  4 = max bonds/atom
  scanning angles ...
  17 = max angles/atom
  scanning dihedrals ...
  40 = max dihedrals/atom
  scanning impropers ...
  14 = max impropers/atom
  orthogonal box = (4.8465158 4.8465158 4.8465158) to (46.904482 46.904482 46.904482)
  1 by 1 by 1 MPI processor grid
  reading bonds ...
  7510 bonds
  reading angles ...
  14000 angles
  reading dihedrals ...
  18910 dihedrals
  reading impropers ...
  8500 impropers
Finding 1-2 1-3 1-4 neighbors ...
  special bond factors lj:    0        0        1       
  special bond factors coul:  0        0        1       
     4 = max # of 1-2 neighbors
    11 = max # of 1-3 neighbors
    15 = max # of special neighbors
  special bonds CPU = 0.006 seconds
  read_data CPU = 0.430 seconds
include /home/alexzhao/PolyJarvis/data/PMMA4/lammps/cell/emc_build.params
# LAMMPS parameters created by EMC v9.4.4, build Jul 31 2025 20:33:44

# Variables

variable	seed		index	734812
variable	ntotal		index	7520
variable	fshape		index	1
variable	output		index	emc_build
variable	field		index	pcff/pcff
variable	location1	index	~/emc/field/
variable	nav		index	0.6022141179
variable	temperature	index	300
variable	radius		index	5
variable	nrelax		index	100
variable	weight_nonbond	index	0.0001
variable	weight_bond	index	0.0001
variable	weight_focus	index	1
variable	cutoff		index	9.5
variable	charge_cutoff	index	9.5
variable	kappa		index	4
variable	density1	index	0.6
variable	lprevious	index	0
variable	lphase		index	51.7509981335
variable	f_poly		index	10
variable	chem_repeat	index	*CC(C)(C(=O)OC)*
variable	chem_cap	index	*[H]
variable	lg_repeat	index	15
variable	lg_cap		index	1
variable	norm_poly	index	100
variable	l_poly		index	752
variable	mg_repeat	index	88.10716
variable	mg_cap		index	1.00797
variable	m_poly		index	4407.37394
variable	n_poly		index	10
variable	mtotal		index	50079.3144
variable	nphase1		index	7520
variable	mphase1		index	50079.3144
variable	vphase1		index	138597.753721
variable	lbox		index	51.7509981335
variable	lphase1		index	51.7509981335
variable	lxx		index	51.7509981335
variable	lyy		index	51.7509981335
variable	lzz		index	51.7509981335
variable	lzy		index	0
variable	lzx		index	0
variable	lyx		index	0
variable	vtotal		index	138597.753721
variable	nl_poly		index	10

# Types

variable	type_c		index	1
variable	type_c1		index	2
variable	type_c_1	index	3
variable	type_hc		index	4
variable	type_o_1	index	5
variable	type_o_2	index	6

variable	type_bond_c_c	index	1
variable	type_bond_c_c1	index	2
variable	type_bond_c_c_1	index	3
variable	type_bond_c_hc	index	4
variable	type_bond_c_o_2	index	5
variable	type_bond_c1_c_1 index	6
variable	type_bond_c1_hc	index	7
variable	type_bond_c_1_o_1 index	8
variable	type_bond_c_1_o_2 index	9

variable	type_angle_c_c_c index	1
variable	type_angle_c_c_c1 index	2
variable	type_angle_c_c_c_1 index	3
variable	type_angle_c_c_hc index	4
variable	type_angle_c_c1_c index	5
variable	type_angle_c_c1_c_1 index	6
variable	type_angle_c_c1_hc index	7
variable	type_angle_c_c_1_o_1 index	8
variable	type_angle_c_c_1_o_2 index	9
variable	type_angle_c_o_2_c_1 index	10
variable	type_angle_c1_c_hc index	11
variable	type_angle_c1_c_1_o_1 index	12
variable	type_angle_c1_c_1_o_2 index	13
variable	type_angle_c_1_c1_hc index	14
variable	type_angle_hc_c_hc index	15
variable	type_angle_hc_c_o_2 index	16
variable	type_angle_o_1_c_1_o_2 index	17

# Clusters

variable	n0_poly		index	1
variable	n1_poly		index	10
variable	nl_poly		index	10

# Flags

variable	flag_charged	index	1

# Masses

mass		1    12.01115  # c
mass		2    12.01115  # c1
mass		3    12.01115  # c_1
mass		4     1.00797  # hc
mass		5    15.99940  # o_1
mass		6    15.99940  # o_2

# Potentials

pair_modify	mix sixthpower tail yes
special_bonds	lj/coul 0 0 1

# Pair Coeffs

pair_coeff	 1  1    0.05400    4.01000  # c,c
pair_coeff	 2  2    0.05400    4.01000  # c1,c1
pair_coeff	 3  3    0.12000    3.81000  # c_1,c_1
pair_coeff	 4  4    0.02000    2.99500  # hc,hc
pair_coeff	 5  5    0.26700    3.30000  # o_1,o_1
pair_coeff	 6  6    0.24000    3.42000  # o_2,o_2

# Bond Coeffs

bond_coeff	1    1.53000  299.67000 -501.77000  679.81000  # c,c
bond_coeff	2    1.53000  299.67000 -501.77000  679.81000  # c,c1
bond_coeff	3    1.52020  253.70670 -423.03700  396.90000  # c,c_1
bond_coeff	4    1.10100  345.00000 -691.89000  844.60000  # c,hc
bond_coeff	5    1.43000  326.72730 -608.53060  689.03330  # c,o_2
bond_coeff	6    1.52020  253.70670 -423.03700  396.90000  # c1,c_1
bond_coeff	7    1.10100  345.00000 -691.89000  844.60000  # c1,hc
bond_coeff	8    1.20200  851.14030 -1918.48820 2160.76590  # c_1,o_1
bond_coeff	9    1.36830  367.14810 -794.79080 1055.23190  # c_1,o_2

# Angle Coeffs

angle_coeff	 1  112.67000   39.51600   -7.44300   -9.55830  # c,c,c
angle_coeff	 2  112.67000   39.51600   -7.44300   -9.55830  # c,c,c1
angle_coeff	 3  108.52950   51.97470   -9.48510  -10.99850  # c,c,c_1
angle_coeff	 4  110.77000   41.45300  -10.60400    5.12900  # c,c,hc
angle_coeff	 5  112.67000   39.51600   -7.44300   -9.55830  # c,c1,c
angle_coeff	 6  108.52950   51.97470   -9.48510  -10.99850  # c,c1,c_1
angle_coeff	 7  110.77000   41.45300  -10.60400    5.12900  # c,c1,hc
angle_coeff	 8  123.14510   55.54310  -17.21230    0.13480  # c,c_1,o_1
angle_coeff	 9  100.31820   38.86310   -3.83230   -7.98020  # c,c_1,o_2
angle_coeff	10  113.28800   61.28680  -28.97860    7.99290  # c,o_2,c_1
angle_coeff	11  110.77000   41.45300  -10.60400    5.12900  # c1,c,hc
angle_coeff	12  123.14510   55.54310  -17.21230    0.13480  # c1,c_1,o_1
angle_coeff	13  100.31820   38.86310   -3.83230   -7.98020  # c1,c_1,o_2
angle_coeff	14  107.73360   40.60990  -28.81210    0.00000  # c_1,c1,hc
angle_coeff	15  107.66000   39.64100  -12.92100   -2.43180  # hc,c,hc
angle_coeff	16  107.68800   65.48010  -10.34980    5.88660  # hc,c,o_2
angle_coeff	17  120.79700   95.34460  -32.28690    6.37780  # o_1,c_1,o_2

# BondBond Coeffs

angle_coeff	 1 bb    0.00000    1.53000    1.53000  # c,c,c
angle_coeff	 2 bb    0.00000    1.53000    1.53000  # c,c,c1
angle_coeff	 3 bb    5.41990    1.53000    1.52020  # c,c,c_1
angle_coeff	 4 bb    3.38720    1.53000    1.10100  # c,c,hc
angle_coeff	 5 bb    0.00000    1.53000    1.53000  # c,c1,c
angle_coeff	 6 bb    5.41990    1.53000    1.52020  # c,c1,c_1
angle_coeff	 7 bb    3.38720    1.53000    1.10100  # c,c1,hc
angle_coeff	 8 bb   46.06850    1.52020    1.20200  # c,c_1,o_1
angle_coeff	 9 bb   19.10690    1.52020    1.36830  # c,c_1,o_2
angle_coeff	10 bb   45.45030    1.43000    1.36830  # c,o_2,c_1
angle_coeff	11 bb    3.38720    1.53000    1.10100  # c1,c,hc
angle_coeff	12 bb   46.06850    1.52020    1.20200  # c1,c_1,o_1
angle_coeff	13 bb   19.10690    1.52020    1.36830  # c1,c_1,o_2
angle_coeff	14 bb    0.71150    1.52020    1.10100  # c_1,c1,hc
angle_coeff	15 bb    5.33160    1.10100    1.10100  # hc,c,hc
angle_coeff	16 bb    5.64540    1.10100    1.43000  # hc,c,o_2
angle_coeff	17 bb  121.48800    1.20200    1.36830  # o_1,c_1,o_2

# BondAngle Coeffs

angle_coeff	 1 ba    8.01600    8.01600    1.53000    1.53000  # c,c,c
angle_coeff	 2 ba    8.01600    8.01600    1.53000    1.53000  # c,c,c1
angle_coeff	 3 ba   18.16780   15.87580    1.53000    1.52020  # c,c,c_1
angle_coeff	 4 ba   20.75400   11.42100    1.53000    1.10100  # c,c,hc
angle_coeff	 5 ba    8.01600    8.01600    1.53000    1.53000  # c,c1,c
angle_coeff	 6 ba   18.16780   15.87580    1.53000    1.52020  # c,c1,c_1
angle_coeff	 7 ba   20.75400   11.42100    1.53000    1.10100  # c,c1,hc
angle_coeff	 8 ba   34.99820   37.12980    1.52020    1.20200  # c,c_1,o_1
angle_coeff	 9 ba    1.34350    4.69780    1.52020    1.36830  # c,c_1,o_2
angle_coeff	10 ba   41.91160   46.46080    1.43000    1.36830  # c,o_2,c_1
angle_coeff	11 ba   20.75400   11.42100    1.53000    1.10100  # c1,c,hc
angle_coeff	12 ba   34.99820   37.12980    1.52020    1.20200  # c1,c_1,o_1
angle_coeff	13 ba    1.34350    4.69780    1.52020    1.36830  # c1,c_1,o_2
angle_coeff	14 ba   12.46320    9.17650    1.52020    1.10100  # c_1,c1,hc
angle_coeff	15 ba   18.10300   18.10300    1.10100    1.10100  # hc,c,hc
angle_coeff	16 ba    8.68640   57.49750    1.10100    1.43000  # hc,c,o_2
angle_coeff	17 ba   76.26140   71.87610    1.20200    1.36830  # o_1,c_1,o_2

# Dihedral Coeffs

dihedral_coeff	 1    0.00000    0.00000    0.05140    0.00000   -0.14300    0.00000  # c,c,c,c
dihedral_coeff	 2    0.00000    0.00000    0.05140    0.00000   -0.14300    0.00000  # c,c,c,c1
dihedral_coeff	 3    0.09720    0.00000    0.07220    0.00000   -0.25810    0.00000  # c,c,c,c_1
dihedral_coeff	 4    0.00000    0.00000    0.03160    0.00000   -0.16810    0.00000  # c,c,c,hc
dihedral_coeff	 5    0.00000    0.00000    0.05140    0.00000   -0.14300    0.00000  # c,c,c1,c
dihedral_coeff	 6    0.09720    0.00000    0.07220    0.00000   -0.25810    0.00000  # c,c,c1,c_1
dihedral_coeff	 7    0.00000    0.00000    0.03160    0.00000   -0.16810    0.00000  # c,c,c1,hc
dihedral_coeff	 8    0.04420    0.00000    0.02920    0.00000    0.05620    0.00000  # c,c,c_1,o_1
dihedral_coeff	 9    1.83410    0.00000    2.06030    0.00000   -0.01950    0.00000  # c,c,c_1,o_2
dihedral_coeff	10    0.00000    0.00000    0.03160    0.00000   -0.16810    0.00000  # c,c1,c,hc
dihedral_coeff	11    0.04420    0.00000    0.02920    0.00000    0.05620    0.00000  # c,c1,c_1,o_1
dihedral_coeff	12    1.83410    0.00000    2.06030    0.00000   -0.01950    0.00000  # c,c1,c_1,o_2
dihedral_coeff	13   -2.55940    0.00000    2.20130    0.00000    0.03250    0.00000  # c,c_1,o_2,c
dihedral_coeff	14   -2.55940    0.00000    2.20130    0.00000    0.03250    0.00000  # c,o_2,c_1,c1
dihedral_coeff	15    0.00000    0.00000    2.20890    0.00000    0.00000    0.00000  # c,o_2,c_1,o_1
dihedral_coeff	16    0.09720    0.00000    0.07220    0.00000   -0.25810    0.00000  # c1,c,c,c_1
dihedral_coeff	17   -0.02280    0.00000    0.02800    0.00000   -0.18630    0.00000  # c_1,c,c,hc
dihedral_coeff	18   -0.02280    0.00000    0.02800    0.00000   -0.18630    0.00000  # c_1,c1,c,hc
dihedral_coeff	19    0.00000    0.00000    0.00000    0.00000   -0.19320    0.00000  # c_1,o_2,c,hc
dihedral_coeff	20   -0.14320    0.00000    0.06170    0.00000   -0.10830    0.00000  # hc,c,c1,hc
dihedral_coeff	21   -0.18040    0.00000    0.00120    0.00000    0.03710    0.00000  # hc,c1,c_1,o_1
dihedral_coeff	22   -0.63590    0.00000    1.48070    0.00000   -0.04380    0.00000  # hc,c1,c_1,o_2

# MiddleBondTorsion Coeffs

dihedral_coeff	 1 mbt  -17.78700   -7.18770    0.00000    1.53000  # c,c,c,c
dihedral_coeff	 2 mbt  -17.78700   -7.18770    0.00000    1.53000  # c,c,c,c1
dihedral_coeff	 3 mbt   -1.59450    0.22670   -0.69110    1.53000  # c,c,c,c_1
dihedral_coeff	 4 mbt  -14.87900   -3.65810   -0.31380    1.53000  # c,c,c,hc
dihedral_coeff	 5 mbt  -17.78700   -7.18770    0.00000    1.53000  # c,c,c1,c
dihedral_coeff	 6 mbt   -1.59450    0.22670   -0.69110    1.53000  # c,c,c1,c_1
dihedral_coeff	 7 mbt  -14.87900   -3.65810   -0.31380    1.53000  # c,c,c1,hc
dihedral_coeff	 8 mbt    0.33880   -0.10960    0.12190    1.52020  # c,c,c_1,o_1
dihedral_coeff	 9 mbt  -17.32800   -5.79000   -3.21140    1.52020  # c,c,c_1,o_2
dihedral_coeff	10 mbt  -14.87900   -3.65810   -0.31380    1.53000  # c,c1,c,hc
dihedral_coeff	11 mbt    0.33880   -0.10960    0.12190    1.52020  # c,c1,c_1,o_1
dihedral_coeff	12 mbt  -17.32800   -5.79000   -3.21140    1.52020  # c,c1,c_1,o_2
dihedral_coeff	13 mbt    1.34450    3.55150   -4.92020    1.36830  # c,c_1,o_2,c
dihedral_coeff	14 mbt    1.34450    3.55150   -4.92020    1.36830  # c,o_2,c_1,c1
dihedral_coeff	15 mbt    4.26000    0.00000    0.00000    1.36830  # c,o_2,c_1,o_1
dihedral_coeff	16 mbt   -1.59450    0.22670   -0.69110    1.53000  # c1,c,c,c_1
dihedral_coeff	17 mbt   -3.50390    1.24580   -0.76100    1.53000  # c_1,c,c,hc
dihedral_coeff	18 mbt   -3.50390    1.24580   -0.76100    1.53000  # c_1,c1,c,hc
dihedral_coeff	19 mbt    0.00000    0.00000    0.00000    1.43000  # c_1,o_2,c,hc
dihedral_coeff	20 mbt  -14.26100   -0.53220   -0.48640    1.53000  # hc,c,c1,hc
dihedral_coeff	21 mbt    0.23590    0.91390    0.95940    1.52020  # hc,c1,c_1,o_1
dihedral_coeff	22 mbt  -13.76860   -2.59590    1.19340    1.52020  # hc,c1,c_1,o_2

# EndBondTorsion Coeffs

dihedral_coeff	 1 ebt   -0.07320    0.00000    0.00000   -0.07320    0.00000    0.00000    1.53000    1.53000  # c,c,c,c
dihedral_coeff	 2 ebt   -0.07320    0.00000    0.00000   -0.07320    0.00000    0.00000    1.53000    1.53000  # c,c,c,c1
dihedral_coeff	 3 ebt    0.00620   -0.00020    0.00360    0.00550    0.00600   -0.00090    1.53000    1.52020  # c,c,c,c_1
dihedral_coeff	 4 ebt    0.24860    0.24220   -0.09250    0.08140    0.05910    0.22190    1.53000    1.10100  # c,c,c,hc
dihedral_coeff	 5 ebt   -0.07320    0.00000    0.00000   -0.07320    0.00000    0.00000    1.53000    1.53000  # c,c,c1,c
dihedral_coeff	 6 ebt    0.00620   -0.00020    0.00360    0.00550    0.00600   -0.00090    1.53000    1.52020  # c,c,c1,c_1
dihedral_coeff	 7 ebt    0.24860    0.24220   -0.09250    0.08140    0.05910    0.22190    1.53000    1.10100  # c,c,c1,hc
dihedral_coeff	 8 ebt    0.26540    0.05030    0.10460   -0.28100    0.08160   -0.15220    1.53000    1.20200  # c,c,c_1,o_1
dihedral_coeff	 9 ebt    0.00000    0.00000    0.00000    0.00000    0.00000    0.00000    1.53000    1.36830  # c,c,c_1,o_2
dihedral_coeff	10 ebt    0.24860    0.24220   -0.09250    0.08140    0.05910    0.22190    1.53000    1.10100  # c,c1,c,hc
dihedral_coeff	11 ebt    0.26540    0.05030    0.10460   -0.28100    0.08160   -0.15220    1.53000    1.20200  # c,c1,c_1,o_1
dihedral_coeff	12 ebt    0.00000    0.00000    0.00000    0.00000    0.00000    0.00000    1.53000    1.36830  # c,c1,c_1,o_2
dihedral_coeff	13 ebt    0.00000    0.00000    0.00000    0.00000    0.00000    0.00000    1.52020    1.43000  # c,c_1,o_2,c
dihedral_coeff	14 ebt    0.00000    0.00000    0.00000    0.00000    0.00000    0.00000    1.43000    1.52020  # c,o_2,c_1,c1
dihedral_coeff	15 ebt    0.00000    0.00000    0.00000    0.00000    0.00000    0.00000    1.43000    1.20200  # c,o_2,c_1,o_1
dihedral_coeff	16 ebt    0.00620   -0.00020    0.00360    0.00550    0.00600   -0.00090    1.53000    1.52020  # c1,c,c,c_1
dihedral_coeff	17 ebt   -0.02040    0.36280   -0.44260   -0.00970   -0.03150   -0.07550    1.52020    1.10100  # c_1,c,c,hc
dihedral_coeff	18 ebt   -0.02040    0.36280   -0.44260   -0.00970   -0.03150   -0.07550    1.52020    1.10100  # c_1,c1,c,hc
dihedral_coeff	19 ebt    0.00000    0.00000    0.00000    0.00000    0.00000    0.00000    1.36830    1.10100  # c_1,o_2,c,hc
dihedral_coeff	20 ebt    0.21300    0.31200    0.07770    0.21300    0.31200    0.07770    1.10100    1.10100  # hc,c,c1,hc
dihedral_coeff	21 ebt    1.21430    0.28310    0.39160   -0.22980    0.03540    0.38530    1.10100    1.20200  # hc,c1,c_1,o_1
dihedral_coeff	22 ebt    0.00000    0.00000    0.00000    0.00000    0.00000    0.00000    1.10100    1.36830  # hc,c1,c_1,o_2

# AngleTorsion Coeffs

dihedral_coeff	 1 at    0.38860   -0.31390    0.13890    0.38860   -0.31390    0.13890  112.67000  112.67000  # c,c,c,c
dihedral_coeff	 2 at    0.38860   -0.31390    0.13890    0.38860   -0.31390    0.13890  112.67000  112.67000  # c,c,c,c1
dihedral_coeff	 3 at   -0.26070    0.32030   -0.22830    0.05150   -0.06740   -0.04740  112.67000  108.52950  # c,c,c,c_1
dihedral_coeff	 4 at   -0.24540    0.00000   -0.11360    0.31130    0.45160   -0.19880  112.67000  110.77000  # c,c,c,hc
dihedral_coeff	 5 at    0.38860   -0.31390    0.13890    0.38860   -0.31390    0.13890  112.67000  112.67000  # c,c,c1,c
dihedral_coeff	 6 at   -0.26070    0.32030   -0.22830    0.05150   -0.06740   -0.04740  112.67000  108.52950  # c,c,c1,c_1
dihedral_coeff	 7 at   -0.24540    0.00000   -0.11360    0.31130    0.45160   -0.19880  112.67000  110.77000  # c,c,c1,hc
dihedral_coeff	 8 at    0.08850   -1.37030   -0.54520    0.67500    0.59650    0.67250  108.52950  123.14510  # c,c,c_1,o_1
dihedral_coeff	 9 at    0.00000    0.00000    0.00000    0.00000    0.00000    0.00000  108.52950  100.31820  # c,c,c_1,o_2
dihedral_coeff	10 at   -0.24540    0.00000   -0.11360    0.31130    0.45160   -0.19880  112.67000  110.77000  # c,c1,c,hc
dihedral_coeff	11 at    0.08850   -1.37030   -0.54520    0.67500    0.59650    0.67250  108.52950  123.14510  # c,c1,c_1,o_1
dihedral_coeff	12 at    0.00000    0.00000    0.00000    0.00000    0.00000    0.00000  108.52950  100.31820  # c,c1,c_1,o_2
dihedral_coeff	13 at    0.00000    0.00000    0.00000    0.00000    0.00000    0.00000  100.31820  113.28800  # c,c_1,o_2,c
dihedral_coeff	14 at    0.00000    0.00000    0.00000    0.00000    0.00000    0.00000  113.28800  100.31820  # c,o_2,c_1,c1
dihedral_coeff	15 at    0.00000    0.00000    0.00000    0.00000    0.00000    0.00000  113.28800  120.79700  # c,o_2,c_1,o_1
dihedral_coeff	16 at   -0.26070    0.32030   -0.22830    0.05150   -0.06740   -0.04740  112.67000  108.52950  # c1,c,c,c_1
dihedral_coeff	17 at   -0.74660   -0.94480   -0.63210    0.01620    1.42110   -1.40920  108.52950  110.77000  # c_1,c,c,hc
dihedral_coeff	18 at   -0.74660   -0.94480   -0.63210    0.01620    1.42110   -1.40920  108.52950  110.77000  # c_1,c1,c,hc
dihedral_coeff	19 at    0.00000    0.00000    0.00000    0.00000    0.00000    0.00000  113.28800  107.68800  # c_1,o_2,c,hc
dihedral_coeff	20 at   -0.80850    0.55690   -0.24660   -0.80850    0.55690   -0.24660  110.77000  110.77000  # hc,c,c1,hc
dihedral_coeff	21 at    9.12990   -0.48470    0.35820   -1.49460    0.73080   -0.20830  107.73360  123.14510  # hc,c1,c_1,o_1
dihedral_coeff	22 at    0.00000    0.00000    0.00000    0.00000    0.00000    0.00000  107.73360  100.31820  # hc,c1,c_1,o_2

# AngleAngleTorsion Coeffs

dihedral_coeff	 1 aat  -22.04500  112.67000  112.67000  # c,c,c,c
dihedral_coeff	 2 aat  -22.04500  112.67000  112.67000  # c,c,c,c1
dihedral_coeff	 3 aat   -0.38010  112.67000  108.52950  # c,c,c,c_1
dihedral_coeff	 4 aat  -16.16400  112.67000  110.77000  # c,c,c,hc
dihedral_coeff	 5 aat  -22.04500  112.67000  112.67000  # c,c,c1,c
dihedral_coeff	 6 aat   -0.38010  112.67000  108.52950  # c,c,c1,c_1
dihedral_coeff	 7 aat  -16.16400  112.67000  110.77000  # c,c,c1,hc
dihedral_coeff	 8 aat   -8.01900  108.52950  123.14510  # c,c,c_1,o_1
dihedral_coeff	 9 aat    0.00000  108.52950  100.31820  # c,c,c_1,o_2
dihedral_coeff	10 aat  -16.16400  112.67000  110.77000  # c,c1,c,hc
dihedral_coeff	11 aat   -8.01900  108.52950  123.14510  # c,c1,c_1,o_1
dihedral_coeff	12 aat    0.00000  108.52950  100.31820  # c,c1,c_1,o_2
dihedral_coeff	13 aat    0.00000  100.31820  113.28800  # c,c_1,o_2,c
dihedral_coeff	14 aat    0.00000  113.28800  100.31820  # c,o_2,c_1,c1
dihedral_coeff	15 aat    0.00000  113.28800  120.79700  # c,o_2,c_1,o_1
dihedral_coeff	16 aat   -0.38010  112.67000  108.52950  # c1,c,c,c_1
dihedral_coeff	17 aat   -5.36240  108.52950  110.77000  # c_1,c,c,hc
dihedral_coeff	18 aat   -5.36240  108.52950  110.77000  # c_1,c1,c,hc
dihedral_coeff	19 aat    0.00000  113.28800  107.68800  # c_1,o_2,c,hc
dihedral_coeff	20 aat  -12.56400  110.77000  110.77000  # hc,c,c1,hc
dihedral_coeff	21 aat  -15.34960  107.73360  123.14510  # hc,c1,c_1,o_1
dihedral_coeff	22 aat    0.00000  107.73360  100.31820  # hc,c1,c_1,o_2

# BondBond13 Coeffs

dihedral_coeff	 1 bb13    0.00000    1.53000    1.53000  # c,c,c,c
dihedral_coeff	 2 bb13    0.00000    1.53000    1.53000  # c,c,c,c1
dihedral_coeff	 3 bb13    0.00000    1.53000    1.52020  # c,c,c,c_1
dihedral_coeff	 4 bb13    0.00000    1.53000    1.10100  # c,c,c,hc
dihedral_coeff	 5 bb13    0.00000    1.53000    1.53000  # c,c,c1,c
dihedral_coeff	 6 bb13    0.00000    1.53000    1.52020  # c,c,c1,c_1
dihedral_coeff	 7 bb13    0.00000    1.53000    1.10100  # c,c,c1,hc
dihedral_coeff	 8 bb13    0.00000    1.53000    1.20200  # c,c,c_1,o_1
dihedral_coeff	 9 bb13    0.00000    1.53000    1.36830  # c,c,c_1,o_2
dihedral_coeff	10 bb13    0.00000    1.53000    1.10100  # c,c1,c,hc
dihedral_coeff	11 bb13    0.00000    1.53000    1.20200  # c,c1,c_1,o_1
dihedral_coeff	12 bb13    0.00000    1.53000    1.36830  # c,c1,c_1,o_2
dihedral_coeff	13 bb13    0.00000    1.52020    1.43000  # c,c_1,o_2,c
dihedral_coeff	14 bb13    0.00000    1.43000    1.52020  # c,o_2,c_1,c1
dihedral_coeff	15 bb13    0.00000    1.43000    1.20200  # c,o_2,c_1,o_1
dihedral_coeff	16 bb13    0.00000    1.53000    1.52020  # c1,c,c,c_1
dihedral_coeff	17 bb13    0.00000    1.52020    1.10100  # c_1,c,c,hc
dihedral_coeff	18 bb13    0.00000    1.52020    1.10100  # c_1,c1,c,hc
dihedral_coeff	19 bb13    0.00000    1.36830    1.10100  # c_1,o_2,c,hc
dihedral_coeff	20 bb13    0.00000    1.10100    1.10100  # hc,c,c1,hc
dihedral_coeff	21 bb13    0.00000    1.10100    1.20200  # hc,c1,c_1,o_1
dihedral_coeff	22 bb13    0.00000    1.10100    1.36830  # hc,c1,c_1,o_2

# Improper Coeffs

improper_coeff	 1    0.00000    0.00000  # c,c,c,c
improper_coeff	 2    0.00000    0.00000  # c,c,c,c_1
improper_coeff	 3    0.00000    0.00000  # c,c,c,hc
improper_coeff	 4    0.00000    0.00000  # c,c,c1,hc
improper_coeff	 5    0.00000    0.00000  # c,c,hc,hc
improper_coeff	 6    0.00000    0.00000  # c,c1,hc,hc
improper_coeff	 7    0.00000    0.00000  # c,hc,hc,hc
improper_coeff	 8    0.00000    0.00000  # c,hc,hc,o_2
improper_coeff	 9    0.00000    0.00000  # c1,c,c,c_1
improper_coeff	10    0.00000    0.00000  # c1,c,c,hc
improper_coeff	11    0.00000    0.00000  # c1,c,c_1,hc
improper_coeff	12    0.00000    0.00000  # c1,c,hc,c_1
improper_coeff	13   46.92640    0.00000  # c_1,c,o_2,o_1
improper_coeff	14   46.92640    0.00000  # c_1,c1,o_2,o_1

# AngleAngle Coeffs

improper_coeff	 1 aa   -0.17290   -0.17290   -0.17290  112.67000  112.67000  112.67000  # c,c,c,c
improper_coeff	 2 aa    0.00000    0.00000    0.00000  112.67000  108.52950  108.52950  # c,c,c,c_1
improper_coeff	 3 aa   -1.31990   -1.31990    0.11840  112.67000  110.77000  110.77000  # c,c,c,hc
improper_coeff	 4 aa   -1.31990   -1.31990    0.11840  112.67000  110.77000  110.77000  # c,c,c1,hc
improper_coeff	 5 aa    0.27380   -0.48250    0.27380  110.77000  110.77000  107.66000  # c,c,hc,hc
improper_coeff	 6 aa    0.27380   -0.48250    0.27380  110.77000  110.77000  107.66000  # c,c1,hc,hc
improper_coeff	 7 aa   -0.31570   -0.31570   -0.31570  107.66000  107.66000  107.66000  # c,hc,hc,hc
improper_coeff	 8 aa    0.00000    0.00000    0.00000  107.66000  107.68800  107.68800  # c,hc,hc,o_2
improper_coeff	 9 aa    0.00000    0.00000    0.00000  112.67000  108.52950  108.52950  # c1,c,c,c_1
improper_coeff	10 aa   -1.31990   -1.31990    0.11840  112.67000  110.77000  110.77000  # c1,c,c,hc
improper_coeff	11 aa    2.04030   -1.82020    1.08270  108.52950  110.77000  107.73360  # c1,c,c_1,hc
improper_coeff	12 aa    1.08270   -1.82020    2.04030  110.77000  108.52950  107.73360  # c1,c,hc,c_1
improper_coeff	13 aa    0.00000    0.00000    0.00000  100.31820  123.14510  120.79700  # c_1,c,o_2,o_1
improper_coeff	14 aa    0.00000    0.00000    0.00000  100.31820  123.14510  120.79700  # c_1,c1,o_2,o_1


# --- Thermo Output ---
thermo_style custom step time temp press enthalpy etotal ke pe ebond eangle edihed eimp evdwl ecoul elong etail vol lx ly lz density pxx pyy pzz
thermo_modify flush yes
thermo 500

# --- Velocity initialization at T_START (once only — Rule A) ---
velocity all create 600.0 759184 mom yes rot yes dist gaussian

# --- Temperature staircase (inherits momenta across steps — Rule A) ---
variable temps index 600 580 560 540 520 500 480 460 440 420 400 380 360 340 320 300 280 260 240 220 200 180 160 150
label TEMP_LOOP
  timestep 1
  fix npt_tg all npt temp ${temps} ${temps} 100 iso 1.0 1.0 1000.0
  fix npt_tg all npt temp 600 ${temps} 100 iso 1.0 1.0 1000.0
  fix npt_tg all npt temp 600 600 100 iso 1.0 1.0 1000.0
  run 200000
PPPM Kokkos initialization ...
  using 12-bit tables for long-range coulomb
  G vector (1/distance) = 0.33288361
  grid = 45 45 45
  stencil order = 5
  estimated absolute RMS force accuracy = 0.00029054851
  estimated relative force accuracy = 8.749782e-07
  using double precision cuFFT
  3d grid and FFT values/proc = 140608 91125
Generated 15 of 15 mixed pair_coeff terms from sixthpower/sixthpower mixing rule
Neighbor list info ...
  update: every = 1 steps, delay = 0 steps, check = yes
  max neighbors/atom: 4000, page size: 100000
  master list distance cutoff = 11.5
  ghost atom cutoff = 11.5
  binsize = 11.5, bins = 4 4 4
  1 neighbor lists, perpetual/occasional/extra = 1 0 0
  (1) pair lj/class2/coul/long/kk, perpetual
      attributes: full, newton off, kokkos_device
      pair build: full/bin/kk/device
      stencil: full/bin/3d
      bin: kk/device
Per MPI rank memory allocation (min/avg/max) = 63.49 | 63.49 | 63.49 Mbytes
   Step          Time           Temp          Press         Enthalpy        TotEng         KinEng         PotEng         E_bond        E_angle        E_dihed        E_impro         E_vdwl         E_coul         E_long         E_tail         Volume           Lx             Ly             Lz          Density          Pxx            Pyy            Pzz      
         0   0              600            4303.0232      38767.039      34098.356      13447.626      20650.729      3897.1692      6529.5941     -1915.0683      208.97181     -314.04684      43017.372     -30773.263     -527.57757      74395.182      42.057967      42.057967      42.057967      1.1177962      3494.0738      4519.3914      4895.6044    
       500   500            581.70664      228.23318      40414.762      40157.759      13037.623      27120.136      6423.951       9229.6556     -1499.9921      358.54048      334.43625      43019.587     -30746.042     -508.33286      77211.67       42.582156      42.582156      42.582156      1.0770218      953.89899     -1468.4197      1199.2203    
      1000   1000           588.61782     -943.95583      39807.11       40896.069      13192.521      27703.548      6634.2938      9498.4919     -1510.6281      346.96668      415.82864      43054.681     -30736.086     -496.189        79101.369      42.926749      42.926749      42.926749      1.0512922     -698.97619      584.2958      -2717.1871    
      1500   1500           601.92008      1265.907       42819.633      41357.403      13490.661      27866.742      6720.5073      9490.5174     -1563.836       335.48697      583.07489      43042.864     -30741.872     -495.55644      79202.339      42.945006      42.945006      42.945006      1.049952       3248.1221     -586.14601      1135.7451    
      2000   2000           605.06853     -221.9144       41000.539      41257.071      13561.226      27695.845      6575.5345      9475.2557     -1531.3531      334.16695      531.20291      43046.496     -30735.458     -495.16536      79264.893      42.956309      42.956309      42.956309      1.0491234      479.08116     -534.18582     -610.63854    
      2500   2500           597.42982     -151.93794      41051.579      41228.278      13390.022      27838.256      6734.3621      9522.966      -1549.7095      309.74436      556.98515      43010.553     -30746.645     -492.19834      79742.71       43.042451      43.042451      43.042451      1.042837      -1576.8747      1196.7498     -75.688901    
      3000   3000           604.76223      88.870962      41293.635      41190.076      13554.361      27635.716      6522.4924      9371.284      -1530.4333      345.10726      607.12835      43046.736     -30726.599     -491.22488      79900.735      43.070865      43.070865      43.070865      1.0407745      2263.2893     -1005.6483     -991.02813    
      3500   3500           603.4752       244.88527      41482.483      41198.779      13525.515      27673.263      6528.1309      9526.1682     -1584.1632      322.41027      586.26131      43037.837     -30743.381     -494.08649      79437.973      42.987552      42.987552      42.987552      1.0468375     -676.23013     -140.00854      1550.8945    
      4000   4000           603.44427      862.2757       42457.081      41463.254      13524.822      27938.432      6681.9758      9676.3355     -1530.6752      320.17414      490.92984      43033.595     -30733.903     -496.64047      79029.461      42.913738      42.913738      42.913738      1.0522487      62.420499      1260.6591      1263.7475    
      4500   4500           597.65287      485.13421      41974.909      41412.912      13395.021      28017.891      6489.3056      9703.5998     -1480.9206      358.32632      611.86191      43074.879     -30739.162     -494.12203      79432.259      42.986522      42.986522      42.986522      1.0469128      1128.9337     -383.50415      709.97311    
      5000   5000           594.91034      64.143535      41014.406      40939.858      13333.553      27606.305      6538.9872      9347.8513     -1545.5091      361.72821      601.81067      43040.178     -30738.742     -492.51997      79690.635      43.03308       43.03308       43.03308       1.0435185      9.0832567      143.24783      40.099518    
      5500   5500           588.83505      790.8614       42035.413      41117.713      13197.39       27920.323      6687.4666      9492.5735     -1526.1834      373.21483      602.55906      43024.017     -30733.325     -493.29492      79565.443      43.010533      43.010533      43.010533      1.0451604      1757.0149      621.71801     -6.1486523    
      6000   6000           596.59988      1100.5016      42617.979      41335.775      13371.42       27964.355      6746.2345      9412.1852     -1507.3412      352.26845      651.1138       43051.427     -30741.533     -491.29307      79889.645      43.068872      43.068872      43.068872      1.040919       3200.375      -463.53461      564.66438    
      6500   6500           611.54716      1344.8751      42962.041      41388.275      13706.43       27681.845      6573.6459      9308.9525     -1504.6512      354.23617      655.28598      43033.217     -30738.841     -489.15743      80238.44       43.13146       43.13146       43.13146       1.0363942      2114.0874      615.93436      1304.6036    
      7000   7000           593.8315      -1438.5461      39469.468      41139.342      13309.374      27829.969      6626.9674      9439.2147     -1479.1433      355.06231      601.66948      43022.683     -30736.485     -493.11367      79594.689      43.015803      43.015803      43.015803      1.0447764     -451.53682     -3972.3515      108.25006    
      7500   7500           594.22379      1502.1955      42781.614      41056.799      13318.166      27738.633      6621.8683      9378.0535     -1494.5969      334.34733      606.49093      43035.012     -30742.542     -498.52975      78729.963      42.859459      42.859459      42.859459      1.0562516      2712.823      -163.7258       1957.4894    
      8000   8000           596.94977      649.36934      41819.836      41069.211      13379.262      27689.948      6405.0427      9446.1183     -1504.368       354.93385      673.90403      43057.059     -30742.741     -495.19414      79260.286      42.955477      42.955477      42.955477      1.0491843      2414.2429     -313.72724     -152.4076     
      8500   8500           601.19733     -615.34392      40472.36       41190.885      13474.462      27716.423      6675.397       9310.6104     -1502.1477      338.38359      611.76062      43019.081     -30736.662     -490.21083      80066.019      43.100543      43.100543      43.100543      1.038626      -913.28219     -1960.0189      1027.2693    
      9000   9000           594.28397      1036.6795      42288.095      41086.319      13319.515      27766.804      6580.8142      9411.1576     -1616.7936      347.74918      683.13911      43091.067     -30730.329     -493.77362      79488.307      42.99663       42.99663       42.99663       1.0461746      197.8668       411.17092      2501.0008    
      9500   9500           595.94361      542.75523      41905.753      41282.626      13356.712      27925.914      6516.2172      9486.9688     -1475.0009      333.20387      778.66098      43037.441     -30751.577     -498.57904      78722.181      42.858047      42.858047      42.858047      1.056356      -180.52055      1121.582       687.2042     
     10000   10000          598.40386      307.12903      41577.191      41221.056      13411.853      27809.204      6690.7643      9422.7313     -1467.3989      349.45619      526.69209      43029.563     -30742.604     -493.64344      79509.269      43.000409      43.000409      43.000409      1.0458988      276.20775      363.05101      282.12833    
     10500   10500          602.2624      -791.27124      40258.249      41181.595      13498.333      27683.262      6572.1499      9393.8997     -1499.0487      330.92791      578.00692      43049.389     -30742.063     -490.53307      80013.421      43.091103      43.091103      43.091103      1.0393088     -102.84096     -1364.8631     -906.10963    
     11000   11000          601.34774     -371.45219      40703.145      41135.807      13477.833      27657.974      6467.0348      9498.7214     -1523.771       316.45943      580.33639      43063.674     -30744.481     -491.42936      79867.489      43.06489       43.06489       43.06489       1.0412078      1535.7504     -2738.5376      88.430646    
     11500   11500          596.56428     -371.93778      40780.825      41215.353      13370.623      27844.73       6677.8279      9365.9588     -1502.8985      352.7618       622.14101      43065.114     -30736.175     -489.95895      80107.179      43.107928      43.107928      43.107928      1.0380924     -1585.1396      1028.7114     -559.38518    
     12000   12000          600.25708      398.58993      41819.873      41356.411      13453.388      27903.022      6608.4028      9548.7954     -1526.9425      361.50256      627.57031      43029.988     -30746.294     -492.28734      79728.292      43.039857      43.039857      43.039857      1.0430256      83.550015      97.852955      1014.3668    
     12500   12500          597.67272      241.44226      41617.955      41338.81       13395.466      27943.344      6719.0655      9408.1819     -1467.0851      345.94571      658.28363      43028.253     -30749.3       -495.09632      79275.946      42.958306      42.958306      42.958306      1.0489771      1058.2344     -341.67473      7.7671111    
     13000   13000          596.44332     -1016.3997      40122.723      41303.511      13367.912      27935.6        6660.3661      9549.6342     -1481.7511      365.46404      545.08104      43052.406     -30755.601     -492.71914      79658.422      43.027281      43.027281      43.027281      1.0439405     -1291.7518     -672.96521     -1084.4823    
     13500   13500          598.87443     -1179.8214      39973.908      41336.464      13422.399      27914.064      6710.1429      9530.5464     -1467.8482      356.71691      525.23026      43004.553     -30745.276     -495.64304      79188.501      42.942505      42.942505      42.942505      1.0501354     -770.48724     -1052.5319     -1716.4451    
     14000   14000          594.09239     -239.87481      40695.148      40975.579      13315.221      27660.358      6604.9409      9331.2046     -1534.6723      336.45615      642.08483      43015.423     -30735.079     -489.62746      80161.413      43.117654      43.117654      43.117654      1.03739       -615.4933      -761.33524      657.20411    
     14500   14500          593.4977       1593.3273      42947.712      41091.198      13301.892      27789.305      6466.0511      9538.7612     -1490.751       346.37906      614.20829      43061.162     -30746.506     -491.26257      79894.605      43.069763      43.069763      43.069763      1.0408544      2187.2757      1671.968       920.73815    
     15000   15000          599.94617     -353.16538      40780.608      41187.685      13446.42       27741.265      6585.868       9458.9581     -1510.4988      365.5076       544.31583      43035.836     -30738.721     -496.60181      79035.614      42.914851      42.914851      42.914851      1.0521668      411.82837     -2084.3584      613.03384    
     15500   15500          609.78902     -100.30905      41240.056      41354.975      13667.025      27687.95       6558.812       9530.9356     -1549.7332      366.9696       492.0207       43038.632     -30749.687     -499.63946      78555.103      42.827705      42.827705      42.827705      1.0586028     -1912.7469      1793.3374     -181.51765    
     16000   16000          597.60008      169.35651      41278.692      41081.525      13393.838      27687.687      6437.5797      9451.8166     -1523.8477      349.31642      652.27315      43062.178     -30741.629     -491.67095      79828.245      43.057835      43.057835      43.057835      1.0417196     -2492.8591      687.93969      2312.989     
     16500   16500          595.79004      1061.2757      42211.738      40969.98       13353.27       27616.71       6451.4717      9317.0332     -1511.2863      347.85373      675.47401      43077.606     -30741.442     -489.21339      80229.262      43.129815      43.129815      43.129815      1.0365127      626.08523      39.163589      2518.5782    
     17000   17000          594.72624      263.60186      41478.105      41171.774      13329.427      27842.347      6634.6403      9314.7064     -1454.0395      334.46708      705.4749       43051.664     -30744.567     -492.56678      79683.061      43.031717      43.031717      43.031717      1.0436177      2458.8606     -1613.684      -54.370997    
     17500   17500          598.41397      484.48383      41942.087      41378.758      13412.079      27966.678      6646.9056      9435.7092     -1416.7131      374.55124      634.24117      43031.349     -30739.364     -492.2933       79727.328      43.039684      43.039684      43.039684      1.0430382      1004.3297      640.29414     -191.17239    
     18000   18000          604.82769     -1328.8411      39801.71       41339.31       13555.828      27783.482      6568.3232      9491.7594     -1482.5116      357.54332      549.60719      43036.497     -30737.736     -494.69398      79340.421      42.969949      42.969949      42.969949      1.0481246     -968.7009      -764.19336     -2253.6289    
     18500   18500          596.97146     -408.01185      40881.201      41358.854      13379.749      27979.106      6602.0526      9496.339      -1396.834       361.02706      581.7015       43068.631     -30733.812     -488.95273      80272.033      43.137478      43.137478      43.137478      1.0359604      2472.9649     -2492.177      -1204.8234    
     19000   19000          599.63985      1084.1527      42552.238      41288.224      13439.554      27848.67       6504.7312      9496.1978     -1507.921       374.47163      670.46202      43055.101     -30744.372     -490.95968      79943.896      43.078619      43.078619      43.078619      1.0402126      682.74752      2400.2869      169.42372    
     19500   19500          596.00403     -2316.1711      38483.911      41149.736      13358.066      27791.67       6530.8777      9510.7359     -1492.6441      368.34486      613.80408      43006.318     -30745.766     -497.33151      78919.651      42.893852      42.893852      42.893852      1.0537128     -2810.3179     -1786.6547     -2351.5407    
     20000   20000          606.60939     -112.72981      41105.968      41236.509      13595.761      27640.748      6484.6281      9435.0299     -1539.7022      387.44395      587.92551      43019.954     -30734.532     -494.31092      79401.906      42.981045      42.981045      42.981045      1.047313       1136.0484     -1374.9701     -99.267656    
     20500   20500          607.89666     -677.57685      40733.531      41523.084      13624.612      27898.472      6717.9914      9421.5905     -1420.5434      377.05567      526.01099      43023.846     -30747.479     -491.22933      79900.012      43.070735      43.070735      43.070735      1.040784      -795.48348     -1700.5707      463.32368    
     21000   21000          604.14424      742.48392      42476.918      41609.971      13540.51       28069.461      6632.4723      9580.0683     -1423.1032      349.12396      594.08587      43069.415     -30732.602     -490.23194      80062.57       43.099924      43.099924      43.099924      1.0386708      1756.8955     -900.25375      1370.81      
     21500   21500          600.6582      -196.29934      41155.242      41384.935      13462.379      27922.557      6671.956       9323.9521     -1435.764       331.80328      705.34243      43053.151     -30727.884     -489.1904       80233.032      43.130491      43.130491      43.130491      1.036464      -252.84314     -1500.696       1164.6411    
     22000   22000          598.65981      49.089435      41279.39       41222.345      13417.589      27804.756      6549.0163      9404.6677     -1460.241       378.99388      598.97775      43071.627     -30738.286     -492.57885      79681.109      43.031365      43.031365      43.031365      1.0436432      838.61188      755.07429     -1446.4179    
     22500   22500          599.97558      1120.3003      42613.163      41322.792      13447.079      27875.713      6681.0882      9459.9876     -1546.3273      325.27495      658.68072      43035.087     -30738.078     -496.96602      78977.692      42.904365      42.904365      42.904365      1.0529385      2138.031      -839.20863      2062.0784    
     23000   23000          598.28246     -1197.4826      39942.815      41352.109      13409.132      27942.978      6666.098       9506.8931     -1446.446       340.86612      573.34578      43041.974     -30739.753     -486.37865      80696.858      43.213444      43.213444      43.213444      1.0305067     -472.01523     -1858.2724     -1262.1601    
     23500   23500          600.06919     -25.510093      41272          41302.21       13449.177      27853.033      6528.1666      9610.8529     -1543.6642      318.12428      635.30254      43046.051     -30741.801     -483.35986      81200.846      43.303219      43.303219      43.303219      1.0241106      1962.374       35.944767     -2074.8491    
     24000   24000          600.72741      934.51167      42342.388      41250.406      13463.93       27786.477      6485.2544      9503.7318     -1538.5946      345.8561       666.60654      43073.373     -30749.751     -489.86501      80122.541      43.110683      43.110683      43.110683      1.0378933      307.28436      1353.1765      1143.0742    
     24500   24500          600.06739     -489.04815      40717.672      41289.509      13449.137      27840.372      6678.5601      9289.518      -1455.9207      375.27872      640.08442      43055.553     -30742.701     -489.53805      80176.055      43.120279      43.120279      43.120279      1.0372006      196.78141     -1488.3914     -175.53446    
     25000   25000          601.14217      1061.1378      42635.145      41393.854      13473.225      27920.629      6600.8173      9481.6828     -1478.9274      333.20708      652.70888      43063.736     -30732.596     -489.3338       80209.519      43.126277      43.126277      43.126277      1.0367678     -118.93329      1965.7147      1336.632     
     25500   25500          605.12325      783.63779      42258.675      41356.609      13562.452      27794.156      6538.1307      9558.938      -1518.942       355.93689      557.67805      43051.488     -30749.074     -497.2608       78930.873      42.895885      42.895885      42.895885      1.053563       1128.6141     -207.91939      1430.2186    
     26000   26000          596.43021     -484.54251      40352.564      40911.91       13367.618      27544.292      6474.2013      9420.4851     -1565.7107      376.91021      573.20559      43014.929     -30749.728     -495.85935      79153.957      42.93626       42.93626       42.93626       1.0505937     -1005.5786     -651.1218       203.07282    
     26500   26500          599.96955     -706.08052      40261.439      41085.879      13446.944      27638.935      6502.4084      9405.975      -1479.6692      358.80857      511.71216      43072.258     -30732.558     -490.23233      80062.507      43.099913      43.099913      43.099913      1.0386716     -1710.0697     -608.70749      200.53563    
     27000   27000          607.01615      420.23762      41729.712      41240.741      13604.877      27635.864      6470.9176      9430.9119     -1488.5125      330.46547      574.96668      43058.806     -30741.692     -491.94747      79783.375      43.049767      43.049767      43.049767      1.0423055      1610.7631     -550.48827      200.43804    
     27500   27500          598.61951     -625.96971      40684.385      41410.497      13416.686      27993.812      6793.6544      9477.8416     -1482.8782      357.94736      530.81117      43050.369     -30733.934     -493.46479      79538.054      43.005598      43.005598      43.005598      1.0455203     -185.5308      -1322.5073     -369.87102    
     28000   28000          615.92571      274.38371      42138.138      41817.327      13804.565      28012.762      6566.0837      9627.2644     -1472.5246      354.14284      647.9216       43035.045     -30745.171     -489.5709       80170.675      43.119314      43.119314      43.119314      1.0372702     -1408.5078      20.132164      2211.5268    
     28500   28500          607.67324      612.53015      41969.978      41255.325      13619.605      27635.72       6487.809       9365.375      -1429.1776      316.91873      592.70888      43048.804     -30746.718     -490.6129       80000.401      43.088766      43.088766      43.088766      1.0394779      1959.707       389.77688     -511.89342    
     29000   29000          602.41812     -409.98783      40565.738      41044.362      13501.823      27542.539      6553.5496      9372.2047     -1526.8862      329.13752      526.35185      43034.788     -30746.606     -490.32412      80047.519      43.097223      43.097223      43.097223      1.0388661     -1203.909      -60.659634      34.605171    
     29500   29500          602.16138      2121.2216      43594.826      41123.067      13496.069      27626.998      6485.1722      9398.1855     -1520.4132      327.10799      605.31622      43078.991     -30747.361     -491.23225      79899.536      43.070649      43.070649      43.070649      1.0407902      3612.57        1766.0197      985.07524    
     30000   30000          605.04532      958.42749      42676.35       41559.878      13560.706      27999.173      6768.6449      9398.1463     -1465.9889      351.22072      670.762        43028.416     -30752.028     -491.38142      79875.281      43.066291      43.066291      43.066291      1.0411062     -681.0668       1454.6649      2101.6844    
     30500   30500          602.79893     -60.802459      41469.715      41541.557      13510.358      28031.199      6643.3959      9550.1191     -1533.866       337.6736       697.95566      43070.524     -30734.603     -484.45154      81017.865      43.270668      43.270668      43.270668      1.0264236     -1258.1548      2757.9122     -1682.1648    
     31000   31000          593.03624      1442.2321      42641.761      40938.793      13291.55       27647.243      6560.9899      9276.9235     -1535.3315      366.43642      692.04834      43032.825     -30746.649     -484.76995      80964.651      43.261192      43.261192      43.261192      1.0270982      2500.4069      604.69425      1221.5952    
     31500   31500          598.40343      1017.8682      42363.425      41181.527      13411.843      27769.684      6520.7989      9437.2657     -1555.7466      348.2083       701.86492      43059.433     -30742.14      -492.96785      79618.234      43.020044      43.020044      43.020044      1.0444674      1264.7569      339.64633      1449.2014    
     32000   32000          608.00783     -1383.0997      39780.883      41397.944      13627.104      27770.84       6741.217       9318.747      -1547.7337      335.39208      648.12681      43018.919     -30743.828     -489.59171      80167.266      43.118703      43.118703      43.118703      1.0373143     -1192.5738     -2223.6535     -733.07188    
     32500   32500          601.31003      652.84321      42055.578      41294.403      13476.988      27817.415      6523.4971      9483.752      -1491.8091      346.90282      684.61274      43017.516     -30747.056     -490.94329      79946.564      43.079098      43.079098      43.079098      1.0401779     -312.66535     -204.18929      2475.3843    
     33000   33000          596.95026      708.53835      42089.082      41261.959      13379.273      27882.686      6584.757       9453.9222     -1495.5929      364.63012      657.02219      43071.865     -30753.918     -490.34355      80044.347      43.096654      43.096654      43.096654      1.0389072      1304.5924     -200.77239      1021.795     
     33500   33500          605.05916      581.89372      42256.845      41575.074      13561.016      28014.058      6712.4032      9566.52       -1511.1435      352.83672      618.70019      43026.929     -30752.188     -488.55371      80337.594      43.149219      43.149219      43.149219      1.035115      -640.96038      2904.9791     -518.33755    
     34000   34000          607.51177      917.36266      42561.206      41494.491      13615.985      27878.505      6614.2666      9491.052      -1549.0084      317.63051      694.42896      43054.284     -30744.148     -492.26562      79731.811      43.04049       43.04049       43.04049       1.0429796      2199.0818      2313.2478     -1760.2417    
     34500   34500          601.205        405.27068      41798.951      41324.516      13474.634      27849.882      6659.1716      9392.985      -1516.6457      314.88303      655.24989      43082.815     -30738.577     -488.96252      80270.425      43.13719       43.13719       43.13719       1.0359812      881.54399      1993.9137     -1659.6457    
     35000   35000          598.83056      408.34747      41895.818      41412.04       13421.416      27990.624      6601.321       9515.902      -1507.2203      347.81751      713.42934      43057.843     -30738.468     -483.15988      81234.455      43.309193      43.309193      43.309193      1.0236869     -300.54955      1151.4613      374.13063    
     35500   35500          609.66349     -1310.3621      40134.082      41660.303      13664.211      27996.092      6633.1869      9629.6788     -1520.1322      355.03883      587.71659      43050.793     -30740.19      -491.4515       79863.892      43.064244      43.064244      43.064244      1.0412547     -4574.1418      203.83459      439.22101    
     36000   36000          604.07921     -21.723704      41504.703      41529.952      13539.053      27990.899      6785.6036      9467.0516     -1528.2718      335.90075      627.49676      43046.88      -30743.762     -492.48522      79696.257      43.034092      43.034092      43.034092      1.0434449     -744.62805      773.94075     -94.483807    
     36500   36500          597.7857      -1588.8529      39612.667      41490.14       13397.998      28092.141      6866.3557      9483.9008     -1515.0499      356.10035      613.88482      43026.274     -30739.325     -484.41452      81024.057      43.27177       43.27177       43.27177       1.0263452     -2119.8578     -2635.5075     -11.193301    
     37000   37000          614.2858       506.01791      41974.532      41386.369      13767.81       27618.559      6538.1042      9343.6444     -1542.2559      343.95565      639.46258      43037.086     -30741.438     -492.46431      79699.642      43.034701      43.034701      43.034701      1.0434006      499.00547     -618.88145      1637.9297    
     37500   37500          606.78903      930.0544       42530.204      41458.479      13599.787      27858.692      6659.5444      9477.0355     -1520.9525      356.68489      617.94907      43018.527     -30750.097     -496.74315      79013.126      42.910781      42.910781      42.910781      1.0524663      1617.214       660.22104      512.72814    
     38000   38000          598.53666     -2007.6873      39039.581      41385.529      13414.829      27970.699      6736.6251      9517.9611     -1460.4291      347.82055      544.73101      43028.864     -30744.873     -489.8744       80121.004      43.110407      43.110407      43.110407      1.0379132     -2416.0473     -1537.2517     -2069.763     
     38500   38500          596.38834     -779.88903      40303.79       41219.882      13366.679      27853.203      6634.1734      9565.0797     -1484.2036      333.31759      523.52375      43029.24      -30747.928     -487.30452      80543.535      43.186058      43.186058      43.186058      1.0324683     -638.65475     -1183.0533     -517.95903    
     39000   39000          596.77521      85.010392      41473.649      41375.007      13375.35       27999.657      6671.1069      9584.1578     -1412.5845      331.64533      549.75248      43018.409     -30742.83      -493.30657      79563.565      43.010195      43.010195      43.010195      1.0451851     -1065.5587      752.87688      567.71295    
     39500   39500          603.48097     -110.45276      41175.213      41303.128      13525.644      27777.484      6510.4453      9578.9867     -1571.3304      382.57532      560.87167      43051.493     -30735.558     -494.2672       79408.93       42.982313      42.982313      42.982313      1.0472204     -65.053863     -831.72017      565.41577    
     40000   40000          606.43005      293.13703      41718.067      41374.754      13591.741      27783.013      6546.1287      9509.8325     -1497.686       344.32408      553.28318      43056.898     -30729.768     -488.74999      80305.33       43.143442      43.143442      43.143442      1.0355309      404.02028      564.30994     -88.919132    
     40500   40500          608.41028      1116.1939      42774.951      41464.018      13636.124      27827.894      6443.5983      9519.3142     -1474.6749      360.32988      655.2922       43063.207     -30739.172     -487.37811      80531.375      43.183884      43.183884      43.183884      1.0326242      523.13798      1066.803       1758.6408    
     41000   41000          599.90239      189.4036       41414.584      41194.989      13445.439      27749.551      6468.7396      9441.9668     -1453.9728      356.2311       643.07972      43038.059     -30744.553     -493.71195      79498.236      42.99842       42.99842       42.99842       1.046044       405.65253      98.757669      63.800596    
     41500   41500          599.19871      1101.9713      42486.145      41210.634      13429.667      27780.967      6488.1312      9472.2719     -1480.9532      329.33422      660.51887      43050.392     -30738.728     -494.53047      79366.655      42.974684      42.974684      42.974684      1.0477782      1750.3113      205.20719      1350.3953    
     42000   42000          604.25309     -29.905606      41579.947      41615.143      13542.95       28072.194      6668.0573      9434.259      -1530.373       349.72913      830.54067      43065.595     -30745.614     -486.36404      80699.283      43.213876      43.213876      43.213876      1.0304757      783.95249     -427.03525     -446.63406    
     42500   42500          604.40008      285.23408      41856.683      41522.582      13546.244      27976.338      6605.2465      9520.3158     -1512.1027      344.26447      700.48822      43057.522     -30739.396     -488.68707      80315.669      43.145293      43.145293      43.145293      1.0353976      488.65036      1035.606      -668.55409    
     43000   43000          595.34751     -321.63695      40932.086      41306.255      13343.351      27962.904      6622.0427      9595.8625     -1461.8954      351.48748      590.54632      43015.981     -30751.121     -492.04512      79767.541      43.046919      43.046919      43.046919      1.0425124     -30.46681       40.649282     -975.09332    
     43500   43500          597.1089      -781.8979       40356.166      41273.508      13382.829      27890.679      6568.6837      9502.8612     -1495.1599      368.23915      630.27796      43049.613     -30733.836     -487.89447      80446.145      43.168645      43.168645      43.168645      1.0337183     -1920.0453     -644.8039       219.15549    
     44000   44000          591.65877      1152.4152      42526.993      41183.46       13260.677      27922.783      6389.5696      9718.5622     -1483.7344      328.60604      664.4914       43046.995     -30741.707     -490.98419      79939.905      43.077902      43.077902      43.077902      1.0402646      623.09237      1279.4153      1554.7378    
     44500   44500          592.09382     -368.2284       40528.356      40955.943      13270.428      27685.515      6469.6463      9498.967      -1521.1557      312.55235      617.9508       43049.231     -30741.677     -492.94704      79621.594      43.020649      43.020649      43.020649      1.0444233      1681.0616     -771.66473     -2014.0821    
     45000   45000          607.13958      57.131609      41456.021      41389.077      13607.644      27781.433      6445.4173      9417.4798     -1399.9948      356.67995      637.32461      43064.282     -30739.756     -488.50897      80344.951      43.150536      43.150536      43.150536      1.0350202     -832.72322     -436.29596      1440.414     
     45500   45500          601.21627      1254.4517      43025.473      41549.727      13474.886      28074.841      6645.7293      9470.2238     -1522.3675      363.6881       827.88066      43038.048     -30748.361     -486.57474      80664.338      43.207638      43.207638      43.207638      1.0309221      1029.6539      707.34825      2026.3529    
     46000   46000          600.74381      807.20749      42315.817      41370.787      13464.297      27906.49       6470.9523      9421.2225     -1424.7302      367.56885      746.01585      43056.246     -30730.785     -488.93009      80275.75       43.138144      43.138144      43.138144      1.0359125      538.89566      781.53392      1101.1929    
     46500   46500          600.241       -202.46371      40993.098      41230.397      13453.028      27777.369      6508.7361      9464.8229     -1503.1619      347.57326      670.23811      43018.684     -30729.523     -488.38074      80366.047      43.154312      43.154312      43.154312      1.0347486     -1472.295       197.4432       667.4607     
     47000   47000          599.04966     -1429.4113      39608.364      41299.999      13426.327      27873.672      6642.3308      9464.3415     -1507.5905      357.28194      615.05031      43035.892     -30733.634     -483.6794       81147.2        43.293681      43.293681      43.293681      1.0247877     -2509.4574     -837.29384     -941.48279    
     47500   47500          608.83457      1059.9246      42634.37       41399.84       13645.633      27754.207      6470.6994      9557.2398     -1584.243       345.05088      644.39337      43057.904     -30736.837     -491.45105      79863.965      43.064257      43.064257      43.064257      1.0412537     -1596.7888      2691.3896      2085.1731    
     48000   48000          611.53242     -1566.6466      39947.532      41780.094      13706.099      28073.994      6631.4068      9711.0725     -1463.2193      365.32944      545.39155      43022.596     -30738.582     -489.34986      80206.888      43.125806      43.125806      43.125806      1.0368019     -437.95748     -2034.2414     -2227.7407    
     48500   48500          608.64362     -411.56272      41109.047      41591.517      13641.353      27950.164      6671.9996      9357.3973     -1425.548       344.31754      684.14869      43064.563     -30746.715     -488.28393      80381.98       43.157164      43.157164      43.157164      1.0345435      144.42548     -2171.4006      792.28694    
     49000   49000          598.22206     -562.06405      40712.025      41361.328      13407.778      27953.55       6743.6369      9543.2495     -1468.6875      340.01648      500.28641      43042.986     -30747.937     -495.50164      79211.099      42.946589      42.946589      42.946589      1.0498358     -383.87799     -1957.1079      654.79373    
     49500   49500          599.93111     -50.985749      41385.663      41444.942      13446.082      27998.859      6729.4779      9540.297      -1546.9141      376.18353      575.78873      43063.568     -30739.542     -492.33154      79721.136      43.038569      43.038569      43.038569      1.0431192      612.1469      -917.3807       152.27655    
     50000   50000          601.02201     -461.53054      41030.958      41570.922      13470.532      28100.389      6835.7707      9416.0619     -1454.3784      371.47322      622.77553      43053.527     -30744.841     -489.26344      80221.055      43.128345      43.128345      43.128345      1.0366188     -1899.9137     -997.17674      1512.4988    
     50500   50500          597.15042     -1436.5924      39711.084      41396.869      13383.76       28013.109      6702.6986      9387.7991     -1475.3073      355.15621      743.1884       43041.264     -30741.689     -487.7963       80462.335      43.17154       43.17154       43.17154       1.0335103      538.5626      -2150.6902     -2697.6495    
     51000   51000          602.05172      706.27562      42202.255      41370.178      13493.611      27876.567      6678.0672      9452.0113     -1536.2094      350.74626      636.16423      43041.901     -30746.114     -485.86762      80781.735      43.228589      43.228589      43.228589      1.0294239      2208.2254     -221.38752      131.98898    
     51500   51500          620.53693      815.15093      42606.674      41653.065      13907.915      27745.15       6353.4693      9552.6404     -1506.3363      355.10103      678.26179      43046.721     -30734.707     -489.29933      80215.171      43.12729       43.12729       43.12729       1.0366948     -263.30012      1351.3956      1357.3573    
     52000   52000          605.92123     -933.91577      40290.803      41388.097      13580.337      27807.759      6568.4967      9373.7976     -1491.8789      360.10127      712.54468      43022.629     -30737.931     -487.18278      80563.662      43.189655      43.189655      43.189655      1.0322104     -1871.5314     -519.82412     -410.39183    
     52500   52500          603.32601      64.809241      41374.499      41297.088      13522.171      27774.916      6447.42        9384.8934     -1531.1898      325.17165      822.9982       43064.485     -30738.862     -479.22268      81901.86       43.427476      43.427476      43.427476      1.0153451     -120.89461     -1404.4496      1719.7719    
     53000   53000          603.44617      657.72445      42080.871      41309.244      13524.864      27784.38       6597.5393      9434.8641     -1524.3985      342.81549      625.9469       43045.262     -30737.649     -487.91453      80442.838      43.168053      43.168053      43.168053      1.0337608      103.54463      2001.3817     -131.75301    
     53500   53500          595.35461      271.5392       41500.683      41182.739      13343.511      27839.229      6469.6035      9647.0706     -1545.6212      329.49494      633.35376      43046.159     -30740.832     -488.86624      80286.233      43.140022      43.140022      43.140022      1.0357772     -898.39365      2379.7742     -666.76291    
     54000   54000          594.65479     -618.81935      40668.948      41393.624      13327.826      28065.798      6757.7272      9593.4098     -1506.4892      361.32777      569.85477      43024.143     -30734.176     -488.79519      80297.905      43.142112      43.142112      43.142112      1.0356267     -1585.5069     -389.19009      118.23896    
     54500   54500          597.02659     -613.72495      40646.906      41365.366      13380.984      27984.382      6475.3141      9623.7224     -1516.3747      365.72103      714.50013      43054.546     -30733.047     -488.96571      80269.901      43.137096      43.137096      43.137096      1.035988       111.77702     -434.06034     -1518.8915    
     55000   55000          603.36124     -67.699619      41250.588      41330.441      13522.961      27807.48       6515.2717      9467.7845     -1422.8602      338.32314      602.0766       43043.913     -30737.028     -485.28704      80878.379      43.245821      43.245821      43.245821      1.0281938     -994.87997     -867.62607      1659.4072    
     55500   55500          610.97955      804.24277      42577.176      41644.462      13693.708      27950.754      6584.1947      9392.109      -1487.7577      349.9777       797.31847      43052.43      -30737.518     -493.56684      79521.61       43.002634      43.002634      43.002634      1.0457365     -1045.7529      342.94911      3115.5322    
     56000   56000          614.37942      1321.6441      43189.202      41643.779      13769.908      27873.871      6457.2632      9523.5422     -1487.2286      334.8651       696.16638      43093.983     -30744.72      -489.52433      80178.301      43.120681      43.120681      43.120681      1.0371715      1966.3181      1484.443       514.17133    
     56500   56500          599.73049      1036.9689      42681.118      41460.709      13441.586      28019.123      6587.2811      9601.0807     -1559.7501      317.9344       760.05417      43054.783     -30742.26      -486.37031      80698.242      43.213691      43.213691      43.213691      1.030489       1100.5618     -589.62032      2599.9651    
     57000   57000          597.74492     -710.36082      40516.35       41353.682      13397.084      27956.598      6628.4604      9529.3323     -1563.5381      403.61136      641.0193       43049.715     -30732.002     -485.61035      80824.532      43.236221      43.236221      43.236221      1.0288788     -242.34072     -1853.4169     -35.324884    
     57500   57500          591.19262     -1101.6769      39891.947      41183.031      13250.229      27932.802      6807.0186      9312.6169     -1498.957       352.87157      654.56104      43041.085     -30736.394     -488.43516      80357.093      43.15271       43.15271       43.15271       1.0348639     -1301.2619     -1133.0167     -870.75199    
     58000   58000          602.94039      1514.7414      42802.479      41048.253      13513.528      27534.725      6529.8922      9279.8546     -1533.5375      353.58158      591.82939      43053.705     -30740.601     -494.26512      79409.263      42.982373      42.982373      42.982373      1.047216       2437.3067      1082.4051      1024.5124    
     58500   58500          596.21018     -388.57949      40571.611      41024.054      13362.686      27661.368      6493.9523      9433.1417     -1445.6588      328.39732      586.77615      43005.518     -30740.759     -491.61242      79837.75       43.059544      43.059544      43.059544      1.0415956      908.84665      105.4848      -2180.0699    
     59000   59000          596.71877     -208.11869      40949.056      41192.673      13374.085      27818.588      6524.3183      9441.5095     -1459.9093      368.02614      638.07831      43039.749     -30733.184     -489.00275      80263.821      43.136007      43.136007      43.136007      1.0360664     -1723.7782     -443.65804      1543.0801    
     59500   59500          591.75992     -629.51731      40615.823      41355.462      13262.944      28092.518      6708.1397      9585.7337     -1469.1804      350.28445      595.25772      43052.99      -30730.707     -487.18615      80563.105      43.189555      43.189555      43.189555      1.0322175      185.76187     -863.36431     -1210.9495    
     60000   60000          601.52684      66.208662      41442.359      41365.003      13481.847      27883.156      6825.1673      9383.7507     -1549.0686      351.80562      564.38985      43040.369     -30733.258     -489.92387      80112.915      43.108957      43.108957      43.108957      1.038018      -399.75217      549.24122      49.136943    
     60500   60500          594.8846      -403.64185      40752.466      41223.957      13332.976      27890.98       6769.415       9370.2356     -1425.2799      376.94746      483.53926      43059.984     -30743.861     -490.03784      80094.282      43.105614      43.105614      43.105614      1.0382595     -857.75072      763.05168     -1116.2265    
     61000   61000          608.7448      -1073.1637      40581.636      41828.316      13643.621      28184.695      6680.0897      9622.8402     -1465.7703      334.73613      707.94247      43044.419     -30739.562     -492.74025      79655.009      43.026666      43.026666      43.026666      1.0439852      173.78957     -949.49474     -2443.7858    
     61500   61500          598.60488     -557.63723      40752.074      41402.107      13416.358      27985.749      6569.8673      9713.3282     -1535.4084      345.72679      589.11917      43040.641     -30737.525     -491.04749      79929.599      43.076051      43.076051      43.076051      1.0403987     -83.728544     -1011.4213     -577.76187    
     62000   62000          591.21909     -1066.4906      39935.769      41174.518      13250.822      27923.696      6693.8227      9449.6089     -1467.4094      335.85977      589.46882      43054.383     -30732.038     -492.8113       79643.526      43.024598      43.024598      43.024598      1.0441357     -2624.6604     -2688.7747      2113.9632    
     62500   62500          591.20582      1173.7092      42546.366      41169.663      13250.525      27919.138      6545.632       9588.0285     -1556.1691      365.0459       644.4907       43074.718     -30742.608     -488.00828      80427.384      43.165288      43.165288      43.165288      1.0339594      1997.5022     -855.91765      2379.543     
     63000   63000          602.44786     -1312.9081      39717.735      41256.633      13502.49       27754.143      6545.601       9428.757      -1511.1157      333.08252      645.62022      43052.57      -30740.372     -488.35033      80371.05       43.155208      43.155208      43.155208      1.0346841     -2095.1728     -3003.789       1160.2375    
     63500   63500          608.12315      803.62967      42709.027      41772.612      13629.688      28142.923      6652.1773      9600.9292     -1519.4096      372.13977      674.51575      43084.384     -30721.813     -491.24102      79898.111      43.070393      43.070393      43.070393      1.0408087      288.62567      328.42755      1793.8358    
     64000   64000          601.26906      948.06031      42748.558      41633.007      13476.07       28156.938      6702.5819      9507.7039     -1489.6074      398.2114       696.30977      43079.26      -30737.522     -486.46754      80682.113      43.210811      43.210811      43.210811      1.030695       1282.1839      2264.3733     -702.37625    
     64500   64500          603.50848      324.39699      41854.753      41477.136      13526.261      27950.875      6614.4199      9630.3285     -1487.3241      331.10574      550.69292      43053.394     -30741.742     -491.73541      79817.781      43.055954      43.055954      43.055954      1.0418562      1553.0704     -1437.2265      857.34713    
     65000   65000          593.07351      733.97866      42048.111      41204.87       13292.385      27912.485      6740.991       9426.0061     -1548.6488      356.09639      641.01261      43040.783     -30743.756     -498.23966      78775.803      42.867775      42.867775      42.867775      1.055637       518.15736      529.28517      1154.4935    
     65500   65500          608.64639     -982.93846      40372.66       41521.281      13641.416      27879.865      6513.1913      9472.4386     -1433.5045      369.03248      646.17228      43055.82      -30743.285     -489.84276      80126.179      43.111336      43.111336      43.111336      1.0378462     -728.00849     -1330.9881     -889.81878    
     66000   66000          596.31943     -219.427        41163.313      41420.271      13365.135      28055.136      6586.3461      9624.8235     -1504.4531      364.14864      676.70544      43054.463     -30746.898     -488.80454      80296.368      43.141837      43.141837      43.141837      1.0356465     -470.68098     -848.09386      660.49384    
     66500   66500          597.21787      1208.7282      42627.349      41218.668      13385.271      27833.396      6549.5218      9475.9386     -1559.4775      356.96059      692.30776      43058.287     -30740.142     -491.15975      79911.331      43.072769      43.072769      43.072769      1.0406365      2000.8103      1825.5864     -200.21207    
     67000   67000          596.6707       810.00437      42354.181      41406.788      13373.008      28033.78       6585.5429      9499.7489     -1485.9432      349.23836      754.33101      43069.617     -30738.756     -489.39996      80198.678      43.124334      43.124334      43.124334      1.036908      -458.42411      748.14462      2140.2926    
     67500   67500          604.28542      252.85229      41886.279      41587.835      13543.674      28044.161      6534.5828      9705.4217     -1608.0981      357.29376      700.02145      43091.405     -30736.466     -484.96613      80931.898      43.255358      43.255358      43.255358      1.0275139     -775.77595      1288.3361      245.99674    
     68000   68000          601.93593     -237.81369      41426.214      41706.964      13491.016      28215.948      6639.8276      9739.7587     -1543.6875      330.78031      729.31582      43057.827     -30737.874     -484.86918      80948.081      43.258241      43.258241      43.258241      1.0273085      1532.8866     -1474.2116     -772.11614    
     68500   68500          604.67507     -1169.0091      39941.884      41302.513      13552.407      27750.105      6463.3339      9504.4577     -1469.3761      332.62909      584.08126      43073.165     -30738.186     -491.79625      79807.907      43.054178      43.054178      43.054178      1.0419851      117.63159     -1244.3532     -2380.3057    
     69000   69000          595.93129     -1607.2114      39274.47       41160.626      13356.436      27804.19       6589.0521      9494.1288     -1492.8529      333.98978      606.53985      43012.318     -30738.985     -487.75575      80469.024      43.172737      43.172737      43.172737      1.0334244     -3344.7233     -262.28239     -1214.6285    
     69500   69500          600.64717     -70.816162      41310.747      41393.59       13462.131      27931.459      6703.1055      9369.9164     -1433.6671      350.68422      603.7182       43072.022     -30734.32      -489.30937      80213.525      43.126995      43.126995      43.126995      1.0367161      550.07007     -1640.4845      877.96596    
     70000   70000          600.13838      673.26948      42304.89       41517.061      13450.728      28066.333      6753.1144      9439.1693     -1457.4591      353.40238      651.92795      43063.952     -30737.774     -489.17457      80235.629      43.130956      43.130956      43.130956      1.0364305      299.90249      633.29962      1086.6063    
     70500   70500          609.3517      -278.55014      41282.293      41607.255      13657.223      27950.032      6637.3226      9542.8439     -1522.5296      364.44129      613.39485      43056.024     -30741.465     -490.65686      79993.235      43.087479      43.087479      43.087479      1.039571      -1668.8765      1099.6466     -266.42049    
     71000   71000          600.89588      755.85006      42561.254      41672.095      13467.706      28204.389      6728.9216      9542.0342     -1485.1783      378.03831      734.01279      43040.029     -30733.469     -486.58985      80661.833      43.207191      43.207191      43.207191      1.0309541      942.65472      985.61841      339.27706    
     71500   71500          605.45415      16.736507      41393.539      41373.89       13569.869      27804.021      6421.8208      9555.6413     -1512.7828      360.86162      642.7148       43062.036     -30726.271     -487.57162      80499.412      43.17817       43.17817       43.17817       1.0330343      912.59183     -15.539593     -846.84272    
     72000   72000          602.40212      1011.9529      42559.87       41377.081      13501.465      27875.616      6520.7248      9443.8399     -1478.6913      352.76914      690.60117      43077.111     -30730.739     -489.73356      80144.047      43.11454       43.11454       43.11454       1.0376148     -670.48061      525.52056      3180.8186    
     72500   72500          609.78518      108.87802      41657.142      41528.774      13666.939      27861.836      6637.454       9510.926      -1568.5291      364.77337      597.75299      43054.814     -30735.356     -485.50118      80842.705      43.239462      43.239462      43.239462      1.0286475     -579.19552      1315.4937     -409.66413    
     73000   73000          606.81363     -579.94589      40830.28       41512.646      13600.338      27912.308      6596.5322      9541.405      -1484.5236      353.06599      599.13071      43044.427     -30737.729     -486.49373      80677.77       43.210036      43.210036      43.210036      1.0307505     -529.53042     -703.26558     -507.04167    
     73500   73500          604.36612     -806.06791      40705.431      41648.914      13545.483      28103.431      6632.5894      9505.2621     -1478.25        348.53682      714.66118      43105.073     -30724.442     -489.04058      80257.612      43.134895      43.134895      43.134895      1.0361466      141.3542      -1171.5572     -1388.0007    
     74000   74000          601.90316      487.14211      41910.65       41340.444      13490.282      27850.162      6604.5331      9334.4976     -1459.0317      357.26823      679.0602       43071.561     -30737.726     -489.02477      80260.206      43.13536       43.13536       43.13536       1.0361131      1637.7069     -1409.0388      1232.7582    
     74500   74500          599.23015     -1185.4806      39867.969      41262.482      13430.372      27832.11       6709.9048      9287.2827     -1514.883       356.14059      687.45291      43038.968     -30732.756     -486.60777      80658.862      43.20666       43.20666       43.20666       1.0309921     -2535.4489     -906.72709     -114.26572    
     75000   75000          607.39064     -1382.0372      40294.797      41941.592      13613.271      28328.321      6703.5017      9689.4316     -1499.8186      366.61853      755.78378      43052.667     -30739.863     -480.38246      81704.127      43.392499      43.392499      43.392499      1.0178023      381.61238     -2765.5351     -1762.1889    
[...]
   4776000   4776000        149.91875     -149.08518      20137.374      20295.279      3360.0857      16935.193      2393.1467      5097.4741     -2143.7228      128.80476     -800.09481      43092.394     -30832.809     -540.43931      72624.675      41.721643      41.721643      41.721643      1.1450468     -420.6658       1153.191      -1179.7807    
   4776500   4776500        154.3223      -423.9027       20020.158      20467.409      3458.7811      17008.628      2411.3186      5161.2636     -2121.1943      130.61206     -833.76213      43091.433     -30831.042     -542.52704      72345.204      41.668057      41.668057      41.668057      1.1494701     -1501.8587      304.88666     -74.736062    
   4777000   4777000        146.64513      846.07489      21190.385      20298.211      3286.7149      17011.496      2323.6683      5186.6375     -2125.1633      134.02484     -768.95475      43095.017     -30833.733     -542.83308      72304.417      41.660225      41.660225      41.660225      1.1501185      1162.2514      370.93614      1005.0371    
   4777500   4777500        148.21662      130.37489      20455.073      20317.595      3321.9361      16995.659      2406.022       5133.2146     -2135.2912      133.55526     -797.38703      43092.008     -30836.463     -542.83378      72304.323      41.660207      41.660207      41.660207      1.15012       -375.54201      606.044        160.62267    
   4778000   4778000        150.91371      210.64728      20580.986      20358.37       3382.3854      16975.985      2388.0496      5105.2188     -2133.1001      137.53378     -796.5025       43107.354     -30832.569     -541.63497      72464.356      41.69092       41.69092       41.69092       1.1475801     -1609.7754      872.85602      1368.8613    
   4778500   4778500        152.31196      776.62404      21235.691      20417.453      3413.724       17003.729      2357.0841      5134.7127     -2128.9142      135.13276     -776.17969      43113.427     -30831.534     -543.298        72242.544      41.648338      41.648338      41.648338      1.1511036      531.50152     -212.31471      2010.6853    
   4779000   4779000        151.57458      175.70831      20579.533      20394.137      3397.1972      16996.94       2417.2123      5153.6941     -2130.901       133.1133      -814.96563      43074.934     -30836.147     -542.49892      72348.954      41.668777      41.668777      41.668777      1.1494105      1373.997      -636.7682      -210.10383    
   4779500   4779500        150.29179     -51.105796      20235.525      20289.361      3368.4464      16920.915      2360.05        5127.4163     -2130.9549      127.99373     -829.60395      43099.948     -30833.935     -543.38304      72231.237      41.646165      41.646165      41.646165      1.1512838      198.43854     -683.92289      332.16697    
   4780000   4780000        148.86343      1117.584       21495.928      20317.164      3336.4331      16980.731      2363.7362      5147.3206     -2144.5906      129.10149     -779.64053      43097.599     -30832.795     -542.70061      72322.065      41.663614      41.663614      41.663614      1.1498379      1236.7797      487.60212      1628.3702    
   4780500   4780500        150.5401       184.25665      20627.956      20433.171      3374.0117      17059.159      2448.5757      5164.4716     -2129.3006      132.47415     -819.88478      43096.083     -30833.26      -541.47036      72486.385      41.695144      41.695144      41.695144      1.1472313      431.07932     -79.733488      201.42412    
   4781000   4781000        149.39444      1123.71        21563.436      20377.517      3348.3344      17029.183      2420.1469      5111.6275     -2107.8546      127.30525     -790.26786      43102.617     -30834.391     -542.38335      72364.37       41.671736      41.671736      41.671736      1.1491657      232.43867      1908.8237      1229.8675    
   4781500   4781500        150.38964     -413.182        19897.095      20333.17       3370.6395      16962.531      2312.6299      5164.7873     -2136.922       133.09766     -768.31864      43089.515     -30832.259     -542.35916      72367.597      41.672356      41.672356      41.672356      1.1491144     -771.29605     -735.67141      267.42147    
   4782000   4782000        148.3772       436.12315      20762.715      20304.464      3325.5353      16978.928      2427.7954      5152.2147     -2129.2385      132.24887     -851.9986       43084.427     -30836.521     -544.76913      72047.454      41.610814      41.610814      41.610814      1.1542205     -678.77808      840.08503      1147.0625    
   4782500   4782500        150.19145      340.21732      20691.151      20332.336      3366.1976      16966.138      2324.1247      5156.3321     -2128.8606      136.8678      -790.48926      43102.543     -30834.379     -542.74114      72316.665      41.662577      41.662577      41.662577      1.1499238      1884.8406      233.16461     -1097.3533    
   4783000   4783000        152.08784      289.0864       20643.771      20339.99       3408.7008      16931.289      2402.5946      5097.2824     -2158.3965      130.7684      -800.11046      43093.191     -30834.041     -544.72103      72053.816      41.612039      41.612039      41.612039      1.1541186     -95.411787      198.93558      763.73541    
   4783500   4783500        152.86318      527.28371      20982.434      20424.232      3426.0782      16998.154      2359.0771      5177.2888     -2154.3979      133.95207     -793.6524       43106.269     -30830.382     -540.70489      72589.004      41.714811      41.714811      41.714811      1.1456095      830.62393      575.78262      175.44457    
   4784000   4784000        150.63423     -815.33171      19518.855      20380.613      3376.1214      17004.492      2426.0683      5181.614      -2123.523       129.85827     -877.14404      43099.486     -30831.868     -541.57177      72472.813      41.692542      41.692542      41.692542      1.1474462     -999.77586     -212.46094     -1233.7583    
   4784500   4784500        150.87809      753.56328      21125.268      20329.115      3381.587       16947.528      2367.812       5142.5791     -2154.63        128.9831      -807.48775      43102.278     -30832.006     -541.78916      72443.733      41.686965      41.686965      41.686965      1.1479068      984.4946       215.76526      1060.43      
   4785000   4785000        150.59584     -290.63597      19979.386      20286.092      3375.2611      16910.831      2377.1493      5111.0012     -2134.8192      135.85268     -825.18324      43082.585     -30835.755     -542.41899      72359.615      41.670823      41.670823      41.670823      1.1492412      95.487521      235.98495     -1203.3804    
   4785500   4785500        149.32649     -320.72288      19993.215      20331.818      3346.8115      16985.007      2426.6772      5093.7622     -2094.3         124.94003     -843.97117      43112.907     -30835.008     -542.18306      72391.102      41.676867      41.676867      41.676867      1.1487413     -184.03334      194.67072     -972.80602    
   4786000   4786000        149.00473      32.696863      20302.163      20267.635      3339.5999      16928.035      2378.6722      5090.1065     -2128.7665      125.06178     -811.03884      43108.14      -30834.14      -542.05691      72407.95       41.6801        41.6801        41.6801        1.148474       471.20761     -977.22684      604.10982    
   4786500   4786500        149.35612      123.36839      20399.085      20269.22       3347.4755      16921.745      2414.2049      5082.1312     -2112.6072      130.78585     -854.45895      43094.698     -30833.01      -543.77553      72179.101      41.636143      41.636143      41.636143      1.1521154     -970.51768      1898.5621     -557.9392     
   4787000   4787000        148.82039     -670.08822      19602.693      20309.63       3335.4684      16974.162      2369.2245      5157.0457     -2117.5674      129.5709      -823.47202      43092.245     -30832.885     -542.57337      72339.027      41.666871      41.666871      41.666871      1.1495683     -79.957265     -1356.8204     -573.48701    
   4787500   4787500        151.08895      623.75855      21010.681      20352.417      3386.3129      16966.104      2361.5152      5166.2208     -2126.7867      131.7133      -811.00224      43081.915     -30837.471     -542.40507      72361.471      41.67118       41.67118       41.67118       1.1492117      542.71215      1031.9473      296.61616    
   4788000   4788000        150.97057      181.87052      20540.219      20348.305      3383.6597      16964.645      2376.8398      5166.2721     -2126.8012      125.24642     -820.63449      43081.223     -30837.501     -542.45349      72355.012      41.66994       41.66994       41.66994       1.1493143     -175.64957      412.88711      308.37403    
   4788500   4788500        147.36628      7.6546292      20257.6        20249.529      3302.8779      16946.651      2386.309       5093.8119     -2117.3763      134.07756     -806.92896      43089.053     -30832.296     -542.83964      72303.543      41.660057      41.660057      41.660057      1.1501325      576.87735      84.619823     -638.53329    
   4789000   4789000        150.60644      44.348662      20310.387      20263.636      3375.4985      16888.137      2319.8252      5146.5421     -2162.9912      139.99747     -809.49063      43085.04      -30830.786     -542.99229      72283.216      41.656153      41.656153      41.656153      1.1504559      34.040692      376.07558     -277.07029    
   4789500   4789500        151.51989     -36.520793      20316.8        20355.215      3395.9716      16959.244      2366.5822      5164.1639     -2122.9295      131.18568     -824.44255      43080.555     -30835.871     -544.17702      72125.849      41.625901      41.625901      41.625901      1.152966       801.21527     -59.036065     -851.74159    
   4790000   4790000        149.55375     -100.49771      20267.758      20373.676      3351.905       17021.771      2384.5286      5176.721      -2117.1398      130.33539     -817.2996       43094.781     -30830.156     -543.11828      72266.449      41.652931      41.652931      41.652931      1.1507228      132.78658     -154.12846     -280.15124    
   4790500   4790500        150.42074      619.95158      20987.923      20335.817      3371.3366      16964.48       2407.9366      5111.1625     -2113.59        135.74294     -839.63849      43097.668     -30834.801     -544.18539      72124.739      41.625687      41.625687      41.625687      1.1529837      1173.3431      351.95544      334.55623    
   4791000   4791000        148.8874      -248.15078      20055.54       20317.579      3336.9701      16980.609      2416.8554      5140.3557     -2113.5653      126.07283     -844.28187      43091.158     -30835.986     -542.07191      72405.946      41.679715      41.679715      41.679715      1.1485058      166.69238     -69.318174     -841.82655    
   4791500   4791500        148.25515      294.34558      20588.585      20277.379      3322.7998      16954.579      2333.4698      5135.2372     -2126.8362      136.69984     -797.72072      43101.76      -30828.031     -541.39867      72495.984      41.696985      41.696985      41.696985      1.1470794     -79.596264     -188.12289      1150.7559    
   4792000   4792000        151.48868     -31.262696      20275.537      20308.472      3395.272       16913.2        2385.2172      5135.7733     -2144.5637      126.11297     -836.88983      43078.514     -30830.964     -543.34056      72236.885      41.647251      41.647251      41.647251      1.1511938      403.43799     -262.47035     -234.75573    
   4792500   4792500        151.42521      148.0889       20518.078      20362.192      3393.8494      16968.343      2427.4125      5137.4325     -2140.006       137.11728     -859.2008       43096.658     -30831.071     -543.78096      72178.381      41.636004      41.636004      41.636004      1.1521268     -717.1416       153.67356      1007.7347    
   4793000   4793000        149.50062     -117.63376      20210.604      20334.639      3350.7142      16983.925      2428.9445      5103.8052     -2124.0436      135.98783     -813.8112       43085.326     -30832.284     -542.86811      72299.751      41.659329      41.659329      41.659329      1.1501928     -117.74916     -884.08984      648.93772    
   4793500   4793500        145.28238     -115.0264       20072.029      20193.099      3256.1719      16936.927      2429.6038      5069.2533     -2153.7954      132.89944     -791.56008      43086.512     -30835.986     -543.83762      72170.861      41.634558      41.634558      41.634558      1.1522469     -366.47166      72.410686     -51.018233    
   4794000   4794000        151.35786      218.91128      20607.316      20376.321      3392.3399      16983.981      2445.0781      5070.5626     -2096.0975      130.19733     -829.7344       43095.973     -30831.999     -542.46464      72353.526      41.669655      41.669655      41.669655      1.1493379      513.49114      659.67561     -516.43292    
   4794500   4794500        149.77043     -1376.2076      18907.515      20364.822      3356.7614      17008.06       2414.6074      5114.6631     -2113.6614      127.39726     -797.27493      43094.136     -30831.807     -540.55501      72609.13       41.718666      41.718666      41.718666      1.1452919     -202.66561     -2526.031      -1399.9263    
   4795000   4795000        147.92253      60.080735      20293.49       20230.398      3315.3448      16915.053      2359.7659      5065.1703     -2116.0675      127.85144     -793.74298      43104.265     -30832.19      -545.08501      72005.703      41.602775      41.602775      41.602775      1.1548898     -617.01836     -324.14117      1121.4017    
   4795500   4795500        149.05409     -221.53764      20080.606      20314.593      3340.7062      16973.886      2405.0223      5116.6086     -2105.0077      121.77248     -822.18098      43093.446     -30835.774     -541.95489      72421.58       41.682715      41.682715      41.682715      1.1482579     -220.32656     -1015.2931      571.00677    
   4796000   4796000        149.86073     -365.99404      19909.963      20295.982      3358.7851      16937.197      2342.7009      5127.8117     -2129.2949      136.7612      -813.35979      43100.828     -30828.25      -542.71629      72319.976      41.663213      41.663213      41.663213      1.1498711     -492.31399     -124.09654     -481.57158    
   4796500   4796500        152.48059      201.50596      20622.807      20410.404      3417.5032      16992.901      2393.9694      5111.2864     -2112.7545      136.00415     -819.30247      43113.468     -30829.77      -543.04261      72276.518      41.654866      41.654866      41.654866      1.1505625      172.29142      224.74927      207.47719    
   4797000   4797000        151.20255      30.604093      20420.781      20388.562      3388.8589      16999.703      2380.0459      5224.997      -2158.7067      135.84883     -838.39461      43088.943     -30833.031     -543.71619      72186.978      41.637657      41.637657      41.637657      1.1519896      273.324       -310.78399      129.27227    
   4797500   4797500        149.74861     -201.61152      20114.514      20327.803      3356.2723      16971.531      2419.8732      5135.7761     -2137.4381      135.41368     -851.81549      43100.966     -30831.245     -541.06924      72540.122      41.705445      41.705445      41.705445      1.1463815     -370.39429     -895.35772      660.91745    
   4798000   4798000        147.2321       108.28874      20407.359      20293.532      3299.8704      16993.661      2373.9115      5183.7107     -2116.0828      136.28371     -851.57787      43095.023     -30827.607     -544.55698      72075.523      41.616217      41.616217      41.616217      1.153771      -102.08027      316.2012       110.7453     
   4798500   4798500        148.76901      309.49256      20591.899      20263.955      3334.3168      16929.638      2347.7176      5096.2901     -2140.5325      128.60417     -772.97364      43105.347     -30834.815     -540.20455      72656.236      41.727686      41.727686      41.727686      1.1445494      746.07607      129.6612       52.740416    
   4799000   4799000        148.78559      1098.191       21406.355      20251.619      3334.6884      16916.93       2327.6901      5133.2959     -2115.9088      128.60918     -824.98532      43100.074     -30831.845     -544.38011      72098.941      41.620724      41.620724      41.620724      1.1533963      1263.1587      487.7897       1543.6245    
   4799500   4799500        150.19028      158.00041      20510.847      20344.496      3366.1713      16978.325      2366.0879      5128.8783     -2118.7458      131.87701     -775.36949      43078.629     -30833.032     -543.67484      72192.47       41.638713      41.638713      41.638713      1.151902       247.51424      179.81405      46.672949    
   4800000   4800000        148.93016      6.3045879      20388.012      20381.364      3337.9285      17043.435      2405.6013      5149.9973     -2097.7005      133.02941     -810.28735      43091.123     -30828.328     -542.85023      72302.132      41.659786      41.659786      41.659786      1.1501549     -397.59878      247.2128       169.29974    
Loop time of 445.677 on 1 procs for 200000 steps with 7520 atoms

Performance: 38.772 ns/day, 0.619 hours/ns, 448.756 timesteps/s, 3.375 Matom-step/s
100.0% CPU use with 1 MPI tasks x 1 OpenMP threads

MPI task timing breakdown:
Section |  min time  |  avg time  |  max time  |%varavg| %total
---------------------------------------------------------------
Pair    | 61.585     | 61.585     | 61.585     |   0.0 | 13.82
Bond    | 53.851     | 53.851     | 53.851     |   0.0 | 12.08
Kspace  | 218.25     | 218.25     | 218.25     |   0.0 | 48.97
Neigh   | 32.692     | 32.692     | 32.692     |   0.0 |  7.34
Comm    | 4.1543     | 4.1543     | 4.1543     |   0.0 |  0.93
Output  | 0.04126    | 0.04126    | 0.04126    |   0.0 |  0.01
Modify  | 64.863     | 64.863     | 64.863     |   0.0 | 14.55
Other   |            | 10.24      |            |       |  2.30

Nlocal:           7520 ave        7520 max        7520 min
Histogram: 1 0 0 0 0 0 0 0 0 0
Nghost:          20689 ave       20689 max       20689 min
Histogram: 1 0 0 0 0 0 0 0 0 0
Neighs:              0 ave           0 max           0 min
Histogram: 1 0 0 0 0 0 0 0 0 0
FullNghs:  4.97719e+06 ave 4.97719e+06 max 4.97719e+06 min
Histogram: 1 0 0 0 0 0 0 0 0 0

Total # of neighbors = 4977190
Ave neighs/atom = 661.86037
Ave special neighs/atom = 5.7207447
Neighbor list builds = 4644
Dangerous builds = 0
  unfix npt_tg
  shell echo '{"stage":"T${temps}","status":"done"}' >> /home/alexzhao/PolyJarvis/data/PMMA4/lammps/thermal/tg_sweep_r100/tg_progress.jsonl
  print "STAGE COMPLETE: Tg step T=${temps}K P=1.0atm steps=200000"
STAGE COMPLETE: Tg step T=150K P=1.0atm steps=200000
  next temps
  jump SELF TEMP_LOOP

write_data tg_step_out.data
System init for write_data ...
PPPM Kokkos initialization ...
  using 12-bit tables for long-range coulomb
  G vector (1/distance) = 0.33358205
  grid = 45 45 45
  stencil order = 5
  estimated absolute RMS force accuracy = 0.00028251092
  estimated relative force accuracy = 8.5077325e-07
  using double precision cuFFT
  3d grid and FFT values/proc = 140608 91125
Generated 15 of 15 mixed pair_coeff terms from sixthpower/sixthpower mixing rule
Total wall time: 3:13:23
