units real
atom_style full
boundary p p p

# --- Force Field Styles ---
pair_style lj/cut 14.0
dielectric 1.000000
bond_style harmonic
angle_style harmonic
dihedral_style multi/harmonic
improper_style none
special_bonds lj 0 0 0
pair_modify mix arithmetic tail yes
neighbor 2.0 bin
neigh_modify delay 0 every 1 check yes
neigh_modify one 4000
package gpu 1 neigh yes

read_data /home/arz2/PolyJarvis/data/cis-PBD2/lammps/equil/npt_cool/npt_cool_out.data
Reading data file ...
  orthogonal box = (4.7662759 4.7662759 4.7662759) to (63.412102 63.412102 63.412102)
  1 by 1 by 1 MPI processor grid
  reading atoms ...
  8040 atoms
  reading velocities ...
  8040 velocities
  scanning bonds ...
  2 = max bonds/atom
  scanning angles ...
  1 = max angles/atom
  scanning dihedrals ...
  2 = max dihedrals/atom
  orthogonal box = (4.7662759 4.7662759 4.7662759) to (63.412102 63.412102 63.412102)
  1 by 1 by 1 MPI processor grid
  reading bonds ...
  8020 bonds
  reading angles ...
  8000 angles
  reading dihedrals ...
  7980 dihedrals
Finding 1-2 1-3 1-4 neighbors ...
  special bond factors lj:    0        0        0       
  special bond factors coul:  0        0        0       
     2 = max # of 1-2 neighbors
     2 = max # of 1-3 neighbors
     4 = max # of 1-4 neighbors
     6 = max # of special neighbors
  special bonds CPU = 0.002 seconds
  read_data CPU = 0.105 seconds
include /home/arz2/PolyJarvis/data/cis-PBD2/lammps/cell/emc_build.params
# LAMMPS parameters created by EMC v9.4.4, build Jul 31 2025 20:33:44

# Variables

variable	seed		index	734812
variable	ntotal		index	8040
variable	fshape		index	1
variable	output		index	emc_build
variable	field		index	trappe/2014/trappe-ua
variable	location1	index	/home/arz2/emc/field/
variable	nav		index	0.6022141179
variable	temperature	index	300
variable	radius		index	5
variable	nrelax		index	100
variable	weight_nonbond	index	0.0001
variable	weight_bond	index	0.0001
variable	weight_focus	index	1
variable	cutoff		index	14
variable	charge_cutoff	index	14
variable	kappa		index	4
variable	density1	index	0.57
variable	lprevious	index	0
variable	lphase		index	68.1783775471
variable	f_poly		index	20
variable	chem_repeat	index	*C/C=C\C*
variable	chem_cap	index	*C
variable	lg_repeat	index	4
variable	lg_cap		index	1
variable	norm_poly	index	100
variable	l_poly		index	402
variable	mg_repeat	index	54.0914
variable	mg_cap		index	15.0347
variable	m_poly		index	5439.2094
variable	n_poly		index	20
variable	mtotal		index	108784.188
variable	nphase1		index	8040
variable	mphase1		index	108784.188
variable	vphase1		index	316912.949994
variable	lbox		index	68.1783775471
variable	lphase1		index	68.1783775471
variable	lxx		index	68.1783775471
variable	lyy		index	68.1783775471
variable	lzz		index	68.1783775471
variable	lzy		index	0
variable	lzx		index	0
variable	lyx		index	0
variable	vtotal		index	316912.949994
variable	nl_poly		index	20

# Types

variable	type_c3h	index	1
variable	type_c4h2	index	2
variable	type_c4h3	index	3

variable	type_bond_c3h_c3h index	1
variable	type_bond_c3h_c4h2 index	2
variable	type_bond_c4h2_c4h2 index	3
variable	type_bond_c4h2_c4h3 index	4

variable	type_angle_c3h_c3h_c4h2 index	1
variable	type_angle_c3h_c4h2_c4h2 index	2
variable	type_angle_c3h_c4h2_c4h3 index	3

# Clusters

variable	n0_poly		index	1
variable	n1_poly		index	20
variable	nl_poly		index	20

# Flags

variable	flag_charged	index	0

# Masses

mass		1    13.01890  # c3h
mass		2    14.02680  # c4h2
mass		3    15.03470  # c4h3

# Potentials

pair_modify	mix arithmetic tail yes
special_bonds	lj 0 0 0 coul 0 0 0.5
Finding 1-2 1-3 1-4 neighbors ...
  special bond factors lj:    0        0        0       
  special bond factors coul:  0        0        0.5     
     2 = max # of 1-2 neighbors
     2 = max # of 1-3 neighbors
     4 = max # of 1-4 neighbors
     6 = max # of special neighbors
  special bonds CPU = 0.002 seconds

# Pair Coeffs

pair_coeff	1 1    0.09340    3.71000  # c3h,c3h
pair_coeff	2 2    0.09141    3.95000  # c4h2,c4h2
pair_coeff	3 3    0.19475    3.75000  # c4h3,c4h3

# Bond Coeffs

bond_coeff	1  529.99987    1.33000  # c3h,c3h
bond_coeff	2  260.00013    1.54000  # c3h,c4h2
bond_coeff	3  260.00013    1.54000  # c4h2,c4h2
bond_coeff	4  260.00013    1.54000  # c4h2,c4h3

# Angle Coeffs

angle_coeff	1   69.96954  119.70000  # c3h,c3h,c4h2
angle_coeff	2   62.10020  114.00000  # c3h,c4h2,c4h2
angle_coeff	3   62.10020  114.00000  # c3h,c4h2,c4h3

# Dihedral Coeffs

dihedral_coeff	1    1.91086    1.85422    0.43627   -2.24348    0.00000  # c3h,c3h,c4h2,c4h2
dihedral_coeff	2    1.91086    1.85422    0.43627   -2.24348    0.00000  # c3h,c3h,c4h2,c4h3
dihedral_coeff	3    2.00702   -4.01203    0.27102    6.29006    0.00000  # c3h,c4h2,c4h2,c3h
dihedral_coeff	4   25.63496    0.99360  -25.63496   -0.99360    0.00000  # c4h2,c3h,c3h,c4h2


# --- Thermo Output ---
thermo_style custom step time temp press enthalpy etotal ke pe ebond eangle edihed eimp evdwl ecoul elong etail vol lx ly lz density pxx pyy pzz
thermo_modify flush yes
thermo 1000

# --- Trajectory ---
dump dump_nvt all custom 1000 nvt_production.dump id type mol x y z ix iy iz vx vy vz

# --- Restart Checkpointing ---
# No restart checkpointing

# --- Initial Velocities (optional) ---
# Velocities read from data file

# --- SHAKE Constraints ---
# Constrains H-X bonds to allow 2fs timestep
# SHAKE disabled (TraPPE-UA united-atom)

# --- NVT Thermostat (Nose-Hoover) ---
# T_damp = 100.0 fs  (coupling timescale for heat exchange)
# Ramp: 300.0 K -> 300.0 K over 2000000 steps
timestep 2.0
fix nvt_fix all nvt temp 300.0 300.0 100.0

run 2000000

CITE-CITE-CITE-CITE-CITE-CITE-CITE-CITE-CITE-CITE-CITE-CITE-CITE

Your simulation uses code contributions which should be cited:

- GPU package (short-range, long-range and three-body potentials): doi:10.1016/j.cpc.2010.12.021, doi:10.1016/j.cpc.2011.10.012, doi:10.1016/j.cpc.2013.08.002, doi:10.1016/j.commatsci.2014.10.068, doi:10.1016/j.cpc.2016.10.020, doi:10.3233/APC200086

@Article{Brown11,
 author = {W. M. Brown and P. Wang and S. J. Plimpton and A. N. Tharrington},
 title = {Implementing Molecular Dynamics on Hybrid High Performance Computers---Short Range Forces},
 journal = {Comput.\ Phys.\ Commun.},
 year =    2011,
 volume =  182,
 pages =   {898--911},
 doi =     {10.1016/j.cpc.2010.12.021}
}

@Article{Brown12,
 author = {W. M. Brown and A. Kohlmeyer and S. J. Plimpton and A. N. Tharrington},
 title = {Implementing Molecular Dynamics on Hybrid High Performance Computers - Particle-Particle Particle-Mesh},
 journal = {Comput.\ Phys.\ Commun.},
 year =    2012,
 volume =  183,
 doi =     {10.1016/j.cpc.2011.10.012},
 pages =   {449--459}
}

@Article{Brown13,
 author = {W. M. Brown and Y. Masako},
 title = {Implementing Molecular Dynamics on Hybrid High Performance Computers---Three-Body Potentials},
 journal = {Comput.\ Phys.\ Commun.},
 year =    2013,
 volume =  184,
 pages =   {2785--2793},
 doi =     {10.1016/j.cpc.2013.08.002},
}

@Article{Trung15,
 author = {T. D. Nguyen and S. J. Plimpton},
 title = {Accelerating Dissipative Particle Dynamics Simulations for Soft Matter Systems},
 journal = {Comput.\ Mater.\ Sci.},
 year =    2015,
 doi =     {10.1016/j.commatsci.2014.10.068},
 volume =  100,
 pages =   {173--180}
}

@Article{Trung17,
 author = {T. D. Nguyen},
 title = {{GPU}-Accelerated {T}ersoff Potentials for Massively Parallel
    Molecular Dynamics Simulations},
 journal = {Comput.\ Phys.\ Commun.},
 year =    2017,
 doi =     {10.1016/j.cpc.2016.10.020},
 volume =  212,
 pages =   {113--122}
}

@inproceedings{Nikolskiy19,
 author = {V. Nikolskiy and V. Stegailov},
 title = {{GPU} Acceleration of Four-Site Water Models in {LAMMPS}},
 booktitle = {Proceedings of the International Conference on Parallel
    Computing (ParCo 2019), Prague, Czech Republic},
 doi =     {10.3233/APC200086},
 year =    2019
}

CITE-CITE-CITE-CITE-CITE-CITE-CITE-CITE-CITE-CITE-CITE-CITE-CITE

Generated 3 of 3 mixed pair_coeff terms from arithmetic mixing rule
Per MPI rank memory allocation (min/avg/max) = 15.7 | 15.7 | 15.7 Mbytes
   Step          Time           Temp          Press         Enthalpy        TotEng         KinEng         PotEng         E_bond        E_angle        E_dihed        E_impro         E_vdwl         E_coul         E_long         E_tail         Volume           Lx             Ly             Lz          Density          Pxx            Pyy            Pzz      
         0   0              300.02185     -351.73836      10656.674      11691.356      7189.3432      4502.0132      2474.9829      2421.1201      8674.8125      0             -9068.9022      0              0             -288.1704       201702.52      58.645826      58.645826      58.645826      0.89557821    -418.1222      -549.82155     -87.271332    
      1000   2000           305.80422      82.576684      12074.109      11831.199      7327.9045      4503.2947      2408.3979      2388.0983      8766.1076      0             -9059.3091      0              0             -288.1704       201702.52      58.645826      58.645826      58.645826      0.89557821     217.40914      529.63342     -499.3125     
      2000   4000           294.74402      126.6016       12067.272      11694.858      7062.8719      4631.9858      2469.5963      2472.4028      8809.0317      0             -9119.045       0              0             -288.1704       201702.52      58.645826      58.645826      58.645826      0.89557821     67.249837     -103.39938      415.95435    
      3000   6000           303.63206      262.09705      12707.868      11936.877      7275.8538      4661.0231      2483.4714      2436.4449      8789.3337      0             -9048.2268      0              0             -288.1704       201702.52      58.645826      58.645826      58.645826      0.89557821    -530.70299      831.12501      485.86913    
      4000   8000           301.10339      267.38594      12510.484      11723.935      7215.2598      4508.6748      2405.3608      2417.0525      8806.0909      0             -9119.8294      0              0             -288.1704       201702.52      58.645826      58.645826      58.645826      0.89557821     518.53401      503.76982     -220.14602    
      5000   10000          300.46432     -280.79075      10907.132      11733.113      7199.946       4533.1666      2414.8227      2403.1481      8802.2302      0             -9087.0343      0              0             -288.1704       201702.52      58.645826      58.645826      58.645826      0.89557821    -217.6122      -645.27983      20.519767    
      6000   12000          297.27586      747.83054      14000.462      11800.626      7123.5418      4677.084       2453.9848      2477.4795      8787.6049      0             -9041.9852      0              0             -288.1704       201702.52      58.645826      58.645826      58.645826      0.89557821     505.84631      745.46318      992.18214    
      7000   14000          299.91351      245.26256      12492.187      11770.717      7186.7471      4583.9696      2481.293       2409.2084      8777.0681      0             -9083.5999      0              0             -288.1704       201702.52      58.645826      58.645826      58.645826      0.89557821     371.70428      359.6774       4.4060066    
      8000   16000          299.71248      127.62366      12080.292      11704.871      7181.9298      4522.9412      2472.714       2377.2041      8740.2705      0             -9067.2474      0              0             -288.1704       201702.52      58.645826      58.645826      58.645826      0.89557821    -117.13294      592.12334     -92.119418    
      9000   18000          297.07849      364.70923      12768.269      11695.432      7118.8122      4576.6194      2457.1686      2334.6577      8820.6015      0             -9035.8084      0              0             -288.1704       201702.52      58.645826      58.645826      58.645826      0.89557821     188.38307      322.32036      583.42427    
     10000   20000          296.93187      30.031859      11872.911      11784.568      7115.2988      4669.2697      2473.9456      2473.5121      8793.8054      0             -9071.9935      0              0             -288.1704       201702.52      58.645826      58.645826      58.645826      0.89557821     263.55106      65.281267     -238.73675    
     11000   22000          296.74678      15.279687      11522.136      11477.188      7110.8635      4366.3249      2343.2322      2324.4737      8778.2017      0             -9079.5826      0              0             -288.1704       201702.52      58.645826      58.645826      58.645826      0.89557821    -113.78481      587.45212     -427.82824    
     12000   24000          306.19729      233.64316      12588.021      11900.731      7337.3236      4563.4072      2450.5339      2355.033       8866.1808      0             -9108.3405      0              0             -288.1704       201702.52      58.645826      58.645826      58.645826      0.89557821     364.44431      267.19665      69.288522    
     13000   26000          303.86227     -207.47096      11323.55       11933.852      7281.37        4652.4818      2428.9296      2447.2132      8845.2768      0             -9068.9378      0              0             -288.1704       201702.52      58.645826      58.645826      58.645826      0.89557821    -473.64035      427.05808     -575.83061    
     14000   28000          298.7427      -555.85625      10195.549      11830.669      7158.6913      4671.9777      2455.0032      2427.0279      8856.536       0             -9066.5894      0              0             -288.1704       201702.52      58.645826      58.645826      58.645826      0.89557821    -322.22648     -885.00917     -460.33312    
     15000   30000          302.57395      289.1069       12553.72       11703.276      7250.4986      4452.7774      2353.9356      2401.1171      8705.9547      0             -9008.23        0              0             -288.1704       201702.52      58.645826      58.645826      58.645826      0.89557821     73.169193      202.7413       591.41022    
     16000   32000          302.19758     -250.43473      11042.26       11778.945      7241.4796      4537.4654      2374.5313      2462.7098      8758.0864      0             -9057.8621      0              0             -288.1704       201702.52      58.645826      58.645826      58.645826      0.89557821    -604.75221     -320.54736      173.99536    
     17000   34000          297.81036     -78.521889      11467.697      11698.679      7136.3499      4562.3293      2444.9904      2360.0543      8826.1181      0             -9068.8336      0              0             -288.1704       201702.52      58.645826      58.645826      58.645826      0.89557821    -161.55205     -273.9411       199.92748    
     18000   36000          299.78721     -202.44527      11172.492      11768.01       7183.7206      4584.2889      2392.0991      2402.6704      8865.7083      0             -9076.1889      0              0             -288.1704       201702.52      58.645826      58.645826      58.645826      0.89557821    -82.970431     -292.73443     -231.63095    
     19000   38000          295.64047     -15.137077      11500.498      11545.025      7084.3533      4460.6721      2396.632       2375.6211      8763.1012      0             -9074.6822      0              0             -288.1704       201702.52      58.645826      58.645826      58.645826      0.89557821     479.35285      31.369647     -556.13373    
     20000   40000          303.22211     -299.32596      10873.138      11753.642      7266.0302      4487.6123      2422.0913      2344.3577      8805.9898      0             -9084.8266      0              0             -288.1704       201702.52      58.645826      58.645826      58.645826      0.89557821     15.83887      -861.09582     -52.720922    
     21000   42000          302.64362     -149.68302      11363.359      11803.67       7252.1679      4551.5023      2418.1984      2487.3086      8774.9622      0             -9128.967       0              0             -288.1704       201702.52      58.645826      58.645826      58.645826      0.89557821     6.7550275     -558.99659      103.1925     
     22000   44000          299.69196     -102.11887      11392.886      11693.281      7181.4381      4511.8433      2373.5339      2455.7874      8750.9752      0             -9068.4532      0              0             -288.1704       201702.52      58.645826      58.645826      58.645826      0.89557821    -169.91491     -344.84878      208.40709    
     23000   46000          301.92472     -268.28784      10861.446      11650.648      7234.9412      4415.7068      2395.3068      2328.9935      8739.3676      0             -9047.9611      0              0             -288.1704       201702.52      58.645826      58.645826      58.645826      0.89557821     92.353152     -225.34552     -671.87115    
     24000   48000          300.26527     -197.94275      11118.82       11701.093      7195.1762      4505.917       2412.081       2364.0693      8760.952       0             -9031.1852      0              0             -288.1704       201702.52      58.645826      58.645826      58.645826      0.89557821    -500.5848      -209.95615      116.7127     
     25000   50000          305.81256     -96.319424      11435.108      11718.444      7328.1044      4390.3394      2408.6096      2374.313       8666.3019      0             -9058.8852      0              0             -288.1704       201702.52      58.645826      58.645826      58.645826      0.89557821    -21.109643      107.65255     -375.50118    
     26000   52000          302.25585     -182.36145      11346.352      11882.791      7242.8759      4639.9154      2552.2989      2351.8756      8789.1009      0             -9053.36        0              0             -288.1704       201702.52      58.645826      58.645826      58.645826      0.89557821     223.44011     -9.363032      -761.16142    
     27000   54000          302.91745      442.43344      13019.85       11718.377      7258.7298      4459.6475      2407.5027      2325.574       8782.3281      0             -9055.7573      0              0             -288.1704       201702.52      58.645826      58.645826      58.645826      0.89557821     687.7873       578.07573      61.437289    
     28000   56000          297.05004     -66.415971      11586.349      11781.72       7118.1306      4663.5892      2512.5089      2448.5113      8775.9605      0             -9073.3915      0              0             -288.1704       201702.52      58.645826      58.645826      58.645826      0.89557821     631.68524     -553.36156     -277.5716     
     29000   58000          300.87811     -175.0612       11318.942      11833.906      7209.8615      4624.0449      2505.8987      2429.5207      8786.9571      0             -9098.3317      0              0             -288.1704       201702.52      58.645826      58.645826      58.645826      0.89557821     110.96251     -472.26924     -163.87689    
     30000   60000          296.34969     -56.292753      11492.243      11657.835      7101.3483      4556.4869      2474.575       2436.3481      8701.7232      0             -9056.1595      0              0             -288.1704       201702.52      58.645826      58.645826      58.645826      0.89557821    -188.58177      253.50259     -233.79908    
     31000   62000          302.87974     -431.95182      10430.384      11701.024      7257.8259      4443.1978      2414.9141      2416.2187      8733.5807      0             -9121.5158      0              0             -288.1704       201702.52      58.645826      58.645826      58.645826      0.89557821     23.183031     -600.83039     -718.20811    
     32000   64000          301.45936     -145.34644      11264.747      11692.302      7223.7899      4468.5119      2461.5925      2382.9307      8733.5397      0             -9109.5511      0              0             -288.1704       201702.52      58.645826      58.645826      58.645826      0.89557821     20.78072      -138.95644     -317.8636     
     33000   66000          295.48503      72.925139      11753.649      11539.131      7080.6285      4458.5022      2422.7749      2377.6062      8723.2228      0             -9065.1018      0              0             -288.1704       201702.52      58.645826      58.645826      58.645826      0.89557821     314.15153     -286.24728      190.87117    
     34000   68000          301.34795     -16.646713      11618.244      11667.212      7221.1202      4446.0919      2418.8413      2377.6527      8714.6629      0             -9065.0651      0              0             -288.1704       201702.52      58.645826      58.645826      58.645826      0.89557821     187.01726     -463.70349      226.74609    
     35000   70000          300.70805     -5.8123528      11708.912      11726.01       7205.7865      4520.2237      2437.619       2374.252       8741.4158      0             -9033.0632      0              0             -288.1704       201702.52      58.645826      58.645826      58.645826      0.89557821     134.70462     -45.842487     -106.29919    
     36000   72000          297.26393      156.57074      12163.887      11703.315      7123.2559      4580.0592      2399.7333      2472.7331      8771.6571      0             -9064.0642      0              0             -288.1704       201702.52      58.645826      58.645826      58.645826      0.89557821     688.12439     -45.143831     -173.26833    
     37000   74000          301.38767      449.60361      13093.128      11770.563      7222.0721      4548.4906      2461.2483      2417.6282      8757.2759      0             -9087.6617      0              0             -288.1704       201702.52      58.645826      58.645826      58.645826      0.89557821     1014.8708      102.41862      231.52139    
     38000   76000          297.71083      364.96683      12664.32       11590.725      7133.9649      4456.7601      2424.4934      2325.5536      8774.1212      0             -9067.4082      0              0             -288.1704       201702.52      58.645826      58.645826      58.645826      0.89557821     544.23737      773.55985     -222.89672    
     39000   78000          298.40309      283.57544      12543.866      11709.694      7150.5533      4559.1404      2407.92        2435.7888      8774.5634      0             -9059.1317      0              0             -288.1704       201702.52      58.645826      58.645826      58.645826      0.89557821     242.68718      317.00665      291.03248    
     40000   80000          303.94707      339.45734      12874.024      11875.468      7283.4021      4592.0655      2447.8347      2436.0495      8778.9068      0             -9070.7255      0              0             -288.1704       201702.52      58.645826      58.645826      58.645826      0.89557821     354.63783      379.37202      284.36218    
     41000   82000          299.64641     -181.59178      11179.648      11713.823      7180.3467      4533.476       2470.6624      2390.6979      8789.092       0             -9116.9764      0              0             -288.1704       201702.52      58.645826      58.645826      58.645826      0.89557821    -248.25703     -451.34949      154.83117    
     42000   84000          292.80529     -283.31631      10653.604      11487.014      7016.4148      4470.5993      2399.34        2364.1785      8788.5872      0             -9081.5064      0              0             -288.1704       201702.52      58.645826      58.645826      58.645826      0.89557821    -415.99889     -71.708261     -362.24177    
     43000   86000          300.42982      172.22386      12224.717      11718.1        7199.1191      4518.9804      2430.0411      2329.0402      8815.0262      0             -9055.1272      0              0             -288.1704       201702.52      58.645826      58.645826      58.645826      0.89557821     35.865039      418.75996      62.046572    
     44000   88000          298.87695      373.48056      12883.555      11784.915      7161.9083      4623.0069      2435.3597      2437.4648      8827.4043      0             -9077.2219      0              0             -288.1704       201702.52      58.645826      58.645826      58.645826      0.89557821     288.87327      714.24907      117.31934    
     45000   90000          297.57383      256.64264      12419.4        11664.454      7130.682       4533.7717      2413.4224      2363.0368      8805.6651      0             -9048.3527      0              0             -288.1704       201702.52      58.645826      58.645826      58.645826      0.89557821     365.0486       1.9558117      402.9235     
     46000   92000          300.15211     -21.052459      11661.33       11723.258      7192.4646      4530.7938      2399.7575      2439.4677      8788.0689      0             -9096.5004      0              0             -288.1704       201702.52      58.645826      58.645826      58.645826      0.89557821     318.47863     -203.8932      -177.74281    
     47000   94000          299.48806      150.91533      12037.547      11593.61       7176.552       4417.0583      2405.8303      2374.2576      8713.503       0             -9076.5326      0              0             -288.1704       201702.52      58.645826      58.645826      58.645826      0.89557821    -262.0637       293.04315      421.76653    
     48000   96000          295.77602      353.13428      12554.152      11515.364      7087.6015      4427.762       2423.4182      2386.9109      8713.5086      0             -9096.0757      0              0             -288.1704       201702.52      58.645826      58.645826      58.645826      0.89557821     153.16123      239.95619      666.28542    
     49000   98000          302.81442     -176.53543      11282.449      11801.75       7256.2608      4545.489       2494.4405      2388.1147      8727.9589      0             -9065.0251      0              0             -288.1704       201702.52      58.645826      58.645826      58.645826      0.89557821    -236.41282     -91.168152     -202.02532    
     50000   100000         297.20114      126.59804      12062.387      11689.983      7121.7512      4568.2318      2470.3115      2410.2769      8731.5963      0             -9043.953       0              0             -288.1704       201702.52      58.645826      58.645826      58.645826      0.89557821     64.831283     -279.47587      594.43871    
     51000   102000         296.25174     -140.36235      11327.498      11740.392      7099.0011      4641.3905      2485.8399      2437.7421      8728.3426      0             -9010.5342      0              0             -288.1704       201702.52      58.645826      58.645826      58.645826      0.89557821     28.993958     -67.16663      -382.91437    
     52000   104000         297.31915      368.24286      12742.532      11659.3        7124.5791      4534.7205      2434.0779      2400.1329      8769.419       0             -9068.9094      0              0             -288.1704       201702.52      58.645826      58.645826      58.645826      0.89557821     421.12673     -119.83653      803.43837    
     53000   106000         296.80127      456.10301      12952.883      11611.199      7112.1693      4499.0296      2433.5189      2383.1451      8736.6062      0             -9054.2405      0              0             -288.1704       201702.52      58.645826      58.645826      58.645826      0.89557821     563.107       -39.246762      844.44879    
     54000   108000         300.38571      373.25742      12769.955      11671.972      7198.0623      4473.9092      2398.4375      2410.734       8730.9603      0             -9066.2227      0              0             -288.1704       201702.52      58.645826      58.645826      58.645826      0.89557821     241.78831      379.05467      498.92928    
     55000   110000         302.06751      249.48276      12546.081      11812.196      7238.3627      4573.8333      2443.9941      2392.5378      8808.413       0             -9071.1116      0              0             -288.1704       201702.52      58.645826      58.645826      58.645826      0.89557821     303.85686      64.256518      380.3349     
     56000   112000         300.79249     -102.87425      11516.712      11819.329      7207.8099      4611.5192      2412.0277      2470.7269      8791.8737      0             -9063.1091      0              0             -288.1704       201702.52      58.645826      58.645826      58.645826      0.89557821     1.6768355      54.873494     -365.17308    
     57000   114000         298.3191      -310.36571      10678.999      11591.978      7148.5407      4443.4377      2398.6215      2377.9223      8783.3629      0             -9116.469       0              0             -288.1704       201702.52      58.645826      58.645826      58.645826      0.89557821     257.54433     -675.99775     -512.6437     
     58000   116000         301.13573      31.8015        11769.712      11676.163      7216.0348      4460.1287      2442.3479      2387.1037      8734.6036      0             -9103.9266      0              0             -288.1704       201702.52      58.645826      58.645826      58.645826      0.89557821     353.48173     -211.67912     -46.398112    
     59000   118000         298.08626      429.90393      12923.161      11658.545      7142.9611      4515.5841      2427.0367      2395.8592      8727.9231      0             -9035.2349      0              0             -288.1704       201702.52      58.645826      58.645826      58.645826      0.89557821     389.74808      294.16989      605.79381    
     60000   120000         299.57088     -324.62065      10889.435      11844.347      7178.5366      4665.8106      2485.5804      2410.2914      8841.5959      0             -9071.6571      0              0             -288.1704       201702.52      58.645826      58.645826      58.645826      0.89557821    -762.93989      304.08536     -515.00741    
     61000   122000         299.85267      163.2225       12102.943      11622.803      7185.2893      4437.5142      2360.1375      2380.0745      8738.8722      0             -9041.5701      0              0             -288.1704       201702.52      58.645826      58.645826      58.645826      0.89557821     301.45434     -453.76745      641.9806     
     62000   124000         299.4627       110.32545      11992.181      11667.645      7175.9443      4491.7007      2469.5756      2409.6535      8695.9518      0             -9083.4802      0              0             -288.1704       201702.52      58.645826      58.645826      58.645826      0.89557821     143.07473      79.341794      108.55983    
     63000   126000         298.59565     -273.99028      10830.712      11636.688      7155.1675      4481.5208      2434.7914      2373.8411      8777.255       0             -9104.3667      0              0             -288.1704       201702.52      58.645826      58.645826      58.645826      0.89557821    -284.31106     -175.04878     -362.61099    
     64000   128000         301.99873     -195.18063      11260.037      11834.185      7236.7147      4597.4707      2482.7942      2385.3978      8780.3622      0             -9051.0835      0              0             -288.1704       201702.52      58.645826      58.645826      58.645826      0.89557821     117.01838     -371.56564     -330.99462    
     65000   130000         301.40582     -953.67619      8939.1552      11744.512      7222.5069      4522.0054      2490.0075      2383.7715      8717.8786      0             -9069.6522      0              0             -288.1704       201702.52      58.645826      58.645826      58.645826      0.89557821    -598.34757     -1043.2986     -1219.3824    
     66000   132000         300.81341      151.96603      12320.532      11873.505      7208.3111      4665.1943      2465.3275      2468.9738      8799.121       0             -9068.228       0              0             -288.1704       201702.52      58.645826      58.645826      58.645826      0.89557821     479.03942      48.131195     -71.272542    
     67000   134000         295.56906      139.94284      12030.976      11619.317      7082.6421      4536.6746      2430.7969      2426.7299      8742.5741      0             -9063.4263      0              0             -288.1704       201702.52      58.645826      58.645826      58.645826      0.89557821    -43.91559       288.64471      175.09939    
     68000   136000         303.55122      185.26942      12380.808      11835.815      7273.9166      4561.8982      2440.077       2391.0418      8771.6884      0             -9040.9091      0              0             -288.1704       201702.52      58.645826      58.645826      58.645826      0.89557821     128.32362      392.78061      34.704024    
     69000   138000         300.32615     -591.57632      9871.4933      11611.689      7196.635       4415.0536      2398.794       2351.518       8727.7109      0             -9062.9693      0              0             -288.1704       201702.52      58.645826      58.645826      58.645826      0.89557821    -506.99819     -1010.825      -256.90576    
     70000   140000         299.79666     -158.00085      11184.702      11649.481      7183.9471      4465.5343      2442.864       2377.3686      8745.776       0             -9100.4743      0              0             -288.1704       201702.52      58.645826      58.645826      58.645826      0.89557821    -140.42609     -516.21556      182.63911    
     71000   142000         300.09827      27.279711      11753.263      11673.016      7191.1743      4481.8421      2381.0487      2474.4455      8702.4893      0             -9076.1413      0              0             -288.1704       201702.52      58.645826      58.645826      58.645826      0.89557821     398.68086     -191.12109     -125.72064    
     72000   144000         295.75249      7.3775078      11795.068      11773.366      7087.0377      4686.3282      2522.2599      2428.5569      8788.6965      0             -9053.1852      0              0             -288.1704       201702.52      58.645826      58.645826      58.645826      0.89557821     678.49832     -572.29084     -84.074958    
     73000   146000         301.65541     -288.30981      10836.891      11684.99       7228.4878      4456.5023      2377.6269      2393.7407      8727.861       0             -9042.7262      0              0             -288.1704       201702.52      58.645826      58.645826      58.645826      0.89557821     263.66016     -601.48363     -527.10597    
     74000   148000         301.61335      307.36649      12666.766      11762.609      7227.4799      4535.1295      2413.5602      2425.682       8790.2247      0             -9094.3374      0              0             -288.1704       201702.52      58.645826      58.645826      58.645826      0.89557821     774.394        256.28657     -108.58109    
     75000   150000         302.65374     -233.27181      11109.89       11796.088      7252.4104      4543.6776      2478.4731      2423.008       8712.5334      0             -9070.3369      0              0             -288.1704       201702.52      58.645826      58.645826      58.645826      0.89557821    -283.15954      0.69881891    -417.3547     
     76000   152000         303.28464      448.01316      13175.93       11858.043      7267.5286      4590.5148      2453.5947      2379.7377      8792.316       0             -9035.1336      0              0             -288.1704       201702.52      58.645826      58.645826      58.645826      0.89557821     369.24151      757.56044      217.23752    
     77000   154000         300.09322      63.431957      11890.111      11703.518      7191.0535      4512.4645      2438.7381      2366.7941      8747.2506      0             -9040.3182      0              0             -288.1704       201702.52      58.645826      58.645826      58.645826      0.89557821     350.71487      151.05525     -311.47425    
     78000   156000         306.32729     -291.32811      11096.573      11953.551      7340.4387      4613.1119      2471.366       2464.1647      8754.1893      0             -9076.6081      0              0             -288.1704       201702.52      58.645826      58.645826      58.645826      0.89557821     585.00294     -740.83962     -718.14763    
     79000   158000         295.10803     -204.66032      10906.303      11508.337      7071.5946      4436.7425      2441.2754      2387.5842      8696.8473      0             -9088.9644      0              0             -288.1704       201702.52      58.645826      58.645826      58.645826      0.89557821    -374.72153     -332.15567      92.896238    
     80000   160000         299.54019      110.33904      11966.079      11641.503      7177.8012      4463.7016      2502.6223      2319.9073      8716.2851      0             -9075.1132      0              0             -288.1704       201702.52      58.645826      58.645826      58.645826      0.89557821     433.03199     -230.55349      128.53864    
     81000   162000         301.23536      187.22108      12330.072      11779.337      7218.4221      4560.9154      2458.5913      2406.9289      8798.2664      0             -9102.8712      0              0             -288.1704       201702.52      58.645826      58.645826      58.645826      0.89557821    -21.633743     -99.35562       682.65261    
     82000   164000         301.49984      352.6664       12890.8        11853.388      7224.76        4628.628       2543.9226      2359.0014      8798.8115      0             -9073.1076      0              0             -288.1704       201702.52      58.645826      58.645826      58.645826      0.89557821     200.61903      219.28759      638.09258    
     83000   166000         298.6871      -452.09064      10374.218      11704.099      7157.359       4546.7402      2467.8857      2383.0595      8766.1856      0             -9070.3905      0              0             -288.1704       201702.52      58.645826      58.645826      58.645826      0.89557821    -114.47358     -469.08717     -772.71116    
     84000   168000         298.31145      307.03607      12617.777      11714.592      7148.3574      4566.2345      2464.4107      2417.0725      8764.12        0             -9079.3687      0              0             -288.1704       201702.52      58.645826      58.645826      58.645826      0.89557821    -8.7262822      167.70202      762.13248    
     85000   170000         300.04959     -164.2653       11240.016      11723.223      7190.0078      4533.2153      2386.4504      2466.2344      8773.6559      0             -9093.1254      0              0             -288.1704       201702.52      58.645826      58.645826      58.645826      0.89557821    -47.412839     -633.7798       188.39674    
     86000   172000         301.71476      70.398725      11910.655      11703.568      7229.91        4473.6582      2390.99        2412.0354      8782.2766      0             -9111.6437      0              0             -288.1704       201702.52      58.645826      58.645826      58.645826      0.89557821    -354.74801      597.62314     -31.678955    
     87000   174000         298.54653     -527.7028       10056.369      11608.672      7153.9906      4454.6816      2464.5441      2371.4923      8682.9557      0             -9064.3105      0              0             -288.1704       201702.52      58.645826      58.645826      58.645826      0.89557821    -423.74602     -86.14753      -1073.2149    
     88000   176000         300.67009      320.9489       12860.67       11916.559      7204.8768      4711.6822      2529.7833      2458.9445      8763.2829      0             -9040.3285      0              0             -288.1704       201702.52      58.645826      58.645826      58.645826      0.89557821     191.71245      819.84291     -48.708667    
     89000   178000         306.24905      50.075469      11973.498      11826.195      7338.564       4487.6305      2448.4425      2448.1951      8652.1093      0             -9061.1163      0              0             -288.1704       201702.52      58.645826      58.645826      58.645826      0.89557821     176.78623      75.770012     -102.32984    
     90000   180000         297.6063      -139.03005      11191.756      11600.73       7131.4599      4469.2704      2452.3873      2416.9617      8721.8157      0             -9121.8943      0              0             -288.1704       201702.52      58.645826      58.645826      58.645826      0.89557821    -144.97538     -22.425444     -249.68931    
     91000   182000         298.25383     -237.947        11002.084      11702.035      7146.9766      4555.0585      2488.0618      2377.5687      8766.4188      0             -9076.9909      0              0             -288.1704       201702.52      58.645826      58.645826      58.645826      0.89557821     4.1876378     -248.77229     -469.25636    
     92000   184000         301.40092     -292.42553      10946.56       11806.766      7222.3895      4584.3764      2472.1876      2453.7696      8747.1515      0             -9088.7323      0              0             -288.1704       201702.52      58.645826      58.645826      58.645826      0.89557821    -510.81305     -574.29251      207.82897    
     93000   186000         303.1693      -151.29387      11278.972      11724.022      7264.7646      4459.2573      2351.2129      2373.4779      8819.6729      0             -9085.1064      0              0             -288.1704       201702.52      58.645826      58.645826      58.645826      0.89557821    -315.39715     -162.61356      24.129096    
     94000   188000         299.21575     -679.58386      9729.5545      11728.635      7170.0268      4558.6082      2472.8297      2432.9467      8737.6317      0             -9084.7999      0              0             -288.1704       201702.52      58.645826      58.645826      58.645826      0.89557821    -817.86662     -1145.8925     -74.992466    
     95000   190000         300.4532      -176.70762      11181.842      11701.65       7199.6795      4501.9703      2394.1569      2409.6137      8784.2232      0             -9086.0235      0              0             -288.1704       201702.52      58.645826      58.645826      58.645826      0.89557821    -275.79629     -161.27748     -93.049075    
     96000   192000         299.13275      10.104633      11775.448      11745.724      7168.038       4577.686       2337.8161      2444.3791      8847.9919      0             -9052.501       0              0             -288.1704       201702.52      58.645826      58.645826      58.645826      0.89557821    -202.18548     -43.76057       276.25995    
     97000   194000         298.82151      173.85338      12156.228      11644.816      7160.5798      4484.2365      2368.842       2403.6158      8760.9415      0             -9049.1627      0              0             -288.1704       201702.52      58.645826      58.645826      58.645826      0.89557821     621.45747     -94.244928     -5.6524049    
     98000   196000         298.62629      32.680948      11694.003      11597.868      7155.9017      4441.9664      2425.57        2332.2624      8741.8431      0             -9057.7091      0              0             -288.1704       201702.52      58.645826      58.645826      58.645826      0.89557821     74.836641     -665.8959       689.1021     
     99000   198000         300.96997     -36.197297      11674.88       11781.359      7212.0628      4569.2963      2425.6735      2459.591       8756.0045      0             -9071.9727      0              0             -288.1704       201702.52      58.645826      58.645826      58.645826      0.89557821    -337.78854      5.9407674      223.25589    
    100000   200000         301.21712     -27.699816      11681.301      11762.784      7217.9851      4544.7989      2406.2611      2405.0481      8799.1399      0             -9065.6502      0              0             -288.1704       201702.52      58.645826      58.645826      58.645826      0.89557821    -167.2427      -118.12477      202.26802    
    101000   202000         301.46019      11.890263      11768.863      11733.886      7223.8098      4510.0767      2398.2074      2404.8934      8774.9434      0             -9067.9674      0              0             -288.1704       201702.52      58.645826      58.645826      58.645826      0.89557821     275.0766       267.88576     -507.29157    
    102000   204000         299.18136      447.40882      12994.025      11677.917      7169.2027      4508.714       2419.3308      2389.4058      8747.5111      0             -9047.5337      0              0             -288.1704       201702.52      58.645826      58.645826      58.645826      0.89557821     582.15768      773.76072     -13.691942    
    103000   206000         299.26562     -17.880101      11556.747      11609.344      7171.2218      4438.1218      2390.0963      2394.0394      8738.4614      0             -9084.4752      0              0             -288.1704       201702.52      58.645826      58.645826      58.645826      0.89557821     173.88041     -642.64587      415.12515    
    104000   208000         302.5814       469.34817      13091.895      11711.249      7250.6769      4460.5725      2378.9052      2347.0258      8774.3746      0             -9039.7331      0              0             -288.1704       201702.52      58.645826      58.645826      58.645826      0.89557821     552.06467      306.96618      549.01364    
    105000   210000         302.26806     -229.22744      11101.828      11776.129      7243.1685      4532.9607      2411.078       2384.8875      8824.5336      0             -9087.5385      0              0             -288.1704       201702.52      58.645826      58.645826      58.645826      0.89557821    -368.01268     -80.61834      -239.0513     
    106000   212000         302.93199     -197.88092      11260.322      11842.413      7259.0781      4583.3351      2469.1304      2391.335       8763.3885      0             -9040.5188      0              0             -288.1704       201702.52      58.645826      58.645826      58.645826      0.89557821     1.9135815      45.513945     -641.07028    
    107000   214000         302.25309     -82.559663      11627.817      11870.676      7242.8098      4627.8666      2467.302       2376.4585      8811.4723      0             -9027.3661      0              0             -288.1704       201702.52      58.645826      58.645826      58.645826      0.89557821    -80.395397     -126.45876     -40.824834    
    108000   216000         303.46908     -198.54659      11331.811      11915.86       7271.9482      4643.9118      2467.7009      2400.4929      8853.4808      0             -9077.7628      0              0             -288.1704       201702.52      58.645826      58.645826      58.645826      0.89557821    -23.593504     -86.396299     -485.64997    
    109000   218000         302.18302     -144.61931      11322.57       11747.986      7241.1308      4506.8552      2428.1686      2404.6423      8792.9964      0             -9118.9521      0              0             -288.1704       201702.52      58.645826      58.645826      58.645826      0.89557821    -80.420956      224.59717     -578.03414    
    110000   220000         304.23865      270.17284      12699.426      11904.679      7290.3893      4614.2895      2416.9378      2477.7201      8814.6904      0             -9095.0587      0              0             -288.1704       201702.52      58.645826      58.645826      58.645826      0.89557821     517.03584      122.66112      170.82157    
    111000   222000         299.4752       34.361806      11968.154      11867.074      7176.2439      4690.8306      2442.9849      2388.861       8920.9241      0             -9061.9394      0              0             -288.1704       201702.52      58.645826      58.645826      58.645826      0.89557821    -216.0096       282.74806      36.346958    
    112000   224000         298.79488     -401.35086      10514.819      11695.443      7159.9415      4535.5011      2449.7976      2386.4723      8788.103       0             -9088.8718      0              0             -288.1704       201702.52      58.645826      58.645826      58.645826      0.89557821    -173.69248     -840.79812     -189.56199    
    113000   226000         303.63679     -296.8338       11011.051      11884.225      7275.967       4608.258       2402.2848      2430.0402      8843.047       0             -9067.114       0              0             -288.1704       201702.52      58.645826      58.645826      58.645826      0.89557821    -107.06404     -314.07413     -469.36323    
    114000   228000         301.2243       632.80092      13579.82       11718.357      7218.1573      4500.2002      2456.0807      2355.5516      8741.9262      0             -9053.3583      0              0             -288.1704       201702.52      58.645826      58.645826      58.645826      0.89557821     850.61257      193.82285      853.96734    
    115000   230000         301.35871     -351.37731      10793.294      11826.914      7221.378       4605.5359      2499.1061      2396.0373      8776.8194      0             -9066.427       0              0             -288.1704       201702.52      58.645826      58.645826      58.645826      0.89557821    -771.71406     -27.661311     -254.75657    
    116000   232000         297.2301      -411.33213      10408.136      11618.12       7122.4452      4495.6752      2441.899       2386.9989      8739.9725      0             -9073.1952      0              0             -288.1704       201702.52      58.645826      58.645826      58.645826      0.89557821    -487.50443     -693.05632     -53.435627    
    117000   234000         300.83343      181.0654       12392.952      11860.325      7208.7909      4651.5342      2457.9662      2498.6126      8768.3117      0             -9073.3563      0              0             -288.1704       201702.52      58.645826      58.645826      58.645826      0.89557821    -10.572905      185.64703      368.12208    
    118000   236000         295.00618     -547.77165      10069.561      11680.899      7069.1541      4611.7454      2487.2429      2462.3109      8759.3766      0             -9097.185       0              0             -288.1704       201702.52      58.645826      58.645826      58.645826      0.89557821    -79.062427     -849.49525     -714.75729    
    119000   238000         303.21634     -456.53437      10523.147      11866.1        7265.8918      4600.2081      2468.4829      2403.8206      8762.0419      0             -9034.1373      0              0             -288.1704       201702.52      58.645826      58.645826      58.645826      0.89557821    -299.20405     -662.5127      -407.88637    
    120000   240000         306.38687      26.325573      12132.388      12054.948      7341.8664      4713.0819      2434.2536      2451.4073      8853.2524      0             -9025.8314      0              0             -288.1704       201702.52      58.645826      58.645826      58.645826      0.89557821     5.0019514      96.670444     -22.695678    
    121000   242000         296.32667     -12.919729      11612.582      11650.587      7100.7966      4549.7901      2471.4031      2367.5515      8759.6551      0             -9048.8197      0              0             -288.1704       201702.52      58.645826      58.645826      58.645826      0.89557821     368.76927     -5.0095063     -402.51895    
    122000   244000         303.82804     -736.11948      9567.7926      11733.18       7280.5499      4452.6296      2430.4233      2312.82        8756.2938      0             -9046.9074      0              0             -288.1704       201702.52      58.645826      58.645826      58.645826      0.89557821    -490.63599     -869.27305     -848.44938    
    123000   246000         298.55013      107.3539       12008.963      11693.168      7154.0768      4539.0909      2438.8523      2442.0398      8735.6648      0             -9077.466       0              0             -288.1704       201702.52      58.645826      58.645826      58.645826      0.89557821     528.03912     -297.70225      91.724842    
    124000   248000         296.5873       292.90605      12325.545      11463.926      7107.0419      4356.8837      2382.3917      2353.7232      8706.6868      0             -9085.918       0              0             -288.1704       201702.52      58.645826      58.645826      58.645826      0.89557821    -88.204224      240.1429       726.77948    
    125000   250000         297.83102      208.21966      12304.237      11691.733      7136.8448      4554.8883      2466.7818      2392.6285      8747.1617      0             -9051.6837      0              0             -288.1704       201702.52      58.645826      58.645826      58.645826      0.89557821     115.36817      436.95937      72.331437    
    126000   252000         299.70139     -308.75811      10717.413      11625.663      7181.6641      4443.999       2417.7078      2345.7818      8701.997       0             -9021.4876      0              0             -288.1704       201702.52      58.645826      58.645826      58.645826      0.89557821    -597.96168     -761.83503      433.52237    
    127000   254000         303.01797      74.307489      12022.975      11804.39       7261.1385      4543.2515      2430.0515      2388.2712      8752.6633      0             -9027.7345      0              0             -288.1704       201702.52      58.645826      58.645826      58.645826      0.89557821     330.03529     -363.5058       256.39297    
    128000   256000         301.13431     -187.19903      11142.106      11692.776      7216.0007      4476.7749      2394.8633      2361.4704      8795.6935      0             -9075.2523      0              0             -288.1704       201702.52      58.645826      58.645826      58.645826      0.89557821    -621.02624      68.999472     -9.5703293    
    129000   258000         300.3323      -107.86058      11447.5        11764.785      7196.7824      4568.003       2438.6057      2399.0615      8788.2245      0             -9057.8886      0              0             -288.1704       201702.52      58.645826      58.645826      58.645826      0.89557821     105.66271     -228.08273     -201.16171    
    130000   260000         291.69435      41.846942      11787.129      11664.031      6989.7936      4674.2378      2451.6306      2439.5268      8873.9929      0             -9090.9125      0              0             -288.1704       201702.52      58.645826      58.645826      58.645826      0.89557821     439.21787     -239.98618     -73.690867    
    131000   262000         301.53443     -37.60243       11687.516      11798.128      7225.5887      4572.5392      2454.286       2394.1809      8791.3806      0             -9067.3083      0              0             -288.1704       201702.52      58.645826      58.645826      58.645826      0.89557821     199.87757     -349.76147      37.076614    
    132000   264000         296.21213      70.838112      11858.728      11650.349      7098.0518      4552.2969      2443.85        2439.4926      8708.406       0             -9039.4517      0              0             -288.1704       201702.52      58.645826      58.645826      58.645826      0.89557821     226.45786     -347.01192      333.0684     
    133000   266000         298.88671     -53.022395      11525.599      11681.57       7162.1421      4519.4284      2430.8891      2437.8764      8753.9543      0             -9103.2914      0              0             -288.1704       201702.52      58.645826      58.645826      58.645826      0.89557821    -213.91258     -83.429555      138.27495    
    134000   268000         297.85182     -311.44004      10776.295      11692.434      7137.3433      4555.091       2425.4629      2377.0443      8813.5533      0             -9060.9694      0              0             -288.1704       201702.52      58.645826      58.645826      58.645826      0.89557821    -494.10238      81.632692     -521.85044    
    135000   270000         295.22129     -263.98603      10831.61       11608.158      7074.3087      4533.8492      2469.9591      2339.6607      8783.2063      0             -9058.9768      0              0             -288.1704       201702.52      58.645826      58.645826      58.645826      0.89557821     228.9876      -340.58597     -680.35972    
    136000   272000         299.00394      9.2830844      11824.207      11796.9        7164.9512      4631.9486      2467.9151      2443.9136      8784.7324      0             -9064.6125      0              0             -288.1704       201702.52      58.645826      58.645826      58.645826      0.89557821     120.18006     -111.72874      19.397929    
    137000   274000         298.03611      669.95141      13656.833      11686.088      7141.7594      4544.3283      2465.7328      2445.1654      8702.061       0             -9068.6309      0              0             -288.1704       201702.52      58.645826      58.645826      58.645826      0.89557821     611.73697      737.39378      660.72348    
    138000   276000         303.7827      -147.78107      11305.038      11739.755      7279.4634      4460.2912      2427.8266      2369.4715      8745.3765      0             -9082.3833      0              0             -288.1704       201702.52      58.645826      58.645826      58.645826      0.89557821    -220.87845     -161.79196     -60.672795    
    139000   278000         301.21657     -294.06943      10861.731      11726.773      7217.9719      4508.8006      2424.3776      2401.6997      8736.8411      0             -9054.1177      0              0             -288.1704       201702.52      58.645826      58.645826      58.645826      0.89557821    -711.12913      48.754286     -219.83344    
    140000   280000         306.03885     -153.43823      11302.634      11753.991      7333.5269      4420.4645      2423.7376      2375.2704      8713.4201      0             -9091.9635      0              0             -288.1704       201702.52      58.645826      58.645826      58.645826      0.89557821     57.371279     -235.52154     -282.16444    
    141000   282000         298.54535     -116.67393      11309.816      11653.027      7153.9622      4499.065       2443.2304      2387.9691      8740.2268      0             -9072.3612      0              0             -288.1704       201702.52      58.645826      58.645826      58.645826      0.89557821     83.204197     -463.93459      30.708607    
    142000   284000         300.93443     -881.45056      9208.9738      11801.87       7211.211       4590.6592      2511.907       2327.2393      8802.3675      0             -9050.8546      0              0             -288.1704       201702.52      58.645826      58.645826      58.645826      0.89557821    -541.6495      -1295.0602     -807.64198    
    143000   286000         302.28236     -840.17591      9263.5433      11735.025      7243.5111      4491.5141      2460.9842      2382.4472      8724.7572      0             -9076.6744      0              0             -288.1704       201702.52      58.645826      58.645826      58.645826      0.89557821    -773.18721     -995.14077     -752.19975    
    144000   288000         310.08117      379.72723      13123.333      12006.318      7430.392       4575.9257      2499.0987      2372.4497      8742.8438      0             -9038.4665      0              0             -288.1704       201702.52      58.645826      58.645826      58.645826      0.89557821     48.676723      720.18966      370.31532    
    145000   290000         297.03368      165.15399      12225.999      11740.178      7117.7385      4622.4395      2468.6653      2469.1023      8756.5944      0             -9071.9225      0              0             -288.1704       201702.52      58.645826      58.645826      58.645826      0.89557821    -358.50834      575.46322      278.5071     
    146000   292000         296.48076      627.1216       13432.216      11587.46       7104.4891      4482.9707      2473.3484      2377.3294      8750.3558      0             -9118.0629      0              0             -288.1704       201702.52      58.645826      58.645826      58.645826      0.89557821     674.7719       505.90013      700.69277    
    147000   294000         304.09805     -595.08736      10081.113      11831.637      7287.0202      4544.6166      2454.0469      2428.2811      8749.1172      0             -9086.8285      0              0             -288.1704       201702.52      58.645826      58.645826      58.645826      0.89557821    -1238.286      -35.97085      -511.0052     
    148000   296000         299.83661     -36.811213      11434.193      11542.477      7184.9042      4357.5732      2434.3367      2291.7173      8746.8369      0             -9115.3177      0              0             -288.1704       201702.52      58.645826      58.645826      58.645826      0.89557821    -315.46943      345.58023     -140.54444    
    149000   298000         299.59684     -107.66714      11391.807      11708.524      7179.1588      4529.3649      2368.9168      2399.3461      8804.0955      0             -9042.9935      0              0             -288.1704       201702.52      58.645826      58.645826      58.645826      0.89557821     210.31542     -144.68402     -388.63283    
    150000   300000         298.1117      -91.698781      11432.755      11702.498      7143.5709      4558.9272      2469.395       2403.1175      8781.0864      0             -9094.6717      0              0             -288.1704       201702.52      58.645826      58.645826      58.645826      0.89557821    -147.18414     -671.34951      543.4373     
    151000   302000         302.04991      23.632791      11813.633      11744.114      7237.941       4506.1735      2449.8161      2406.4104      8764.5864      0             -9114.6394      0              0             -288.1704       201702.52      58.645826      58.645826      58.645826      0.89557821    -287.91759      458.26242     -99.446463    
    152000   304000         298.47468     -132.35663      11372.514      11761.858      7152.2688      4609.5887      2433.8553      2414.0139      8816.2781      0             -9054.5585      0              0             -288.1704       201702.52      58.645826      58.645826      58.645826      0.89557821    -302.96409      35.50969      -129.61548    
    153000   306000         299.2114       281.2111       12447.803      11620.586      7169.9225      4450.6635      2403.7778      2359.7437      8772.5157      0             -9085.3737      0              0             -288.1704       201702.52      58.645826      58.645826      58.645826      0.89557821     135.20515      49.742464      658.68568    
    154000   308000         297.39472     -138.31779      11279.307      11686.186      7126.3901      4559.7963      2488.38        2409.7035      8762.2518      0             -9100.5389      0              0             -288.1704       201702.52      58.645826      58.645826      58.645826      0.89557821     227.38521     -93.364028     -548.97454    
    155000   310000         296.91504     -186.27595      11093.984      11641.938      7114.8956      4527.0421      2469.7514      2407.5002      8760.8701      0             -9111.0796      0              0             -288.1704       201702.52      58.645826      58.645826      58.645826      0.89557821    -6.8570014      330.35692     -882.32778    
    156000   312000         302.52174      69.272711      11991.107      11787.333      7249.2475      4538.0854      2411.9779      2371.9981      8830.8023      0             -9076.6928      0              0             -288.1704       201702.52      58.645826      58.645826      58.645826      0.89557821    -287.90163     -351.38183      847.10158    
    157000   314000         300.70416     -9.8991248      11549.854      11578.974      7205.6931      4373.2805      2431.7449      2365.0692      8690.4829      0             -9114.0166      0              0             -288.1704       201702.52      58.645826      58.645826      58.645826      0.89557821    -66.061249     -194.53019      230.89407    
    158000   316000         305.24245      538.35021      13367.257      11783.633      7314.4431      4469.1896      2413.3313      2425.2933      8703.8537      0             -9073.2888      0              0             -288.1704       201702.52      58.645826      58.645826      58.645826      0.89557821     677.92671      629.73455      307.38937    
    159000   318000         299.7902      -48.042203      11527.408      11668.73       7183.7921      4484.9381      2445.1697      2367.9004      8738.2955      0             -9066.4275      0              0             -288.1704       201702.52      58.645826      58.645826      58.645826      0.89557821     195.81984     -135.9898      -203.95664    
    160000   320000         300.08755     -628.81619      9758.5692      11608.31       7190.9175      4417.3927      2420.0833      2356.0711      8749.9232      0             -9108.6849      0              0             -288.1704       201702.52      58.645826      58.645826      58.645826      0.89557821    -552.11449     -499.76367     -834.57042    
    161000   322000         301.662       -318.2981       10755.333      11691.647      7228.6457      4463.0009      2404.6737      2409.1622      8729.7852      0             -9080.6203      0              0             -288.1704       201702.52      58.645826      58.645826      58.645826      0.89557821    -884.50981     -93.716319      23.331814    
    162000   324000         299.67191      257.52497      12419.877      11662.335      7180.9577      4481.3772      2438.3215      2446.865       8687.22        0             -9091.0294      0              0             -288.1704       201702.52      58.645826      58.645826      58.645826      0.89557821     75.546764      89.672937      607.3552     
    163000   326000         301.10982      53.740007      12026.639      11868.556      7215.414       4653.142       2457.7886      2433.8743      8848.4325      0             -9086.9534      0              0             -288.1704       201702.52      58.645826      58.645826      58.645826      0.89557821    -159.20046     -220.07752      540.498      
    164000   328000         301.41017     -92.172143      11461.743      11732.879      7222.6111      4510.268       2428.5032      2372.6888      8794.7091      0             -9085.6331      0              0             -288.1704       201702.52      58.645826      58.645826      58.645826      0.89557821    -441.46174     -287.11759      452.0629     
    165000   330000         304.94707      436.97422      13023.462      11738.048      7307.365       4430.6826      2450.1876      2393.7254      8702.6515      0             -9115.8819      0              0             -288.1704       201702.52      58.645826      58.645826      58.645826      0.89557821     410.08583      754.36235      146.47449    
    166000   332000         301.48065     -265.76445      10988.985      11770.765      7224.3         4546.4646      2501.791       2376.1821      8740.9063      0             -9072.4149      0              0             -288.1704       201702.52      58.645826      58.645826      58.645826      0.89557821    -132.65411     -523.4513      -141.18794    
    167000   334000         297.83736      348.08796      12810.428      11786.484      7136.9968      4649.4876      2517.6894      2438.2388      8759.9406      0             -9066.3812      0              0             -288.1704       201702.52      58.645826      58.645826      58.645826      0.89557821     173.95913      230.53574      639.769      
    168000   336000         302.38633      41.520292      11854.425      11732.288      7246.0026      4486.2855      2480.8081      2358.4656      8719.3983      0             -9072.3865      0              0             -288.1704       201702.52      58.645826      58.645826      58.645826      0.89557821     280.43638     -209.69838      53.822882    
    169000   338000         295.53976     -218.46512      10894.097      11536.739      7081.9401      4454.799       2484.4675      2378.4555      8684.4416      0             -9092.5657      0              0             -288.1704       201702.52      58.645826      58.645826      58.645826      0.89557821     364.31416     -264.88663     -754.82288    
    170000   340000         303.07442      181.15301      12309.394      11776.51       7262.491       4514.0193      2479.3952      2387.6009      8693.0434      0             -9046.0203      0              0             -288.1704       201702.52      58.645826      58.645826      58.645826      0.89557821     465.06683      41.96191       36.430304    
    171000   342000         303.42403     -113.19095      11362.386      11695.351      7270.8687      4424.4822      2395.6536      2336.5234      8768.5215      0             -9076.2163      0              0             -288.1704       201702.52      58.645826      58.645826      58.645826      0.89557821    -422.57941      143.30309     -60.296538    
    172000   344000         303.7652      -576.98114      10027.088      11724.35       7279.044       4445.3056      2384.3523      2378.923       8772.3064      0             -9090.276       0              0             -288.1704       201702.52      58.645826      58.645826      58.645826      0.89557821    -355.50092     -676.89143     -698.55108    
    173000   346000         305.49259      313.24608      12653.52       11732.067      7320.4371      4411.6303      2428.8108      2316.0735      8801.225       0             -9134.479       0              0             -288.1704       201702.52      58.645826      58.645826      58.645826      0.89557821     92.841392      610.04429      236.85257    
    174000   348000         295.89214      215.92525      12170.965      11535.794      7090.3841      4445.4099      2452.5711      2406.36        8671.0973      0             -9084.6185      0              0             -288.1704       201702.52      58.645826      58.645826      58.645826      0.89557821     210.14797     -402.47935      840.10714    
    175000   350000         296.56785     -420.97067      10314.763      11553.101      7106.576       4446.5246      2498.6119      2337.1316      8676.9108      0             -9066.1298      0              0             -288.1704       201702.52      58.645826      58.645826      58.645826      0.89557821     95.464498     -495.07129     -863.30521    
    176000   352000         294.68461      74.037807      11759.028      11541.237      7061.4483      4479.7886      2411.3843      2415.6136      8729.0747      0             -9076.284       0              0             -288.1704       201702.52      58.645826      58.645826      58.645826      0.89557821    -517.37291      508.58277      230.90356    
    177000   354000         300.21031     -203.67691      11049.868      11649.009      7193.8591      4455.1501      2481.3556      2361.5536      8698.0105      0             -9085.7695      0              0             -288.1704       201702.52      58.645826      58.645826      58.645826      0.89557821    -238.05511     -239.25906     -133.71656    
    178000   356000         301.14512      566.03485      13284.252      11619.19       7216.2597      4402.9307      2420.9538      2372.8625      8687.6997      0             -9078.5854      0              0             -288.1704       201702.52      58.645826      58.645826      58.645826      0.89557821     356.70047      972.43358      368.97049    
    179000   358000         301.12797     -249.75279      10970.53       11705.209      7215.8487      4489.3605      2472.5089      2362.9312      8745.4725      0             -9091.5521      0              0             -288.1704       201702.52      58.645826      58.645826      58.645826      0.89557821    -182.44993     -535.77063     -31.037825    
    180000   360000         302.19854      217.02719      12437.54       11799.127      7241.5027      4557.6245      2481.5856      2428.7952      8745.3384      0             -9098.0947      0              0             -288.1704       201702.52      58.645826      58.645826      58.645826      0.89557821     416.92565     -110.20437      344.36028    
    181000   362000         297.60773     -304.75235      10838.312      11734.779      7131.4944      4603.2845      2465.4945      2381.2759      8792.4579      0             -9035.9438      0              0             -288.1704       201702.52      58.645826      58.645826      58.645826      0.89557821    -261.82541     -89.619634     -562.81199    
    182000   364000         302.8742       179.28408      12229.512      11702.126      7257.6932      4444.4326      2458.1347      2418.4413      8697.5223      0             -9129.6657      0              0             -288.1704       201702.52      58.645826      58.645826      58.645826      0.89557821     481.10283      312.59755     -255.84814    
    183000   366000         299.76295      307.22906      12594.29       11690.538      7183.1392      4507.3983      2417.486       2425.8704      8738.5908      0             -9074.549       0              0             -288.1704       201702.52      58.645826      58.645826      58.645826      0.89557821     412.09255     -65.881336      575.47596    
    184000   368000         299.50133      386.67368      12877.098      11739.649      7176.87        4562.7794      2434.0319      2388.9097      8803.9386      0             -9064.1008      0              0             -288.1704       201702.52      58.645826      58.645826      58.645826      0.89557821    -327.27872      888.518        598.78178    
    185000   370000         298.23366     -272.68951      10778.536      11580.686      7146.4934      4434.1928      2408.6239      2398.8546      8700.5133      0             -9073.799       0              0             -288.1704       201702.52      58.645826      58.645826      58.645826      0.89557821    -459.6069      -49.800629     -308.661      
    186000   372000         299.43004      8.7435612      11665.715      11639.995      7175.1618      4464.8334      2449.3917      2384.9553      8726.039       0             -9095.5526      0              0             -288.1704       201702.52      58.645826      58.645826      58.645826      0.89557821    -232.68521      250.83037      8.0855175    
    187000   374000         301.52541     -629.091        9782.5858      11633.135      7225.3727      4407.7625      2452.8426      2385.1562      8670.6515      0             -9100.8878      0              0             -288.1704       201702.52      58.645826      58.645826      58.645826      0.89557821    -345.79886     -1021.7224     -519.7517     
    188000   376000         300.53364     -216.74408      11071.424      11709.004      7201.6071      4507.3967      2491.336       2400.9022      8703.3048      0             -9088.1463      0              0             -288.1704       201702.52      58.645826      58.645826      58.645826      0.89557821    -479.09051     -307.38285      136.24113    
    189000   378000         297.16372     -354.23006      10630.377      11672.388      7120.8546      4551.5339      2535.1874      2376.6878      8712.5738      0             -9072.9152      0              0             -288.1704       201702.52      58.645826      58.645826      58.645826      0.89557821     173.70715     -479.86857     -756.52876    
    190000   380000         298.84165     -208.65265      10996.722      11610.5        7161.0623      4449.4374      2450.4239      2402.9647      8664.2358      0             -9068.187       0              0             -288.1704       201702.52      58.645826      58.645826      58.645826      0.89557821    -287.26845     -736.63202      397.94252    
    191000   382000         299.86248      61.825876      11878.307      11696.439      7185.5243      4510.9142      2498.8225      2347.8699      8727.7269      0             -9063.5049      0              0             -288.1704       201702.52      58.645826      58.645826      58.645826      0.89557821     62.909941      266.89887     -144.33118    
    192000   384000         297.09896      2.0613116      11658.453      11652.39       7119.3029      4533.0868      2505.6414      2380.1941      8737.5129      0             -9090.2615      0              0             -288.1704       201702.52      58.645826      58.645826      58.645826      0.89557821     209.45053     -100.96606     -102.30054    
    193000   386000         299.4468       153.00356      12133.131      11683.052      7175.5633      4507.4883      2461.021       2374.577       8735.3303      0             -9063.44        0              0             -288.1704       201702.52      58.645826      58.645826      58.645826      0.89557821    -170.56129     -132.27291      761.84489    
    194000   388000         298.76247      642.34217      13619.725      11730.195      7159.1651      4571.0303      2515.9092      2356.3156      8768.1811      0             -9069.3755      0              0             -288.1704       201702.52      58.645826      58.645826      58.645826      0.89557821     697.69733      741.21563      488.11357    
    195000   390000         303.89206      558.20327      13477.779      11835.755      7282.084       4553.6707      2443.6134      2378.9667      8757.3781      0             -9026.2875      0              0             -288.1704       201702.52      58.645826      58.645826      58.645826      0.89557821     802.26413      139.48024      732.86543    
    196000   392000         305.59613      294.96871      12851.827      11984.139      7322.9181      4661.2213      2495.704       2433.1982      8771.5016      0             -9039.1824      0              0             -288.1704       201702.52      58.645826      58.645826      58.645826      0.89557821     505.9373       518.7845      -139.81566    
    197000   394000         304.26215      187.23409      12415.039      11864.267      7290.9523      4573.3143      2484.6666      2454.5297      8760.3479      0             -9126.2298      0              0             -288.1704       201702.52      58.645826      58.645826      58.645826      0.89557821     196.63416     -181.27118      546.33928    
    198000   396000         295.73468     -261.44206      10924.707      11693.771      7086.6108      4607.1604      2491.0056      2422.757       8773.4157      0             -9080.018       0              0             -288.1704       201702.52      58.645826      58.645826      58.645826      0.89557821    -472.87905     -120.78709     -190.66002    
    199000   398000         301.83054     -558.50601      10199.967      11842.882      7232.6844      4610.1974      2495.5643      2429.1364      8758.5917      0             -9073.095       0              0             -288.1704       201702.52      58.645826      58.645826      58.645826      0.89557821    -523.10307     -783.88676     -368.5282     
[...]
   1958000   3916000        298.42057     -12.411514      11636.744      11673.254      7150.9722      4522.2815      2468.4484      2394.5061      8724.2574      0             -9064.9303      0              0             -288.1704       201702.52      58.645826      58.645826      58.645826      0.89557821     42.018627      88.159725     -167.41289    
   1959000   3918000        300.52735      487.84538      13162.384      11727.326      7201.4564      4525.8701      2480.9766      2384.4165      8735.5089      0             -9075.0319      0              0             -288.1704       201702.52      58.645826      58.645826      58.645826      0.89557821     1442.3996      42.722709     -21.586176    
   1960000   3920000        299.30583     -192.99331      11113.595      11681.308      7172.1855      4509.1229      2464.3728      2444.5935      8698.9816      0             -9098.825       0              0             -288.1704       201702.52      58.645826      58.645826      58.645826      0.89557821    -290.2965      -490.62922      201.94579    
   1961000   3922000        299.53752     -564.63958      10116.87       11777.828      7177.7373      4600.0906      2478.9678      2472.4712      8749.236       0             -9100.5843      0              0             -288.1704       201702.52      58.645826      58.645826      58.645826      0.89557821    -666.12716     -478.46031     -549.33127    
   1962000   3924000        298.3147      -136.89444      11255.311      11658.003      7148.4352      4509.5681      2503.5995      2460.4942      8646.8069      0             -9101.3326      0              0             -288.1704       201702.52      58.645826      58.645826      58.645826      0.89557821     39.513173     -671.78026      221.58377    
   1963000   3926000        297.57638     -290.20566      10682.2        11535.876      7130.7431      4405.1331      2428.6382      2367.1469      8682.3001      0             -9072.9521      0              0             -288.1704       201702.52      58.645826      58.645826      58.645826      0.89557821    -645.81042     -449.03298      224.22643    
   1964000   3928000        301.98639      76.190781      12014.677      11790.552      7236.419       4554.1328      2461.8901      2401.2977      8733.6734      0             -9042.7284      0              0             -288.1704       201702.52      58.645826      58.645826      58.645826      0.89557821    -622.20419      328.58798      522.18856    
   1965000   3930000        295.96974     -187.25883      11065.997      11616.842      7092.2435      4524.5988      2505.1643      2368.6593      8729.7324      0             -9078.9572      0              0             -288.1704       201702.52      58.645826      58.645826      58.645826      0.89557821    -58.933593     -349.25755     -153.58535    
   1966000   3932000        300.97535     -384.14533      10451.516      11581.527      7212.1916      4369.3352      2411.0181      2315.2463      8716.9969      0             -9073.9261      0              0             -288.1704       201702.52      58.645826      58.645826      58.645826      0.89557821    -261.82674     -511.0148      -379.59444    
   1967000   3934000        296.68467      163.40736      12020.093      11539.409      7109.3753      4430.0342      2412.5568      2341.3158      8721.1682      0             -9045.0067      0              0             -288.1704       201702.52      58.645826      58.645826      58.645826      0.89557821     708.51768      247.8875      -466.1831     
   1968000   3936000        300.05086      81.391505      11908.537      11669.114      7190.0383      4479.0755      2449.9584      2392.1868      8719.2726      0             -9082.3423      0              0             -288.1704       201702.52      58.645826      58.645826      58.645826      0.89557821    -421.2642      -13.025528      678.46424    
   1969000   3938000        306.02021      258.73044      12476.29       11715.203      7333.0802      4382.1225      2452.0748      2340.1031      8705.3929      0             -9115.4483      0              0             -288.1704       201702.52      58.645826      58.645826      58.645826      0.89557821     232.0238       386.85445      157.31308    
   1970000   3940000        294.30585     -208.59664      11041.302      11654.915      7052.3722      4602.5431      2444.0103      2397.2154      8836.829       0             -9075.5117      0              0             -288.1704       201702.52      58.645826      58.645826      58.645826      0.89557821    -69.342806     -442.52391     -113.92321    
   1971000   3942000        303.95583      433.91771      13073.949      11797.526      7283.612       4513.9141      2470.1969      2418.9467      8706.1723      0             -9081.4018      0              0             -288.1704       201702.52      58.645826      58.645826      58.645826      0.89557821     251.05642      771.57308      279.12364    
   1972000   3944000        298.32495     -536.40321      10023.849      11601.746      7148.6808      4453.0653      2409.5689      2426.3621      8713.0971      0             -9095.9628      0              0             -288.1704       201702.52      58.645826      58.645826      58.645826      0.89557821    -913.90101     -134.80265     -560.50596    
   1973000   3946000        298.54698     -221.93014      11072.631      11725.466      7154.0013      4571.465       2477.5973      2415.1963      8740.7451      0             -9062.0736      0              0             -288.1704       201702.52      58.645826      58.645826      58.645826      0.89557821     95.104313     -210.2984      -550.59635    
   1974000   3948000        296.17976     -148.80438      11070.913      11508.64       7097.2762      4411.3638      2417.3359      2354.5781      8710.3526      0             -9070.9027      0              0             -288.1704       201702.52      58.645826      58.645826      58.645826      0.89557821     98.134665     -215.5954      -328.9524     
   1975000   3950000        301.7345      -516.5798       10270.189      11789.772      7230.3831      4559.3894      2480.9742      2435.5104      8710.5464      0             -9067.6416      0              0             -288.1704       201702.52      58.645826      58.645826      58.645826      0.89557821    -516.91519     -686.43513     -346.38907    
   1976000   3952000        298.13768     -286.71501      10935.875      11779.283      7144.1933      4635.0895      2522.331       2435.8878      8779.6927      0             -9102.8219      0              0             -288.1704       201702.52      58.645826      58.645826      58.645826      0.89557821    -9.906136      -1055.8026      205.56369    
   1977000   3954000        301.46826     -302.75084      10759.514      11650.093      7224.0032      4426.0902      2406.1805      2371.3557      8725.7724      0             -9077.2184      0              0             -288.1704       201702.52      58.645826      58.645826      58.645826      0.89557821     186.31278     -336.66576     -757.89955    
   1978000   3956000        297.04115      296.73236      12430.469      11557.594      7117.9175      4439.6762      2415.7309      2393.5084      8713.9071      0             -9083.4702      0              0             -288.1704       201702.52      58.645826      58.645826      58.645826      0.89557821     469.93329     -139.44933      559.71312    
   1979000   3958000        300.60519     -21.208494      11613.825      11676.213      7203.3216      4472.8912      2453.9276      2388.821       8748.8867      0             -9118.7441      0              0             -288.1704       201702.52      58.645826      58.645826      58.645826      0.89557821     195.70891     -55.248281     -204.08611    
   1980000   3960000        300.40525     -513.55673      10263.944      11774.635      7198.5305      4576.1047      2487.3785      2411.1624      8763.417       0             -9085.8531      0              0             -288.1704       201702.52      58.645826      58.645826      58.645826      0.89557821    -412.40326     -555.59531     -572.67162    
   1981000   3962000        302.63805     -141.81088      11310.068      11727.222      7252.0345      4475.1875      2440.4157      2403.8352      8730.002       0             -9099.0654      0              0             -288.1704       201702.52      58.645826      58.645826      58.645826      0.89557821    -66.977077     -362.56046      4.1049099    
   1982000   3964000        302.17213     -115.56816      11384.908      11724.866      7240.8698      4483.9966      2482.384       2348.8582      8722.3267      0             -9069.5724      0              0             -288.1704       201702.52      58.645826      58.645826      58.645826      0.89557821    -298.76661     -169.68187      121.744      
   1983000   3966000        301.69115      98.748977      11984.372      11693.89       7229.3442      4464.5457      2468.0455      2402.1075      8697.4649      0             -9103.0722      0              0             -288.1704       201702.52      58.645826      58.645826      58.645826      0.89557821    -207.6684       249.97559      253.93974    
   1984000   3968000        299.22899      225.97188      12242.711      11577.986      7170.3441      4407.642       2492.1183      2335.4456      8631.2566      0             -9051.1785      0              0             -288.1704       201702.52      58.645826      58.645826      58.645826      0.89557821     64.291504      405.53449      208.08964    
   1985000   3970000        306.12429     -101.70847      11531.52       11830.708      7335.5744      4495.1337      2442.9689      2403.0542      8713.1237      0             -9064.0132      0              0             -288.1704       201702.52      58.645826      58.645826      58.645826      0.89557821    -65.799483     -10.120444     -229.2055     
   1986000   3972000        298.8327       58.734139      11699.303      11526.529      7160.8478      4365.6813      2405.4543      2394.8001      8652.4882      0             -9087.0613      0              0             -288.1704       201702.52      58.645826      58.645826      58.645826      0.89557821    -590.67536      253.74071      513.13707    
   1987000   3974000        299.97392     -322.59839      10739.767      11688.73       7188.1947      4500.5353      2455.948       2423.7649      8713.2288      0             -9092.4063      0              0             -288.1704       201702.52      58.645826      58.645826      58.645826      0.89557821    -786.41656      515.81669     -697.19531    
   1988000   3976000        296.16299     -340.99812      10514.333      11517.422      7096.8743      4420.5473      2433.1534      2401.7206      8646.982       0             -9061.3086      0              0             -288.1704       201702.52      58.645826      58.645826      58.645826      0.89557821    -363.62527     -306.3257      -353.04338    
   1989000   3978000        299.59969     -319.86904      10739.321      11680.256      7179.2272      4501.0284      2446.6782      2400.0163      8745.3956      0             -9091.0617      0              0             -288.1704       201702.52      58.645826      58.645826      58.645826      0.89557821    -131.4694      -853.62366      25.485956    
   1990000   3980000        297.94238     -76.78266       11241.632      11467.498      7139.5134      4327.9842      2413.3207      2290.5858      8729.2786      0             -9105.2009      0              0             -288.1704       201702.52      58.645826      58.645826      58.645826      0.89557821     125.47362     -85.941985     -269.87961    
   1991000   3982000        303.4596       0.28648947     11784.997      11784.154      7271.7211      4512.4327      2442.7625      2405.4442      8750.6404      0             -9086.4144      0              0             -288.1704       201702.52      58.645826      58.645826      58.645826      0.89557821     467.20856     -398.84758     -67.501515    
   1992000   3984000        296.45118      766.01036      13846.184      11592.87       7103.7802      4489.0895      2489.9151      2418.259       8658.5087      0             -9077.5933      0              0             -288.1704       201702.52      58.645826      58.645826      58.645826      0.89557821     852.49664      1153.1546      292.37985    
   1993000   3986000        303.20052     -376.04427      10429.849      11536.03       7265.5128      4270.5169      2350.5819      2317.9579      8729.924       0             -9127.947       0              0             -288.1704       201702.52      58.645826      58.645826      58.645826      0.89557821    -238.97035     -337.28243     -551.88002    
   1994000   3988000        299.77513     -173.81431      11141.977      11653.273      7183.431       4469.8424      2447.0083      2311.454       8786.9955      0             -9075.6154      0              0             -288.1704       201702.52      58.645826      58.645826      58.645826      0.89557821    -544.15827      20.127171      2.5881682    
   1995000   3990000        303.64293     -383.28183      10615.798      11743.269      7276.1141      4467.1553      2461.2702      2384.3845      8726.6082      0             -9105.1076      0              0             -288.1704       201702.52      58.645826      58.645826      58.645826      0.89557821    -427.02269     -459.30254     -263.52027    
   1996000   3992000        300.5834       435.2214       12957.667      11677.409      7202.7995      4474.6092      2409.5379      2390.3616      8780.987       0             -9106.2773      0              0             -288.1704       201702.52      58.645826      58.645826      58.645826      0.89557821     23.382201      836.73826      445.54374    
   1997000   3994000        296.85937      53.801089      11662.782      11504.519      7113.5615      4390.9577      2399.8411      2350.013       8761.7368      0             -9120.6332      0              0             -288.1704       201702.52      58.645826      58.645826      58.645826      0.89557821     174.35367      125.30224     -138.25265    
   1998000   3996000        293.40857      56.499377      11758.219      11592.019      7030.8709      4561.1481      2430.2719      2373.6727      8831.4874      0             -9074.2839      0              0             -288.1704       201702.52      58.645826      58.645826      58.645826      0.89557821    -507.31558      278.99875      397.81496    
   1999000   3998000        300.64831     -158.73847      11146.599      11613.548      7204.3548      4409.1934      2463.5068      2301.7304      8725.7469      0             -9081.7907      0              0             -288.1704       201702.52      58.645826      58.645826      58.645826      0.89557821    -283.52093     -189.7659      -2.9285795    
   2000000   4000000        299.95083     -12.030113      11691.035      11726.423      7187.6413      4538.7813      2436.6555      2365.7417      8791.1565      0             -9054.7723      0              0             -288.1704       201702.52      58.645826      58.645826      58.645826      0.89557821    -502.76579      17.378611      449.29684    
Loop time of 2837.01 on 1 procs for 2000000 steps with 8040 atoms

Performance: 121.819 ns/day, 0.197 hours/ns, 704.968 timesteps/s, 5.668 Matom-step/s
99.6% CPU use with 1 MPI tasks x 1 OpenMP threads

MPI task timing breakdown:
Section |  min time  |  avg time  |  max time  |%varavg| %total
---------------------------------------------------------------
Pair    | 321.35     | 321.35     | 321.35     |   0.0 | 11.33
Bond    | 2024.2     | 2024.2     | 2024.2     |   0.0 | 71.35
Neigh   | 1.0356     | 1.0356     | 1.0356     |   0.0 |  0.04
Comm    | 207.99     | 207.99     | 207.99     |   0.0 |  7.33
Output  | 32.087     | 32.087     | 32.087     |   0.0 |  1.13
Modify  | 161.48     | 161.48     | 161.48     |   0.0 |  5.69
Other   |            | 88.87      |            |       |  3.13

Nlocal:           8040 ave        8040 max        8040 min
Histogram: 1 0 0 0 0 0 0 0 0 0
Nghost:          21690 ave       21690 max       21690 min
Histogram: 1 0 0 0 0 0 0 0 0 0
Neighs:              0 ave           0 max           0 min
Histogram: 1 0 0 0 0 0 0 0 0 0

Total # of neighbors = 0
Ave neighs/atom = 0
Ave special neighs/atom = 5.9701493
Neighbor list builds = 52664
Dangerous builds = 0

# --- Cleanup ---
unfix nvt_fix

undump dump_nvt

# --- Write Output ---
write_dump all custom nvt_production_last.dump id type mol x y z xu yu zu vx vy vz modify sort id
write_data /home/arz2/PolyJarvis/data/cis-PBD2/lammps/equil/nvt_production/nvt_production_out.data
System init for write_data ...
Generated 3 of 3 mixed pair_coeff terms from arithmetic mixing rule

print "STAGE COMPLETE: NVT T=300.0->300.0K steps=2000000"
STAGE COMPLETE: NVT T=300.0->300.0K steps=2000000
quit
eigh   | 1.0356     | 1.0356     | 1.0356     |   0.0 |  0.04
Comm    | 207.99     | 207.99     | 207.99     |   0.0 |  7.33
Output  | 32.087     | 32.087     | 32.087     |   0.0 |  1.13
Modify  | 161.48     | 161.48     | 161.48     |   0.0 |  5.69
Other   |            | 88.87      |            |       |  3.13

Nlocal:           8040 ave        8040 max        8040 min
Histogram: 1 0 0 0 0 0 0 0 0 0
Nghost:          21690 ave       21690 max       21690 min
Histogram: 1 0 0 0 0 0 0 0 0 0
Neighs:              0 ave           0 max           0 min
Histogram: 1 0 0 0 0 0 0 0 0 0

Total # of neighbors = 0
Ave neighs/atom = 0
Ave special neighs/atom = 5.9701493
Neighbor list builds = 52664
Dangerous builds = 0
System init for write_data ...


---------------------------------------------------------------------
      Device Time Info (average): 
---------------------------------------------------------------------
Data Transfer:   197.7249 s.
Neighbor copy:   8.5034 s.
Neighbor build:  33.8633 s.
Force calc:      467.2975 s.
Device Overhead: 64.3072 s.
CPU Neighbor:    16.8156 s.
CPU Cast/Pack:   149.8714 s.
CPU Driver_Time: 25.8988 s.
CPU Idle_Time:   3.3021 s.
Average split:   1.0000.
Max Mem / Proc:  100.22 MB.
Prefetch mode:   None.
Vector width:    32.
Lanes / atom:    4.
Pair block:      256.
Neigh block:     128.
Neigh mode:      Hybrid (binning on host) with subgroup support.
Neigh sorting:   Unavailable or disabled.
---------------------------------------------------------------------


--------------------------------------------------------------------------
- Using acceleration for lj/cut:
-  with 1 proc(s) per device.
-  with 1 thread(s) per proc.
-  Horizontal vector operations: ENABLED
-  Shared memory system: No
--------------------------------------------------------------------------
Device 0: Quadro RTX 6000, 72 CUs, 23/24 GB, 1.8 GHZ (Mixed Precision)
--------------------------------------------------------------------------

Initializing Device and compiling on process 0...Done.
Initializing Device 0 on core 0...Done.

Generated 3 of 3 mixed pair_coeff terms from arithmetic mixing rule
STAGE COMPLETE: NVT T=300.0->300.0K steps=2000000
Cuda driver error 4 in call at file '/home/arz2/lammps/lib/gpu/geryon/nvd_timer.h' in line 98.
Cuda driver error 4 in call at file '/home/arz2/lammps/lib/gpu/geryon/nvd_timer.h' in line 99.
Cuda driver error 4 in call at file '/home/arz2/lammps/lib/gpu/geryon/nvd_timer.h' in line 98.
Cuda driver error 4 in call at file '/home/arz2/lammps/lib/gpu/geryon/nvd_timer.h' in line 99.
Cuda driver error 4 in call at file '/home/arz2/lammps/lib/gpu/geryon/nvd_timer.h' in line 98.
Cuda driver error 4 in call at file '/home/arz2/lammps/lib/gpu/geryon/nvd_timer.h' in line 99.
