units real
atom_style full
boundary p p p

# --- Force Field Styles ---
pair_style lj/class2/coul/long 9.5 9.5
kspace_style pppm 1e-6
dielectric 1.000000
bond_style class2
angle_style class2
dihedral_style class2
improper_style class2
special_bonds lj/coul 0 0 1
pair_modify mix sixthpower tail yes
neighbor 2.0 bin
neigh_modify delay 0 every 1 check yes
neigh_modify one 4000
# KOKKOS: package loaded via -pk kokkos on the command line

read_data /home/arz2/PolyJarvis/data/PEEK1/lammps/equil/npt_prod300/npt_prod300_out.data
Reading data file ...
  orthogonal box = (3.978607 3.978607 3.978607) to (40.346249 40.346249 40.346249)
  1 by 1 by 1 MPI processor grid
  reading atoms ...
  4096 atoms
  reading velocities ...
  4096 velocities
  scanning bonds ...
  3 = max bonds/atom
  scanning angles ...
  9 = max angles/atom
  scanning dihedrals ...
  18 = max dihedrals/atom
  scanning impropers ...
  4 = max impropers/atom
  orthogonal box = (3.978607 3.978607 3.978607) to (40.346249 40.346249 40.346249)
  1 by 1 by 1 MPI processor grid
  reading bonds ...
  4448 bonds
  reading angles ...
  7080 angles
  reading dihedrals ...
  10544 dihedrals
  reading impropers ...
  2280 impropers
Finding 1-2 1-3 1-4 neighbors ...
  special bond factors lj:    0        0        1       
  special bond factors coul:  0        0        1       
     3 = max # of 1-2 neighbors
     6 = max # of 1-3 neighbors
     9 = max # of special neighbors
  special bonds CPU = 0.003 seconds
  read_data CPU = 0.172 seconds


# --- Thermo Output ---
thermo_style custom step time temp press enthalpy etotal ke pe ebond eangle edihed eimp evdwl ecoul elong etail vol lx ly lz density pxx pyy pzz
thermo_modify flush yes
thermo 100

# --- Trajectory ---
dump dump_npt all custom 1000 /home/arz2/PolyJarvis/data/PEEK1/lammps/mechanical/bm_series/bm_P0/bm_P0.dump id type mol x y z ix iy iz vx vy vz

# --- Restart Checkpointing ---
restart 10000 npt_1.rst npt_2.rst

# --- Initial Velocities (optional) ---
# Velocities read from data file

# --- SHAKE Constraints ---
fix shake_fix all shake 1e-4 1000 0 m 1.008
Finding SHAKE clusters ...
    1456 = # of size 2 clusters
       0 = # of size 3 clusters
       0 = # of size 4 clusters
       0 = # of frozen angles
  find clusters CPU = 0.001 seconds

# --- NPT Thermostat + Barostat (Nose-Hoover) ---
# T_damp = 100.0 fs  (heat bath coupling)
# P_damp = 1000.0 fs  (pressure bath coupling, ~10x T_damp typical)
# Ramp: T=300.0->300.0K  P=0.0->0.0atm
timestep 1.0
fix npt_fix all npt temp 300.0 300.0 100.0 iso 0.0 0.0 1000.0

run 500000
PPPM Kokkos initialization ...
  using 12-bit tables for long-range coulomb
  G vector (1/distance) = 0.31284831
  grid = 30 30 30
  stencil order = 5
  estimated absolute RMS force accuracy = 0.00027919675
  estimated relative force accuracy = 8.4079272e-07
  using double precision cuFFT
  3d grid and FFT values/proc = 50653 27000
Generated 21 of 21 mixed pair_coeff terms from sixthpower/sixthpower mixing rule
Neighbor list info ...
  update: every = 1 steps, delay = 0 steps, check = yes
  max neighbors/atom: 4000, page size: 100000
  master list distance cutoff = 11.5
  ghost atom cutoff = 11.5
  binsize = 11.5, bins = 4 4 4
  1 neighbor lists, perpetual/occasional/extra = 1 0 0
  (1) pair lj/class2/coul/long/kk, perpetual
      attributes: full, newton off, kokkos_device
      pair build: full/bin/kk/device
      stencil: full/bin/3d
      bin: kk/device
Per MPI rank memory allocation (min/avg/max) = 23.84 | 23.84 | 23.84 Mbytes
   Step          Time           Temp          Press         Enthalpy        TotEng         KinEng         PotEng         E_bond        E_angle        E_dihed        E_impro         E_vdwl         E_coul         E_long         E_tail         Volume           Lx             Ly             Lz          Density          Pxx            Pyy            Pzz      
         0   0              341.83751      2744.1105      14134.273      12209.307      3678.0796      8531.2278      1422.0011      2708.3998      2405.0606      202.02139     -609.28322      7467.3647     -5064.3367     -367.47146      48100.038      36.367642      36.367642      36.367642      1.1949246      3132.241       4644.5826      455.50794    
       100   100            292.37669      532.97642      12160.491      11786.373      3145.8945      8640.4784      1468.1999      2716.7712      2407.8407      211.90737     -591.6823       7489.4713     -5062.0297     -367.23473      48131.044      36.375454      36.375454      36.375454      1.1941548      457.47134      1218.1477     -76.689784    
       200   200            297.04558     -137.11869      11611.424      11707.762      3196.1304      8511.632       1341.1936      2765.852       2364.039       200.24389     -588.76221      7493.245      -5064.1793     -366.89381      48175.768      36.386718      36.386718      36.386718      1.1930462      506.88002     -1680.3578      762.12176    
       300   300            293.97111     -1472.8913      10599.849      11635.777      3163.0499      8472.727       1362.5354      2649.1484      2467.0105      211.21345     -636.10035      7484.0024     -5065.0828     -366.51022      48226.189      36.399407      36.399407      36.399407      1.1917989     -527.82865     -580.82477     -3310.0204    
       400   400            295.8979      -636.55856      11258.708      11706.043      3183.7817      8522.2617      1392.7178      2757.7469      2388.8943      204.30018     -652.68248      7494.3989     -5063.1138     -366.81708      48185.846      36.389255      36.389255      36.389255      1.1927967      668.67313     -1789.2621     -789.08671    
       500   500            300.74898      149.28546      11912.531      11807.935      3235.9781      8571.9574      1430.8008      2711.7426      2417.9517      207.21476     -617.80142      7488.9901     -5066.9413     -367.9153       48042.012      36.353012      36.353012      36.353012      1.1963678      825.32091     -413.30777      35.843237    
       600   600            301.05683      1907.3021      13145.987      11813.416      3239.2905      8574.1259      1445.7057      2709.1404      2362.5096      206.17116     -576.13008      7490.2159     -5063.4868     -368.95562      47906.55       36.318812      36.318812      36.318812      1.1997507      1738.3253      1959.2083      2024.3726    
       700   700            294.009        467.58084      12117.354      11790.58       3163.4577      8627.1225      1491.5841      2748.0824      2353.8082      211.52384     -605.51689      7488.2862     -5060.6454     -368.85354      47919.809      36.322162      36.322162      36.322162      1.1994188      692.94321     -511.73083      1221.5301    
       800   800            300.35567      576.02501      12138.337      11734.895      3231.7461      8503.1485      1388.974       2740.4577      2378.94        213.12264     -632.91898      7476.8819     -5062.3087     -368.04789      48024.705      36.348646      36.348646      36.348646      1.196799       826.77101      75.247922      826.05611    
       900   900            292.55938      158.78965      11799.416      11687.793      3147.8601      8539.9328      1379.4934      2754.1541      2401.5903      205.17491     -611.87842      7475.828      -5064.4294     -366.70302      48200.834      36.393027      36.393027      36.393027      1.1924258      738.34725      962.44077     -1224.4191    
      1000   1000           293.11302     -2147.7221      10214.875      11730.761      3153.8172      8576.944       1397.565       2745.1886      2479.5861      196.05409     -652.1105       7474.2238     -5063.5631     -365.22146      48396.365      36.442172      36.442172      36.442172      1.1876082     -1425.1671     -1019.3549     -3998.6444    
      1100   1100           298.38976     -804.41176      11277.748      11845.82       3210.5934      8635.2265      1428.3289      2755.5531      2406.1354      208.1865      -578.00353      7478.3087     -5063.2826     -365.02313      48422.661      36.44877       36.44877       36.44877       1.1869633      729.27408     -1073.0494     -2069.46      
      1200   1200           300.05473      513.42063      12221.033      11858.488      3228.5081      8629.98        1508.6108      2756.576       2335.2346      200.5359      -595.66253      7487.4896     -5062.8043     -365.05304      48418.693      36.447775      36.447775      36.447775      1.1870605      1524.7416      1172.1751     -1156.6548    
      1300   1300           299.47527      1136.7091      12609.566      11809.748      3222.2733      8587.4748      1447.5838      2711.5837      2371.6417      210.04942     -579.1907       7487.2451     -5061.4382     -366.35595      48246.497      36.404516      36.404516      36.404516      1.1912972      1425.8804      2313.0654     -328.81848    
      1400   1400           299.46352     -2053.268       10282.484      11727.61       3222.1468      8505.4627      1387.6382      2701.1886      2446.366       207.16716     -653.77848      7480.8306     -5063.9494     -366.25615      48259.644      36.407822      36.407822      36.407822      1.1909727     -2067.2454     -214.19939     -3878.3593    
      1500   1500           293.0704       762.64434      12253.952      11718.816      3153.3586      8565.4579      1411.4675      2738.5045      2377.8228      204.5369      -589.93719      7487.8348     -5064.7713     -367.36953      48113.384      36.371005      36.371005      36.371005      1.1945931      932.46377      1575.8482     -220.37894    
      1600   1600           298.34059     -630.34793      11310.935      11753.412      3210.0644      8543.3476      1375.5078      2740.6251      2410.2844      200.10242     -597.70839      7479.6        -5065.0639     -367.2267       48132.098      36.37572       36.37572       36.37572       1.1941287      1707.3454     -2325.9415     -1272.4477    
      1700   1700           302.05385     -585.38576      11355.28       11766.168      3250.0181      8516.1495      1390.3491      2675.9265      2429.5766      199.33038     -600.20471      7485.927      -5064.7553     -367.25221      48128.754      36.374878      36.374878      36.374878      1.1942116      515.98491     -873.26019     -1398.882     
      1800   1800           301.56295      1013.1504      12480.146      11769.185      3244.7362      8524.4491      1470.5414      2749.3501      2319.0844      196.53538     -637.20082      7490.4232     -5064.2845     -367.34441      48116.674      36.371834      36.371834      36.371834      1.1945115      675.68366      739.49947      1624.2682    
      1900   1900           298.92824     -644.18719      11336.608      11788.254      3216.3873      8571.8669      1390.3252      2774.2213      2402.4488      205.55334     -628.66265      7492.6098     -5064.6289     -367.67043      48074.009      36.36108       36.36108       36.36108       1.1955716      687.35809     -2570.682      -49.237606    
      2000   2000           302.09994     -203.60337      11715.669      11858.276      3250.514       8607.7621      1440.8406      2784.9705      2378.054       200.52845     -621.78569      7488.9047     -5063.7504     -368.03456      48026.444      36.349084      36.349084      36.349084      1.1967557      681.96209     -1353.425       60.652802    
      2100   2100           301.7141       11.242975      11910.011      11902.154      3246.3624      8655.7917      1455.4837      2805.659       2376.0105      217.60757     -623.57779      7487.7073     -5063.0985     -368.87325      47917.248      36.321515      36.321515      36.321515      1.1994829     -469.50348     -1021.4958      1524.7282    
      2200   2200           304.48151     -363.47584      11583.718      11837.528      3276.1391      8561.3884      1417.88        2751.3837      2408.244       187.56176     -626.9026       7488.6829     -5065.4613     -369.15816      47880.267      36.312169      36.312169      36.312169      1.2004093     -897.8357       101.25926     -293.85108    
      2300   2300           298.6618      -448.66651      11425.375      11739.169      3213.5205      8525.6484      1432.7115      2749.4558      2352.9477      203.80659     -629.64098      7480.9317     -5064.564      -368.57312      47956.267      36.331371      36.331371      36.331371      1.1985069      1021.3746     -559.97527     -1807.3989    
      2400   2400           300.58252     -80.207955      11664.658      11720.724      3234.1869      8486.5369      1424.7794      2752.2112      2308.1332      201.00777     -620.39538      7485.2697     -5064.4689     -368.77652      47929.817      36.324691      36.324691      36.324691      1.1991683     -1592.9186      1024.3822      327.9126     
      2500   2500           296.35698     -204.64477      11597.538      11740.549      3188.7212      8551.8278      1412.6481      2709.123       2410.2117      211.28087     -610.95514      7481.8959     -5062.3767     -368.87284      47917.301      36.321529      36.321529      36.321529      1.1994815      737.7641      -1384.1472      32.448743    
      2600   2600           301.84126      1174.6178      12662.145      11838.754      3247.7306      8591.0232      1418.6354      2741.5503      2351.0805      197.47686     -536.48218      7482.0598     -5063.2975     -367.73526      48065.533      36.358943      36.358943      36.358943      1.1957824      1208.397       2644.7329     -329.27656    
      2700   2700           302.13694      10.05114       11900.184      11893.093      3250.9121      8642.1806      1473.5133      2792.7417      2351.3133      204.13902     -611.44823      7493.6073     -5061.6858     -365.38021      48375.338      36.436893      36.436893      36.436893      1.1881244     -85.757939      1666.9977     -1551.0863    
      2800   2800           304.36294     -396.51558      11571.812      11852.205      3274.8633      8577.3414      1441.2945      2744.9077      2371.1745      206.27834     -601.23232      7480.7605     -5065.8418     -364.53403      48487.63       36.465064      36.465064      36.465064      1.1853728      65.172963     -262.29611     -992.42359    
      2900   2900           300.28552     -889.87717      11161.15       11789.201      3230.9913      8558.2101      1441.2002      2743.5772      2347.7651      194.65604     -594.62325      7489.5116     -5063.8769     -365.24108      48393.765      36.441519      36.441519      36.441519      1.187672      -1065.8715     -1231.2918     -372.46827    
      3000   3000           300.33992     -970.53534      11080.35       11761.765      3231.5767      8530.1887      1395.9178      2727.4565      2383.0284      196.89775     -571.69956      7463.6336     -5065.0458     -367.15098      48142.024      36.37822       36.37822       36.37822       1.1938825      120.54531     -1674.1387     -1358.0126    
      3100   3100           293.63905      1659.7657      12923.457      11764.636      3159.4771      8605.1588      1435.4085      2807.1677      2349.8241      211.59136     -617.46598      7484.5615     -5065.9284     -369.21164      47873.331      36.310415      36.310415      36.310415      1.2005832      2163.9476      749.76146      2065.588     
      3200   3200           299.47071     -661.09402      11332.578      11792.803      3222.2242      8570.5788      1405.4179      2704.8884      2446.1368      206.60504     -608.74034      7482.3444     -5066.0734     -370.2863       47734.391      36.275254      36.275254      36.275254      1.2040778     -174.95142     -1192.3867     -615.94392    
      3300   3300           308.43106      899.46391      12509.844      11882.153      3318.6351      8563.5176      1441.6562      2714.0966      2391.6644      203.33225     -599.77597      7478.8248     -5066.2806     -369.3881       47850.462      36.304632      36.304632      36.304632      1.201157       553.02472      304.40231      1840.9647    
      3400   3400           311.39472      1262.6541      12842.877      11956.867      3350.5233      8606.344       1437.3668      2785.9007      2386.796       203.5193      -641.72321      7498.8382     -5064.3538     -367.35926      48114.729      36.371344      36.371344      36.371344      1.1945598      655.9026      -5.2288213      3137.2886    
      3500   3500           304.27781     -1069.069       11119.475      11872.927      3273.9473      8598.9798      1427.3062      2710.9075      2426.8488      199.59183     -587.9685       7487.7155     -5065.4216     -365.75918      48325.215      36.424304      36.424304      36.424304      1.1893567      1272.6405     -1465.8144     -3014.0331    
      3600   3600           302.02065     -592.12645      11390.629      11808.458      3249.6608      8558.797       1404.1676      2753.2912      2381.1391      207.87947     -612.08468      7489.6546     -5065.2502     -365.30928      48384.73       36.439251      36.439251      36.439251      1.1878937     -882.7819       272.38747     -1165.9849    
      3700   3700           294.79529     -157.52179      11674.198      11785.05       3171.918       8613.1323      1434.121       2799.7061      2382.9358      191.72424     -608.80499      7478.1627     -5064.7126     -366.30376      48253.371      36.406245      36.406245      36.406245      1.1911275      632.4265       366.67529     -1471.6672    
      3800   3800           301.76877     -1458.5783      10759.456      11781.359      3246.9507      8534.4087      1365.1893      2755.8606      2426.3279      207.63639     -641.93725      7486.658      -5065.3262     -367.9298       48040.119      36.352534      36.352534      36.352534      1.196415       769.35161     -2843.0717     -2302.0149    
      3900   3900           298.43849      1608.0543      12888.089      11767.282      3211.1177      8556.1645      1443.4273      2714.0506      2342.8115      217.44293     -585.96858      7489.849      -5065.4484     -369.84091      47791.877      36.28981       36.28981       36.28981       1.2026295      3322.2002      768.36537      733.59737    
      4000   4000           298.01491      776.091        12292.345      11751.62       3206.5601      8545.0595      1368.9242      2787.1402      2387.6914      213.29021     -631.68736      7486.6132     -5066.9124     -369.98187      47773.669      36.285201      36.285201      36.285201      1.2030878      194.45825      1170.2347      963.58002    
      4100   4100           299.13192     -424.98823      11453.998      11750.275      3218.5789      8531.6963      1412.5465      2747.9673      2351.0483      203.67253     -607.79117      7488.5787     -5064.326      -369.76358      47801.872      36.29234       36.29234       36.29234       1.202378      -1089.8132     -855.56847      670.417      
      4200   4200           299.43791     -781.15994      11229.066      11774.643      3221.8713      8552.7719      1397.3493      2805.739       2368.3987      205.05551     -643.12753      7482.7459     -5063.389      -369.08679      47889.525      36.314509      36.314509      36.314509      1.2001773     -108.89739     -1369.754      -864.82844    
      4300   4300           301.32711      1299.7699      12710.215      11804.231      3242.1985      8562.0325      1400.6007      2770.976       2366.4969      198.43113     -599.81313      7488.4773     -5063.1364     -369.8205       47794.514      36.290478      36.290478      36.290478      1.2025631      653.13738      1739.192       1506.9803    
      4400   4400           305.77752     -1729.6741      10643.715      11849.461      3290.0838      8559.3772      1394.7301      2744.6365      2445.7878      203.39971     -644.1402       7481.3477     -5066.3844     -369.78836      47798.669      36.291529      36.291529      36.291529      1.2024586     -1537.3011     -1551.0609     -2100.6603    
      4500   4500           299.91518      1042.3291      12567.119      11840.276      3227.0065      8613.2693      1451.6756      2765.6725      2357.0912      207.97848     -579.61742      7476.7418     -5066.2729     -369.66587      47814.506      36.295537      36.295537      36.295537      1.2020603      1415.0426      1946.3613     -234.41656    
      4600   4600           299.00852     -2410.2334      10055.234      11742.67       3217.2511      8525.4184      1344.3967      2774.6534      2439.7887      205.58876     -662.44043      7489.0007     -5065.5694     -368.1942       48005.62       36.34383       36.34383       36.34383       1.1972748     -1541.5458     -3462.8426     -2226.3119    
      4700   4700           302.65132      11.925498      11716.561      11708.193      3256.4467      8451.7459      1395.1508      2745.6006      2333.0273      197.74218     -639.09498      7485.099      -5065.779      -367.36866      48113.498      36.371034      36.371034      36.371034      1.1945903      225.44982     -625.72449      436.05116    
      4800   4800           302.49772     -92.105762      11685.95       11750.596      3254.794       8495.8017      1374.9233      2768.5256      2377.1025      194.90938     -640.85055      7485.5689     -5064.3773     -367.27579      48125.664      36.374099      36.374099      36.374099      1.1942883      450.54779      171.7695      -898.63457    
      4900   4900           305.07641     -575.63241      11429.663      11832.503      3282.54        8549.9627      1438.778       2702.8669      2395.5648      197.29427     -601.00345      7483.854      -5067.3919     -368.34785      47985.597      36.338776      36.338776      36.338776      1.1977744     -487.50019     -205.9097      -1033.4873    
      5000   5000           305.94699      227.22036      11993.101      11834.222      3291.9072      8542.3149      1387.6677      2765.9688      2358.0718      204.10684     -605.43304      7494.7747     -5062.8419     -368.66054      47944.895      36.328499      36.328499      36.328499      1.1987912     -194.41173      561.65219      314.42062    
      5100   5100           299.47885      987.43628      12486.321      11795.911      3222.3118      8573.5995      1404.2021      2740.9794      2383.6697      206.16995     -594.58398      7498.5499     -5065.3875     -368.67782      47942.649      36.327932      36.327932      36.327932      1.1988474      136.64957      559.44763      2266.2117    
      5200   5200           297.97483     -65.439652      11715.467      11761.348      3206.129       8555.2192      1421.5639      2725.2374      2394.4296      206.75098     -621.45843      7491.5229     -5062.827      -367.66383      48074.871      36.361298      36.361298      36.361298      1.1955501      605.86622     -2060.0033      1257.8181    
      5300   5300           292.54864     -62.590927      11686.806      11730.85       3147.7446      8583.1057      1383.924       2749.6363      2425.0481      212.76583     -609.11068      7484.957      -5064.1148     -366.32207      48250.96       36.405638      36.405638      36.405638      1.1911871      1950.4829     -1843.3898     -294.86593    
      5400   5400           300.51284     -7.978247       11772.871      11778.498      3233.4372      8545.0612      1406.014       2785.8178      2345.1189      204.07337     -622.1165       7490.5861     -5064.4325     -365.43853      48367.618      36.434955      36.434955      36.434955      1.188314       1429.4782     -1542.2         88.787084    
      5500   5500           306.2329      -960.9765       11193.41       11870.856      3294.9835      8575.8723      1424.0816      2737.1781      2393.8302      203.51947     -608.62683      7491.2195     -5065.3297     -365.66485      48337.682      36.427436      36.427436      36.427436      1.1890499     -876.17715     -1739.4701     -267.28224    
      5600   5600           306.87844     -34.882738      11841.133      11865.586      3301.9294      8563.657       1411.4571      2789.1935      2363.8126      203.03591     -627.07773      7488.2035     -5064.9678     -367.71729      48067.882      36.359536      36.359536      36.359536      1.195724       964.64723     -578.55832     -490.73712    
      5700   5700           300.43039      594.55325      12197.645      11783.126      3232.5501      8550.5761      1424.9056      2762.4225      2353.1314      203.76706     -613.96818      7489.5286     -5069.2109     -369.73613      47805.421      36.293238      36.293238      36.293238      1.2022887     -1185.4473      1611.6173      1357.4898    
      5800   5800           299.55498     -625.4367       11301.74       11736.837      3223.1309      8513.7063      1407.1404      2722.7689      2393.7964      200.27877     -632.56982      7489.1787     -5066.887      -370.54584      47700.957      36.266783      36.266783      36.266783      1.2049217      1830.3304      86.509182     -3793.1497    
      5900   5900           296.24346      1243.0398      12608.635      11742.755      3187.4998      8555.2548      1412.934       2814.459       2344.7702      196.4299      -633.24082      7490.9059     -5071.0034     -370.05989      47763.597      36.282651      36.282651      36.282651      1.2033415      332.62699      1465.7636      1930.7287    
      6000   6000           294.84904     -279.10812      11573.346      11768.143      3172.4962      8595.6467      1435.7244      2737.4695      2401.4914      201.86014     -605.66756      7491.2938     -5066.525      -369.34748      47855.725      36.305963      36.305963      36.305963      1.2010249      1163.8311     -878.70934     -1122.4461    
      6100   6100           303.9005      -351.43368      11582.818      11829.071      3269.8876      8559.1832      1439.286       2789.5988      2360.8528      202.36816     -661.84211      7494.2047     -5065.2851     -367.88027      48046.587      36.354166      36.354166      36.354166      1.1962539      151.79523     -247.5659      -958.53038    
      6200   6200           302.60918      745.07391      12436.771      11914.553      3255.9933      8658.5592      1471.3533      2771.6588      2375.4786      213.44145     -605.88428      7499.091      -5066.5797     -367.783        48059.294      36.35737       36.35737       36.35737       1.1959376      2058.9989      1599.9557     -1423.7329    
      6300   6300           305.86056     -939.03789      11218.56       11876.298      3290.9773      8585.3205      1417.2323      2762.0588      2430.1148      202.02594     -656.5447       7496.5829     -5066.1496     -368.02354      48027.882      36.349447      36.349447      36.349447      1.1967198     -1603.7822      1528.5441     -2741.8756    
      6400   6400           297.22066      1011.0973      12443.05       11737.785      3198.0143      8539.7706      1402.2425      2785.3426      2375.0069      200.58529     -645.60186      7488.2625     -5066.0673     -369.56025      47828.172      36.298994      36.298994      36.298994      1.2017168      1667.3797      1764.7964     -398.88418    
      6500   6500           298.50889      341.37307      11991.703      11754.021      3211.8753      8542.1458      1403.1598      2745.4566      2395.3038      192.94242     -605.76461      7478.235      -5067.1871     -370.23489      47741.02       36.276933      36.276933      36.276933      1.2039106      904.05191     -251.13708      371.20439    
      6600   6600           300.36152     -24.406533      11752.219      11769.219      3231.8091      8537.4103      1429.5632      2777.9812      2382.9063      200.13323     -682.57362      7495.3323     -5065.9323     -370.07515      47761.627      36.282152      36.282152      36.282152      1.2033911      151.82735      341.13123     -566.17818    
      6700   6700           298.29418      650.25529      12220.764      11767.298      3209.5651      8557.7325      1475.4782      2758.1733      2351.4413      200.69454     -653.66805      7492.1201     -5066.507      -369.64385      47817.354      36.296258      36.296258      36.296258      1.2019887      1089.1709     -469.71888      1331.3138    
      6800   6800           299.41979      455.8875       12107.755      11789.475      3221.6763      8567.7991      1455.1526      2787.068       2354.9229      206.0539      -661.52198      7489.8357     -5063.712      -369.22709      47871.328      36.309909      36.309909      36.309909      1.2006335      1199.7564     -721.52809      889.4342     
      6900   6900           297.96582      56.953625      11871.097      11831.28       3206.032       8625.248       1437.7288      2772.4531      2408.8104      216.66412     -645.10455      7496.3093     -5061.6132     -368.71917      47937.273      36.326574      36.326574      36.326574      1.1989818      2093.4662     -616.46532     -1306.14      
      7000   7000           303.26912     -775.86001      11342.924      11886.187      3263.0941      8623.0933      1416.7921      2730.3565      2474.9139      208.74916     -635.46972      7490.3453     -5062.5939     -368.14414      48012.149      36.345478      36.345478      36.345478      1.197112       896.46331     -1599.2944     -1624.749     
      7100   7100           307.23402     -536.98224      11510.163      11886.397      3305.7553      8580.6417      1373.7734      2751.2032      2455.9603      201.27888     -623.2216       7486.1892     -5064.5417     -367.91403      48042.178      36.353054      36.353054      36.353054      1.1963637      960.37118     -1555.5748     -1015.7431    
      7200   7200           294.11842     -2068.6464      10323.885      11775.241      3164.635       8610.6057      1378.5386      2773.1618      2421.6964      209.56154     -600.48003      7492.6948     -5064.5674     -367.4153       48107.39       36.369495      36.369495      36.369495      1.194742      -2215.4703     -934.81725     -3055.6517    
      7300   7300           299.58409      36.125497      11752.855      11727.502      3223.4442      8504.0581      1473.9946      2712.1334      2362.6836      192.7421      -673.95472      7500.1572     -5063.6982     -367.30967      48121.224      36.37298       36.37298       36.37298       1.1943985     -521.1093      -251.40802      880.89381    
      7400   7400           296.66445      2223.4124      13292.456      11735.259      3192.0296      8543.2298      1424.9419      2739.44        2323.6368      210.57538     -588.15901      7498.5453     -5065.7506     -368.06243      48022.807      36.348167      36.348167      36.348167      1.1968463      3286.2955      2522.8282      861.11356    
      7500   7500           301.44319      1417.3795      12812.207      11819.624      3243.4475      8576.1764      1485.9724      2690.1262      2369.1077      197.90565     -591.97091      7487.771      -5062.7357     -368.0986       48018.088      36.346976      36.346976      36.346976      1.1969639      1830.5073      853.51019      1568.1209    
      7600   7600           302.82526      124.64283      11975.889      11888.566      3258.3183      8630.2478      1398.9652      2744.7537      2459.3809      204.78296     -606.70607      7496.8982     -5067.827      -367.94659      48037.926      36.351981      36.351981      36.351981      1.1964696      78.865265      581.08185     -286.01864    
      7700   7700           302.0694      -1561.8198      10758.347      11855.305      3250.1854      8605.1195      1368.4409      2814.5323      2422.3624      204.30234     -644.7303       7505.6027     -5065.3909     -367.01686      48159.617      36.382651      36.382651      36.382651      1.1934463      759.93586     -3274.1506     -2171.2448    
      7800   7800           300.57915     -621.89867      11366.402      11802.022      3234.1507      8567.8716      1391.3156      2762.9647      2393.1377      191.97598     -602.47906      7497.27       -5066.3134     -368.00749      48029.977      36.349976      36.349976      36.349976      1.1966676     -2451.1027      602.39614     -16.989486    
      7900   7900           298.99405     -180.83707      11629.013      11755.298      3217.0954      8538.2023      1455.0734      2723.6894      2369.6463      196.68768     -627.17458      7485.9796     -5065.6995     -369.13067      47883.832      36.31307       36.31307       36.31307       1.2003199      1817.9242     -1293.5637     -1066.8717    
      8000   8000           300.28453      134.62734      11824.9        11731.382      3230.9807      8500.4009      1418.586       2778.4394      2328.2902      192.18026     -649.68454      7497.3503     -5064.7607     -371.08984      47631.03       36.249052      36.249052      36.249052      1.2066907      137.41819     -60.869403      327.33324    
      8100   8100           300.11487      574.29859      12129.258      11730.883      3229.1552      8501.7281      1441.0756      2730.1601      2327.207       202.58413     -627.91949      7494.5001     -5065.8793     -371.61347      47563.915      36.232019      36.232019      36.232019      1.2083934      418.23613      629.78236      674.87728    
      8200   8200           301.67586     -802.21609      11232.335      11789.131      3245.951       8543.18        1381.8564      2776.6062      2397.9512      207.23269     -648.80126      7494.0005     -5065.6656     -371.39843      47591.453      36.23901       36.23901       36.23901       1.2076941     -1370.8777      624.58816     -1660.3587    
      8300   8300           302.2359      -1788.6844      10596.368      11841.935      3251.9768      8589.9577      1416.49        2730.1855      2482.2022      205.76877     -669.68         7490.8265     -5065.8353     -370.1789       47748.24       36.278762      36.278762      36.278762      1.2037285     -2001.6044     -1813.513      -1550.9357    
      8400   8400           300.75562      785.75121      12387.619      11838.988      3236.0494      8602.9384      1397.4787      2780.7142      2402.3172      212.35363     -620.4563       7496.5093     -5065.9782     -369.18996      47876.142      36.311126      36.311126      36.311126      1.2005127      659.77328      589.70579      1107.7745    
      8500   8500           293.67779     -611.15461      11329.746      11758.218      3159.894       8598.3243      1439.4832      2790.9867      2368.2565      204.71424     -630.20708      7494.1155     -5069.0249     -367.68271      48072.402      36.360675      36.360675      36.360675      1.1956115     -1268.7419     -307.72278     -256.99918    
      8600   8600           295.65657     -1341.0346      10761.375      11703.903      3181.185       8522.7177      1399.5748      2755.3393      2407.0202      190.52448     -660.22963      7497.1415     -5066.6529     -366.76733      48192.382      36.3909        36.3909        36.3909        1.1926349     -2653.4328      493.81528     -1863.4863    
      8700   8700           298.10502      1460.1254      12784.869      11758.34       3207.5297      8550.8107      1456.0492      2771.9044      2329.194       190.53497     -622.06565      7493.5631     -5068.3693     -366.66053      48206.42       36.394433      36.394433      36.394433      1.1922876      1259.5724      2745.7081      375.09573    
      8800   8800           303.53411     -683.57064      11385.705      11865.469      3265.9453      8599.5235      1385.9865      2752.1428      2428.9985      215.27935     -610.05336      7496.2463     -5069.0765     -367.28287      48124.736      36.373865      36.373865      36.373865      1.1943114      466.06058     -1355.2055     -1161.567     
      8900   8900           306.21997     -421.67143      11571.436      11867.373      3294.8444      8572.5287      1445.713       2730.9687      2374.4005      201.19845     -610.28552      7495.1008     -5064.5672     -367.29904      48122.617      36.373331      36.373331      36.373331      1.1943639     -863.67019     -1018.2601      616.91603    
      9000   9000           298.92864      577.12122      12212.506      11807.471      3216.3917      8591.079       1442.8775      2721.8504      2391.4729      201.42986     -582.31166      7483.0612     -5067.3014     -367.29862      48122.672      36.373345      36.373345      36.373345      1.1943626      486.1981      -344.50865      1589.6742    
      9100   9100           295.64096     -813.96571      11178.949      11750.928      3181.0171      8569.9113      1454.9918      2757.0176      2402.7689      188.93562     -656.32553      7488.82       -5066.2971     -366.83493      48183.501      36.388665      36.388665      36.388665      1.1928548     -1355.0839     -2431.6359      1344.8227    
      9200   9200           298.69393      453.61165      12089.084      11770.188      3213.8662      8556.3217      1455.9297      2746.2275      2361.2621      208.92634     -633.17398      7481.4086     -5064.2586     -366.67426      48204.614      36.393979      36.393979      36.393979      1.1923323      351.61945      3.052768       1006.1627    
      9300   9300           308.3159       1825.4304      13161.301      11879.305      3317.3961      8561.9086      1448.0848      2729.041       2343.4471      200.23897     -577.31633      7486.5312     -5068.1182     -367.0484       48155.479      36.381609      36.381609      36.381609      1.1935489      1952.5741      1217.264       2306.4531    
      9400   9400           305.35488     -1121.8225      11094.311      11881.158      3285.5363      8595.6218      1422.0171      2737.8808      2416.6126      207.61852     -611.60678      7487.9143     -5064.8147     -367.51791      48093.959      36.36611       36.36611       36.36611       1.1950756     -878.47522     -1413.4614     -1073.5309    
      9500   9500           298.02409     -470.44198      11518.183      11847.869      3206.659       8641.2101      1437.4792      2746.3501      2434.4607      195.48        -604.36985      7498.031      -5066.2211     -367.83295      48052.768      36.355724      36.355724      36.355724      1.1961001      1217.301      -1742.8229     -885.80403    
      9600   9600           299.23973      1457.6777      12825.264      11805.121      3219.7389      8585.3818      1452.2755      2739.5029      2342.742       201.70333     -563.49034      7476.1887     -5063.5402     -368.33692      47987.021      36.339136      36.339136      36.339136      1.1977388      3183.1235      556.23445      633.67506    
      9700   9700           297.04761     -1076.6193      11008.099      11763.419      3196.1523      8567.2667      1413.7158      2753.3486      2404.3411      206.75991     -636.07463      7489.1564     -5063.9805     -367.43132      48105.293      36.368966      36.368966      36.368966      1.1947941      843.08174     -961.40384     -3111.5357    
      9800   9800           291.58719      890.71678      12372.277      11747.227      3137.3996      8609.8273      1459.3605      2759.8923      2358.7655      204.20948     -602.85433      7492.5503     -5062.0965     -367.34132      48117.079      36.371936      36.371936      36.371936      1.1945014      168.56677      2218.1815      285.40208    
      9900   9900           303.36096      163.75142      11907.233      11792.082      3264.0822      8527.9994      1404.7411      2735.7264      2340.551       197.87258     -580.22891      7491.8349     -5062.4976     -366.57185      48218.081      36.397368      36.397368      36.397368      1.1919993      2004.5302      645.79727     -2159.0732    
     10000   10000          304.69059      1097.0933      12642.568      11869.551      3278.3887      8591.1624      1456.9954      2715.3868      2357.0829      213.95197     -573.42547      7484.3919     -5063.2211     -365.8472       48313.588      36.421383      36.421383      36.421383      1.1896429     -640.57354      3480.8784      450.97499    
     10100   10100          306.32072     -980.17987      11190.241      11882.782      3295.9285      8586.8536      1413.9128      2708.0876      2406.5493      202.05259     -562.32615      7483.0258     -5064.4483     -364.84248      48446.637      36.454785      36.454785      36.454785      1.1863758     -1943.6859      715.81441     -1712.6681    
     10200   10200          290.1845      -1151.2006      10982.746      11797.262      3122.3071      8674.9546      1410.7802      2805.1519      2465.2669      210.08263     -633.66027      7484.7703     -5067.437      -364.33122      48514.621      36.471829      36.471829      36.471829      1.1847133     -2382.3487     -1248.395       177.14181    
     10300   10300          295.42889     -950.49139      11068.784      11738.841      3178.7353      8560.1053      1403.5502      2740.2055      2406.1514      194.26937     -592.23282      7476.7895     -5068.6278     -365.66356      48337.853      36.427479      36.427479      36.427479      1.1890458     -1528.5003     -852.8336      -470.14031    
     10400   10400          296.57261      657.81933      12206.526      11746.074      3191.0414      8555.0324      1454.436       2718.0179      2369.9286      205.80231     -607.54333      7483.2175     -5068.8266     -368.27025      47995.707      36.341328      36.341328      36.341328      1.1975221      719.93716      454.15784      799.36299    
     10500   10500          299.10948      582.43072      12194.648      11788.962      3218.3374      8570.625       1438.2171      2727.3039      2401.2587      201.59062     -613.30946      7482.2471     -5066.6829     -370.08363      47760.532      36.281875      36.281875      36.281875      1.2034187      880.09066      1931.6591     -1064.4576    
     10600   10600          298.42112      726.06573      12337.665      11831.47       3210.9309      8620.539       1473.5906      2746.5099      2340.458       205.70999     -567.20522      7484.9916     -5063.516      -369.74561      47804.194      36.292927      36.292927      36.292927      1.2023196      762.54178      446.78962      968.86579    
     10700   10700          303.87532      461.54527      12164.129      11840.778      3269.6166      8571.161       1448.1011      2714.5648      2396.345       214.68824     -628.26256      7493.0185     -5067.294      -367.94589      48038.018      36.352004      36.352004      36.352004      1.1964673      471.83329      998.5423      -85.739774    
     10800   10800          303.50377      1168.0769      12635.957      11814.565      3265.6188      8548.9459      1417.0281      2715.5297      2377.5663      207.80648     -593.68781      7489.523      -5064.8198     -366.57742      48217.348      36.397183      36.397183      36.397183      1.1920174      1489.9614      1788.1977      226.07165    
     10900   10900          297.05402     -2355.6799      10094.52       11756.802      3196.2212      8560.5803      1411.7846      2744.128       2432.9843      199.36799     -648.99798      7485.7337     -5064.4203     -365.30585      48385.185      36.439365      36.439365      36.439365      1.1878826     -3041.566      -1348.3188     -2677.1549    
     11000   11000          299.11416     -1087.8811      10969.653      11737.402      3218.3878      8519.0141      1383.2749      2744.1216      2390.1446      199.71782     -623.93384      7491.0977     -5065.4085     -365.26415      48390.708      36.440752      36.440752      36.440752      1.187747       64.798491     -2554.5347     -773.90718    
     11100   11100          297.31486      558.9925       12165.596      11772.161      3199.0278      8573.1336      1432.4164      2728.1439      2360.01        199.48894     -561.47153      7480.6919     -5066.146      -366.25065      48260.369      36.408005      36.408005      36.408005      1.1909548      414.14637      1962.8872     -700.05607    
     11200   11200          303.18985     -773.13738      11311.045      11854.544      3262.2411      8592.3031      1386.5818      2758.9173      2428.2114      206.3313      -611.2141       7488.851      -5065.3756     -366.69325      48202.118      36.39335       36.39335       36.39335       1.1923941     -786.32164     -455.34422     -1077.7463    
     11300   11300          305.33408      368.44432      12135.618      11876.404      3285.3125      8591.0911      1439.9064      2724.6486      2436.688       199.69943     -633.89924      7490.3301     -5066.2823     -366.40176      48240.465      36.402999      36.402999      36.402999      1.1914462      1448.3218      171.22256     -514.21141    
     11400   11400          299.08072      1545.4886      12886.996      11797.94       3218.0279      8579.9117      1462.6777      2733.4365      2351.0687      209.73183     -599.32538      7485.267      -5062.9446     -365.81416      48317.952      36.422479      36.422479      36.422479      1.1895355      580.62229      1433.0874      2622.756     
     11500   11500          294.92485     -1774.1452      10464.173      11714.191      3173.3119      8540.8787      1373.6826      2699.6829      2459.1584      208.04716     -632.50415      7494.9132     -5062.1014     -365.86267      48311.546      36.42087       36.42087       36.42087       1.1896932     -2266.393      -2184.7015     -871.34097    
     11600   11600          292.47718      746.64351      12262.85       11737.372      3146.9757      8590.3965      1415.8456      2747.588       2364.6865      204.62266     -584.32024      7502.0035     -5060.0295     -366.27173      48257.59       36.407306      36.407306      36.407306      1.1910234      64.595785      1841.0983      334.23647    
     11700   11700          294.79563     -225.88566      11632.268      11790.802      3171.9216      8618.8804      1431.5641      2756.5218      2377.0311      211.28119     -585.09986      7490.7884     -5063.2063     -367.29168      48123.581      36.373574      36.373574      36.373574      1.19434        415.60668      281.18577     -1374.4494    
     11800   11800          297.57337     -585.66357      11436.567      11845.779      3201.8093      8643.9698      1429.5482      2733.4638      2453.5406      207.40852     -616.97436      7500.7539     -5063.7709     -368.93063      47909.796      36.319632      36.319632      36.319632      1.1996694     -409.5314       343.3888      -1690.8481    
     11900   11900          300.23333     -255.39384      11669.277      11847.382      3230.4298      8616.9522      1424.9435      2752.4977      2425.1747      202.02554     -609.60509      7487.5365     -5065.6208     -369.64043      47817.798      36.29637       36.29637       36.29637       1.2019775     -1845.8286      927.51972      152.12737    
     12000   12000          293.37453     -417.40418      11423.914      11715.689      3156.6309      8559.058       1402.915       2741.8789      2387.3342      215.61489     -609.19791      7485.8598     -5065.3469     -368.76833      47930.882      36.32496       36.32496       36.32496       1.1991417     -1348.5406     -1034.9741      1131.3021    
     12100   12100          298.41248      376.44403      11961.93       11697.846      3210.8379      8487.0078      1402.5899      2753.1893      2337.9961      194.39851     -631.4015       7494.1688     -5063.9333     -367.45365      48102.37       36.368229      36.368229      36.368229      1.1948667      1969.659      -1442.1521      601.82516    
     12200   12200          302.28146     -459.79748      11448.991      11772.312      3252.4671      8519.8446      1434.6169      2743.098       2334.6761      210.61498     -634.0604       7494.5484     -5063.6493     -366.58768      48215.999      36.396844      36.396844      36.396844      1.1920508      989.08945     -2621.2289      252.74698    
     12300   12300          298.4729      -1078.0008      11063.624      11819.956      3211.4881      8608.4684      1455.3483      2695.8564      2425.5696      212.07219     -608.511        7494.2403     -5066.1074     -367.41032      48108.042      36.369659      36.369659      36.369659      1.1947258     -66.335605     -2430.1873     -737.47955    
     12400   12400          305.6503       1375.9005      12792.263      11829.064      3288.7149      8540.349       1431.778       2757.7019      2339.075       199.18043     -600.3329       7478.3888     -5065.4422     -368.2271       48001.332      36.342748      36.342748      36.342748      1.1973817      1732.8739      2849.1875     -454.35991    
     12500   12500          297.31103      540.58895      12158.384      11780.627      3198.9866      8581.64        1448.3267      2748.0146      2384.1953      203.16192     -621.79018      7484.4618     -5064.7302     -368.89239      47914.762      36.320887      36.320887      36.320887      1.1995451      1986.6872     -1773.9483      1409.0279    
     12600   12600          292.6324       206.84986      11793.931      11649.455      3148.6458      8500.8089      1430.6138      2733.8602      2345.0037      195.51855     -617.64972      7478.0189     -5064.5567     -369.0656       47892.274      36.315204      36.315204      36.315204      1.2001084      1029.961      -1355.9425      946.53109    
     12700   12700          293.94127      817.01321      12255.002      11682.962      3162.7289      8520.2331      1425.8094      2783.074       2318.6036      209.98184     -638.59939      7486.2406     -5064.8769     -368.16954      48008.837      36.344642      36.344642      36.344642      1.1971946      899.55393     -62.091777      1613.5775    
     12800   12800          299.20481     -377.26302      11493.229      11757.308      3219.3632      8537.9447      1428.8235      2725.6847      2392.2747      192.04707     -631.69496      7495.4429     -5064.6331     -368.26099      47996.915      36.341633      36.341633      36.341633      1.1974919     -158.25526      45.369716     -1018.9035    
     12900   12900          304.31561      342.83463      12046.374      11806.046      3274.3541      8531.6923      1415.3278      2734.7128      2387.1193      201.38009     -637.5733       7497.1559     -5066.4303     -367.72809      48066.47       36.35918       36.35918       36.35918       1.1957591      2201.0063      797.5834      -1970.0858    
     13000   13000          300.59276     -219.80673      11662.573      11816.819      3234.2971      8582.522       1407.1871      2731.8159      2458.8938      208.25664     -656.83826      7498.5819     -5065.3751     -367.34228      48116.953      36.371904      36.371904      36.371904      1.1945045      403.98605      136.88164     -1200.2879    
     13100   13100          303.81005     -2554.0198      10019.035      11813.975      3268.9143      8545.0608      1332.5461      2781.0535      2465.8554      208.34974     -665.37326      7489.9641     -5067.3348     -366.79154      48189.201      36.390099      36.390099      36.390099      1.1927137     -3101.4414     -2542.5061     -2018.1118    
     13200   13200          296.56602      1332.0523      12705.003      11771.208      3190.9705      8580.2376      1445.5544      2769.859       2333.4414      196.15716     -589.77656      7493.4106     -5068.4085     -367.71777      48067.819      36.35952       36.35952       36.35952       1.1957255      1886.3923      844.77608      1264.9884    
     13300   13300          294.40555     -851.15606      11118.799      11713.838      3167.7244      8546.1133      1391.2768      2751.2188      2413.8974      203.90864     -645.58636      7496.7826     -5065.3846     -368.7305       47935.799      36.326202      36.326202      36.326202      1.1990187     -967.25494     -472.13287     -1114.0804    
     13400   13400          299.9382       329.6157       11955.263      11725.26       3227.2542      8498.0056      1403.0665      2727.5076      2353.4817      208.92938     -629.68906      7500.762      -5066.0525     -369.41843      47846.533      36.303639      36.303639      36.303639      1.2012557      697.93735     -2.0877299      292.99748    
     13500   13500          297.94832      1367.0657      12763.52       11809.168      3205.8437      8603.3245      1499.7126      2755.4177      2357.318       201.48647     -620.68839      7479.0743     -5068.9961     -369.25442      47867.785      36.309013      36.309013      36.309013      1.2007223      3876.3697      832.37457     -607.54721    
     13600   13600          303.04619     -331.50473      11632.235      11864.185      3260.6954      8603.4892      1442.9114      2759.6259      2397.3731      207.99046     -627.07189      7488.1079     -5065.4477     -368.41783      47976.481      36.336475      36.336475      36.336475      1.198002       1986.6456     -863.59822     -2117.5615    
     13700   13700          302.30595     -336.33906      11607.256      11842.963      3252.7306      8590.2326      1425.5535      2733.2139      2439.9305      216.06545     -647.05012      7488.646      -5066.1266     -367.8322       48052.865      36.355749      36.355749      36.355749      1.1960976     -1080.9775      1710.7354     -1638.7751    
     13800   13800          296.98418      1019.9039      12513.39       11797.789      3195.4698      8602.319       1440.0343      2726.4259      2422.9746      217.70253     -624.42325      7486.1106     -5066.5057     -367.39488      48110.065      36.370169      36.370169      36.370169      1.1946756      3085.0425      153.34244     -178.67326    
     13900   13900          306.07681      512.63125      12142.727      11783.457      3293.3041      8490.1533      1439.3353      2743.5291      2346.3613      205.37854     -669.37159      7489.9487     -5065.028      -367.81464      48055.159      36.356327      36.356327      36.356327      1.1960405      1469.1006      216.68119     -147.88804    
     14000   14000          301.54067     -311.93186      11553.172      11771.361      3244.4964      8526.8643      1368.4036      2757.1985      2434.5418      206.70992     -668.59968      7493.805      -5065.1948     -368.52915      47961.99       36.332816      36.332816      36.332816      1.1983639      1259.27       -701.26324     -1493.8024    
     14100   14100          297.87302      50.145541      11813.455      11778.438      3205.0335      8573.4043      1399.9472      2726.4656      2422.1463      195.05954     -604.12413      7497.9744     -5064.0646     -369.14418      47882.08       36.312627      36.312627      36.312627      1.2003639     -651.41992      573.29439      228.56214    
     14200   14200          291.59344     -707.00373      11342.367      11836.969      3137.4669      8699.5021      1432.8924      2773.1414      2473.1233      206.6966      -617.2721       7494.6968     -5063.7764     -368.47698      47968.78       36.334531      36.334531      36.334531      1.1981943     -1716.2956     -306.16613     -98.549441    
     14300   14300          306.93951      758.93994      12441.939      11909.845      3302.5865      8607.2585      1474.8745      2718.556       2397.5869      209.70657     -625.77926      7497.7593     -5065.4455     -367.67477      48073.441      36.360937      36.360937      36.360937      1.1955857      1488.5956      739.90963      48.314597    
     14400   14400          304.54292      164.49539      11953.839      11838.431      3276.7997      8561.6314      1422.9032      2788.097       2351.0482      199.83677     -622.04404      7487.0147     -5065.2244     -367.42053      48106.705      36.369322      36.369322      36.369322      1.194759       882.65537      403.01338     -792.18257    
     14500   14500          297.134       -192.85561      11641.005      11776.026      3197.0818      8578.9445      1476.7217      2751.1736      2381.3842      206.53249     -653.02187      7481.882      -5065.7276     -368.19338      48005.728      36.343858      36.343858      36.343858      1.1972721     -1245.156       438.33741      228.25177    
     14600   14600          300.01481      798.75157      12324.832      11767.32       3228.0785      8539.2412      1450.2398      2779.9511      2316.2454      208.07112     -626.2618       7478.6066     -5067.6109     -369.31957      47859.341      36.306878      36.306878      36.306878      1.2009342      1780.9876      517.13058      98.136526    
     14700   14700          298.0294      -980.12438      11081.017      11764.957      3206.7161      8558.2409      1420.783       2752.8249      2408.8191      221.37477     -669.81245      7489.4864     -5065.2349     -369.40932      47847.713      36.303937      36.303937      36.303937      1.201226      -110.87532     -603.54293     -2225.9549    
     14800   14800          298.62846      1266.7895      12655.814      11771.137      3213.1618      8557.9752      1376.0518      2729.6032      2408.7807      207.3431      -575.37161      7480.3519     -5068.7838     -369.11768      47885.518      36.313496      36.313496      36.313496      1.2002777      1932.0351      468.66081      1399.6726    
     14900   14900          297.79762      18.361042      11831.998      11819.133      3204.2222      8614.9106      1396.1661      2778.8663      2416.152       199.74717     -602.42167      7494.1669     -5067.7662     -367.90558      48043.281      36.353332      36.353332      36.353332      1.1963362      1026.0467     -524.70661     -446.257      
     15000   15000          306.90101     -2725.4463      9961.8303      11879.073      3302.1722      8576.9009      1392.6554      2714.8961      2454.4         207.01023     -612.0421       7489.3315     -5069.3502     -366.44217      48235.145      36.401661      36.401661      36.401661      1.1915776     -3012.8519     -1470.4776     -3693.0092    
     15100   15100          300.98783     -541.95749      11455.023      11837.598      3238.548       8599.0495      1430.4142      2732.4141      2416.8174      204.789       -606.89193      7487.0177     -5065.5109     -365.16911      48403.304      36.443913      36.443913      36.443913      1.1874379      1064.711      -1118.2786     -1572.305     
     15200   15200          296.08296     -1355.7727      10788.646      11746.748      3185.7729      8560.9747      1389.1842      2735.9026      2444.6964      211.64863     -649.96675      7496.3778     -5066.868      -364.77081      48456.156      36.457173      36.457173      36.457173      1.1861428     -826.8845      -1397.5989     -1842.8346    
     15300   15300          296.11116      553.33856      12130.231      11739.822      3186.0764      8553.7454      1438.0347      2713.9508      2344.4411      216.48519     -584.5657       7490.8967     -5065.4972     -365.35537      48378.627      36.437719      36.437719      36.437719      1.1880436      1077.3801     -399.96485      982.60045    
     15400   15400          303.23067      1820.4865      13054.766      11775.364      3262.6803      8512.6836      1430.0106      2736.4196      2328.8158      210.41514     -628.58562      7500.9396     -5065.3315     -366.79652      48188.546      36.389935      36.389935      36.389935      1.1927299      1687.5077      1937.9957      1835.9559    
     15500   15500          303.24181     -1325.9512      10866.446      11794.692      3262.8002      8531.8916      1381.1503      2745.6304      2415.0341      205.49095     -642.96149      7491.9333     -5064.3859     -368.2218       48002.023      36.342922      36.342922      36.342922      1.1973645     -2868.6282     -82.704164     -1026.5211    
     15600   15600          304.05993      319.55795      12019.694      11797.287      3271.603       8525.6842      1372.4398      2750.2355      2414.9663      208.92045     -644.38975      7490.1631     -5066.6512     -370.37882      47722.467      36.272233      36.272233      36.272233      1.2043786     -741.99157      657.73975      1042.9257    
     15700   15700          296.8926      -221.54631      11636.217      11789.958      3194.4844      8595.4735      1446.5127      2723.7323      2464.9622      196.98396     -667.1671       7494.8248     -5064.3754     -371.46587      47582.814      36.236817      36.236817      36.236817      1.2079134     -842.57882     -850.28938      1028.2293    
     15800   15800          300.85507      2089.6927      13240.722      11791.859      3237.1195      8554.739       1461.6559      2735.5475      2335.0986      211.35314     -604.31726      7483.7133     -5068.3123     -371.79176      47541.105      36.226226      36.226226      36.226226      1.2089731      1410.7614      2396.0503      2462.2664    
     15900   15900          298.09329      715.17385      12306.232      11807.838      3207.4035      8600.435       1436.2984      2757.5019      2450.4915      204.87136     -678.03743      7496.2929     -5066.9836     -369.90009      47784.231      36.287875      36.287875      36.287875      1.2028219      813.6283       712.4348       619.45844    
     16000   16000          308.53682     -221.86147      11670.096      11824.931      3319.7731      8505.1581      1377.4001      2733.5332      2433.6048      206.60862     -671.8342       7493.2461     -5067.4005     -369.36701      47853.194      36.305323      36.305323      36.305323      1.2010885     -2300.9185      1327.1774      308.15662    
     16100   16100          302.14311     -1363.0092      10842.002      11792.868      3250.9785      8541.8894      1397.9904      2711.0336      2455.588       206.381       -652.38824      7489.4595     -5066.175      -369.50839      47834.885      36.300693      36.300693      36.300693      1.2015482     -881.09422     -480.33145     -2727.6018    
     16200   16200          296.36255      533.00126      12103.904      11732.815      3188.7813      8544.0334      1389.1861      2725.7109      2421.3173      214.32823     -636.92597      7497.0178     -5066.6009     -370.25003      47739.068      36.276439      36.276439      36.276439      1.2039598      1708.7161      815.39082     -925.10317    
     16300   16300          297.65327     -1135.5203      10929.897      11721.126      3202.669       8518.4568      1423.7607      2696.2489      2451.0436      204.7327      -681.97757      7490.317      -5065.6685     -369.94532      47778.389      36.286396      36.286396      36.286396      1.202969      -416.9454      -352.58617     -2637.0294    
     16400   16400          301.26041      697.07827      12249.967      11764.1        3241.4809      8522.6189      1426.0007      2701.7779      2407.3126      199.83623     -632.78797      7489.6998     -5069.2204     -369.83603      47792.507      36.28997       36.28997       36.28997       1.2026136      315.50252      935.61151      840.12079    
     16500   16500          301.98047      8.6342601      11846.267      11840.238      3249.2285      8591.0091      1446.6244      2699.5365      2441.7598      213.70564     -642.27164      7497.104      -5065.4496     -369.13392      47883.411      36.312964      36.312964      36.312964      1.2003305     -851.0962       2435.8773     -1558.8783    
     16600   16600          301.15674     -309.08442      11680.203      11896.322      3240.3654      8655.9566      1418.608       2768.2879      2465.2458      203.18036     -623.95676      7493.514      -5068.9228     -368.66187      47944.723      36.328456      36.328456      36.328456      1.1987955     -841.69775     -1137.2938      1051.7383    
     16700   16700          299.3302       8.4585977      11883.352      11877.423      3220.7123      8656.7103      1450.2127      2738.423       2441.5877      215.27474     -610.90059      7489.1383     -5067.0256     -367.75326      48063.18       36.35835       36.35835       36.35835       1.1958409      484.24288      141.36781     -600.23489    
     16800   16800          298.27583     -660.79268      11285.118      11748.99       3209.3676      8539.6221      1393.127       2691.0425      2463.4212      205.67507     -632.9292       7485.1947     -5065.9092     -367.20831      48134.508      36.376327      36.376327      36.376327      1.1940689     -709.08805     -2298.6309      1025.3409    
     16900   16900          292.03187      1275.8806      12623.98       11728.213      3142.1843      8586.0286      1417.7139      2740.0225      2408.8816      209.71834     -619.1875       7496.3258     -5067.4461     -367.16361      48140.367      36.377803      36.377803      36.377803      1.1939236      2443.5457      243.08563      1141.0105    
     17000   17000          301.42778     -832.27924      11210.033      11794.926      3243.2817      8551.6445      1375.854       2746.4535      2442.8896      200.99055     -639.43733      7487.7917     -5062.8976     -366.80695      48187.177      36.38959       36.38959       36.38959       1.1927638     -2294.7615      223.20731     -425.28348    
     17100   17100          304.17313     -1002.55        11156.707      11861.427      3272.821       8588.6064      1432.0504      2735.8849      2405.586       195.81953     -605.28505      7491.3522     -5066.8015     -366.71979      48198.63       36.392473      36.392473      36.392473      1.1924803      466.37217     -1517.0262     -1956.9959    
     17200   17200          301.06928      34.775028      11872.79       11848.367      3239.4244      8608.9427      1411.9633      2755.1855      2425.7702      208.49939     -622.75675      7495.9824     -5065.7014     -367.03724      48156.942      36.381977      36.381977      36.381977      1.1935126      634.95887      1139.6437     -1670.2775    
     17300   17300          299.19124      1233.3509      12666.291      11802.53       3219.2172      8583.3126      1426.6886      2766.5788      2379.365       199.3299      -617.92615      7496.9468     -5067.6703     -368.07619      48021.012      36.347714      36.347714      36.347714      1.196891       1834.1822      1884.9736     -19.10305     
     17400   17400          294.58681     -1823.9306      10511.737      11785.63       3169.6748      8615.955       1394.247       2718.6552      2506.2312      210.03975     -638.40134      7489.8503     -5064.6672     -369.07984      47890.427      36.314737      36.314737      36.314737      1.2001546     -2679.6393     -122.1259      -2670.0265    
     17500   17500          300.72769     -213.26936      11638.667      11787.222      3235.749       8551.4727      1399.2919      2790.5125      2412.7576      201.33029     -675.22658      7489.1106     -5066.3037     -370.07343      47761.849      36.282208      36.282208      36.282208      1.2033855      1034.4908      758.65004     -2432.9489    
     17600   17600          301.06017     -1107.8865      11012.506      11782.681      3239.3263      8543.355       1394.3433      2724.7938      2447.4169      213.38246     -657.90588      7489.9975     -5068.673      -370.80917      47667.082      36.258196      36.258196      36.258196      1.205778      -1342.8169     -553.21328     -1427.6295    
     17700   17700          297.67332      584.88718      12172.818      11766.143      3202.8847      8563.2586      1442.4625      2717.4413      2405.7667      217.49101     -643.84251      7491.187      -5067.2475     -370.74058      47675.901      36.260432      36.260432      36.260432      1.2055549      1353.4307      57.448828      343.78198    
     17800   17800          293.85581      1217.001       12534.673      11686.162      3161.8094      8524.3523      1412.7811      2767.7659      2374.9565      195.53971     -653.29508      7492.305      -5065.7008     -369.72448      47806.927      36.293619      36.293619      36.293619      1.2022508      336.10696      864.92033      2449.9756    
     17900   17900          296.67005      1758.7647      12904.167      11676.116      3192.0899      8484.0257      1414.5597      2684.5933      2362.0492      206.60566     -602.14613      7487.0401     -5068.6761     -369.17826      47877.66       36.31151       36.31151       36.31151       1.2004747      3420.9052      2124.5741     -269.18519    
     18000   18000          305.26452     -1570.3061      10668.277      11767.887      3284.5641      8483.3228      1359.4083      2744.5773      2422.1748      198.83775     -668.03457      7493.0368     -5066.6776     -368.12117      48015.144      36.346233      36.346233      36.346233      1.1970373     -1271.2277     -2899.5459     -540.14451    
     18100   18100          302.23662      826.2569       12398.789      11820.282      3251.9846      8568.297       1401.5037      2763.8894      2392.8152      204.48396     -613.76515      7486.2633     -5066.8933     -368.17213      48008.498      36.344556      36.344556      36.344556      1.197203       652.95917      675.04247      1150.7691    
     18200   18200          306.7015      -1443.4127      10809.835      11821.747      3300.0255      8521.7212      1431.0468      2704.6265      2402.5859      200.26296     -637.96695      7486.8428     -5065.6768     -367.69937      48070.224      36.360126      36.360126      36.360126      1.1956657     -1895.3255     -1588.0681     -846.84452    
     18300   18300          296.53116      1568.1699      12881.77       11782.486      3190.5954      8591.8907      1485.6668      2779.8408      2285.4413      196.21504     -584.10289      7495.5017     -5066.672      -367.72922      48066.322      36.359142      36.359142      36.359142      1.1957628      2149.8675      1485.9028      1068.7393    
     18400   18400          298.22149     -236.81295      11519.918      11685.809      3208.7829      8477.0263      1419.5918      2750.7338      2355.438       190.85851     -676.72922      7498.6151     -5061.4817     -367.98296      48033.178      36.350783      36.350783      36.350783      1.1965879      1629.2349      1795.4813     -4135.155     
     18500   18500          289.48548     -489.83344      11288.133      11630.167      3114.7858      8515.3808      1417.1588      2679.6579      2406.9061      212.24376     -625.5279       7491.3793     -5066.4372     -369.16822      47878.962      36.311839      36.311839      36.311839      1.200442      -1019.1081      446.49438     -896.88661    
     18600   18600          295.44015      1183.073       12534.157      11711.191      3178.8564      8532.3344      1443.4634      2749.2889      2359.304       206.65755     -649.37588      7492.0212     -5069.0248     -370.57362      47697.381      36.265876      36.265876      36.265876      1.2050121      1500.5146      1360.5597      688.14455    
     18700   18700          298.67123      693.52845      12241.964      11759.71       3213.622       8546.0875      1385.9461      2765.3505      2370.097       201.15336     -611.14428      7499.7487     -5065.0639     -370.70856      47680.019      36.261476      36.261476      36.261476      1.2054508      1641.1073     -720.5712       1160.0493    
     18800   18800          302.48588     -2356.8148      10160.521      11805.502      3254.6666      8550.8351      1392.3012      2735.5491      2475.1553      206.79264     -685.61327      7492.378      -5065.7278     -369.32572      47858.544      36.306676      36.306676      36.306676      1.2009542     -2999.4802     -1974.5897     -2096.3745    
     18900   18900          304.18495      643.10571      12269.237      11819.479      3272.9481      8546.5308      1412.6206      2799.1983      2341.8499      203.45678     -638.62467      7491.4593     -5063.4294     -368.59374      47953.585      36.330694      36.330694      36.330694      1.198574       1767.7682      293.8871      -132.33815    
     19000   19000          303.18678     -681.98869      11322.757      11799.64       3262.2081      8537.4317      1404.2354      2712.0843      2430.3114      213.99906     -653.41411      7494.5268     -5064.3112     -368.64655      47946.715      36.328959      36.328959      36.328959      1.1987457     -596.17632     -949.46562     -500.32415    
     19100   19100          298.49232     -96.413109      11646.139      11713.478      3211.697       8501.7812      1397.1587      2712.8804      2374.3448      201.76015     -613.01777      7493.0896     -5064.4347     -369.07564      47890.973      36.314875      36.314875      36.314875      1.200141       754.01614     -2172.5223      1129.2669    
     19200   19200          298.76288      505.38908      12027.639      11674.639      3214.6082      8460.0307      1397.5248      2687.7987      2391.1649      202.67044     -643.62758      7491.0659     -5066.5665     -369.05903      47893.128      36.31542       36.31542       36.31542       1.200087       733.10923      263.3803       519.67773    
     19300   19300          301.53475     -224.0454       11576.184      11732.757      3244.4327      8488.3238      1383.6532      2685.7561      2433.4624      196.23692     -626.56813      7483.3156     -5067.5321     -368.86227      47918.675      36.321876      36.321876      36.321876      1.1994472      704.70149     -378.98717     -997.85051    
     19400   19400          307.24485     -1079.7917      11081.374      11836.102      3305.8718      8530.2307      1380.4449      2815.4314      2353.0152      203.8448      -644.41388      7485.5737     -5063.6654     -368.80262      47926.425      36.323834      36.323834      36.323834      1.1992532      10.136165     -598.82451     -2650.6868    
     19500   19500          301.30711      270.85813      12023.173      11833.77       3241.9833      8591.7869      1435.3195      2758.3969      2382.1048      201.63628     -600.05573      7482.3659     -5067.9808     -368.63829      47947.79       36.32923       36.32923       36.32923       1.1987188     -1376.4496      1548.7091      640.31488    
     19600   19600          301.26918      986.826        12480.97       11791.069      3241.5753      8549.4932      1441.0491      2779.2676      2322.9934      221.97667     -655.15572      7502.3236     -5062.9614     -368.72143      47936.978      36.3265        36.3265        36.3265        1.1989892      2791.6697     -472.21028      641.01855    
     19700   19700          294.59775      2656.8798      13587.068      11730.697      3169.7924      8560.9047      1451.4603      2774.1048      2324.625       205.00697     -615.00991      7489.0936     -5068.3761     -368.93684      47908.99       36.319428      36.319428      36.319428      1.1996896      3732.2518      3582.9178      655.46967    
     19800   19800          296.97207     -423.18105      11405.661      11701.407      3195.3395      8506.0673      1421.6765      2753.372       2361.8353      209.45002     -675.70256      7499.5912     -5064.1551     -368.85191      47920.021      36.322216      36.322216      36.322216      1.1994135      1503.3513     -916.55556     -1856.3389    
     19900   19900          296.73293     -339.71888      11504.268      11741.811      3192.7664      8549.0443      1373.0909      2705.8447      2430.1388      208.86092     -599.67002      7494.5944     -5063.8154     -368.65744      47945.299      36.328601      36.328601      36.328601      1.1987811     -503.65722      742.96044     -1258.4599    
     20000   20000          303.74663     -673.69724      11363.642      11835.794      3268.2319      8567.5624      1393.0522      2761.1578      2394.8906      203.24609     -632.40736      7512.4355     -5064.8124     -367.81359      48055.296      36.356362      36.356362      36.356362      1.1960371     -971.75869      273.95192     -1323.285     
     20100   20100          299.88505     -1109.2413      11080.472      11858.336      3226.6824      8631.6532      1361.7027      2745.0496      2478.8843      206.33078     -597.6034       7500.2174     -5062.9281     -367.59338      48084.085      36.363621      36.363621      36.363621      1.195321       77.676469     -1918.8915     -1486.5089    
     20200   20200          299.12862      645.55763      12266.373      11812.669      3218.5434      8594.1253      1485.1865      2748.777       2351.7627      204.34887     -625.61401      7493.8462     -5064.1819     -366.78088      48190.601      36.390452      36.390452      36.390452      1.192679       1791.5207     -853.25721      998.40942    
     20300   20300          295.36282      295.59176      11933.716      11725.829      3178.0244      8547.8043      1474.3223      2802.69        2263.2073      191.63855     -610.9012       7491.7606     -5064.9132     -366.52985      48223.607      36.398758      36.398758      36.398758      1.1918627      659.60478     -1484.9984      1712.1689    
     20400   20400          299.95142      291.21559      11931.061      11726.391      3227.3965      8498.994       1412.4424      2707.7827      2368.3356      200.59554     -622.4572       7498.9757     -5066.6807     -366.77966      48190.761      36.390492      36.390492      36.390492      1.1926751     -322.1275       719.36084      476.41344    
     20500   20500          302.68618     -406.81707      11486.09       11771.404      3256.8218      8514.5826      1386.3581      2774.0577      2367.2823      196.91827     -638.58591      7492.593      -5064.0409     -367.55393      48089.245      36.364921      36.364921      36.364921      1.1951928     -528.32613     -669.16154     -22.963545    
     20600   20600          301.13941      1295.7692      12696.808      11792.124      3240.179       8551.9455      1479.6996      2642.6466      2408.1421      207.64485     -620.23909      7499.5633     -5065.5119     -369.21226      47873.251      36.310395      36.310395      36.310395      1.2005852      558.08914      1630.2323      1698.9862    
     20700   20700          299.76345     -227.26         11651.228      11809.482      3225.3739      8584.1078      1434.0933      2709.9001      2423.5914      212.90963     -615.14827      7486.7036     -5067.9419     -370.18078      47747.999      36.278701      36.278701      36.278701      1.2037346      911.86508     -743.99407     -849.65101    
     20800   20800          299.49109      1750.3245      13017.389      11799.336      3222.4435      8576.8922      1484.844       2742.6198      2370.9411      199.19198     -647.19137      7493.2132     -5066.7264     -370.42233      47716.862      36.270813      36.270813      36.270813      1.2045201      1093.7641      1803.0226      2354.1867    
     20900   20900          293.90993      417.23158      11992.598      11702.16       3162.3917      8539.7685      1426.4225      2762.6584      2395.3524      190.4719      -650.45938      7484.0735     -5068.7508     -370.31267      47730.992      36.274393      36.274393      36.274393      1.2041635      1005.2514      420.86885     -174.42554    
     21000   21000          294.91547     -1253.8124      10791.071      11665.18       3173.211       8491.9689      1367.8902      2728.3293      2435.3628      197.7177      -655.23235      7484.1162     -5066.2149     -369.7532       47803.214      36.292679      36.292679      36.292679      1.2023442     -209.96071     -2420.9489     -1130.5277    
     21100   21100          294.64612      1436.1951      12738.438      11735.261      3170.3129      8564.9478      1427.9488      2778.4675      2370.8925      200.24743     -638.04069      7490.2521     -5064.8198     -369.04599      47894.819      36.315847      36.315847      36.315847      1.2000446      1640.0176      697.23378      1971.3338    
     21200   21200          301.81926      40.017681      11835.348      11807.325      3247.4939      8559.8307      1454.5102      2696.0222      2379.2609      211.45716     -609.50625      7493.312      -5065.2255     -368.10343      48017.458      36.346817      36.346817      36.346817      1.1969796      42.244799     -657.34228      735.15053    
[...]
    495200   495200         298.07336      331.98741      11934.868      11702.188      3207.189       8494.999       1372.4211      2783.721       2352.7099      188.29075     -633.51644      7498.6526     -5067.2799     -367.79687      48057.481      36.356913      36.356913      36.356913      1.1959827     -202.39953      173.82506      1024.5367    
    495300   495300         293.91985      212.36044      11950.625      11801.813      3162.4985      8639.3142      1477.8017      2738.9608      2380.4481      209.65798     -595.96746      7494.4657     -5066.0527     -367.85857      48049.421      36.35488       36.35488       36.35488       1.1961834      1824.3271     -439.19711     -748.04865    
    495400   495400         302.56511      40.554207      11874.05       11845.595      3255.5191      8590.0759      1409.4966      2758.5314      2393.8621      196.37697     -595.9914       7491.2645     -5063.4643     -367.38566      48111.271      36.370472      36.370472      36.370472      1.1946456      191.96342     -1028.31        958.00922    
    495500   495500         301.36215     -416.54247      11540.494      11833.085      3242.5755      8590.5095      1432.2104      2775.9782      2388.9773      199.51431     -635.38328      7493.4647     -5064.2522     -366.98067      48164.366      36.383847      36.383847      36.383847      1.1933287      217.00959     -1826.21        359.57305    
    495600   495600         302.64608      284.69316      11976.282      11776.453      3256.3903      8520.0627      1435.1633      2748.0324      2331.488       189.94531     -614.55365      7494.8551     -5064.8677     -367.2518       48128.808      36.374891      36.374891      36.374891      1.1942103      467.63929      598.95977     -212.51959    
    495700   495700         297.25523     -297.51412      11538.042      11747.153      3198.3862      8548.767       1398.2344      2688.3681      2410.4358      204.19509     -573.44348      7485.806      -5064.829      -366.75401      48194.132      36.391341      36.391341      36.391341      1.1925916     -411.12445     -1807.1321      1325.7142    
    495800   495800         304.65432     -183.72648      11640.211      11769.908      3277.9984      8491.9099      1417.512       2733.9062      2333.0919      193.65756     -610.74549      7486.1204     -5061.6328     -365.16082      48404.402      36.444189      36.444189      36.444189      1.187411      -585.88119      1884.9115     -1850.2097    
    495900   495900         298.28037     -1079.8422      11006.235      11770.313      3209.4165      8560.8969      1390.0142      2716.6172      2441.2266      200.84556     -615.454        7490.2608     -5062.6136     -364.30664      48517.894      36.47265       36.47265       36.47265       1.1846334     -3406.8187      205.4245      -38.132428    
    496000   496000         300.38974      1962.9827      13174.482      11787.582      3232.1127      8555.4691      1417.2857      2737.5534      2368.4846      204.82638     -602.74216      7494.0897     -5064.0285     -364.85157      48445.43       36.454483      36.454483      36.454483      1.1864054      1972.2054      1363.8299      2552.9128    
    496100   496100         305.51888     -549.60656      11439.662      11827.154      3287.3008      8539.8527      1406.3308      2709.1206      2336.7753      215.17122     -554.83573      7488.3402     -5061.0497     -365.62383      48343.105      36.428799      36.428799      36.428799      1.1889166     -49.966263      609.49507     -2208.3485    
    496200   496200         302.79092      526.76849      12218.798      11848.759      3257.9488      8590.8102      1469.5699      2669.5449      2398.4624      220.20152     -595.34835      7491.214      -5062.8342     -366.95919      48167.185      36.384557      36.384557      36.384557      1.1932588      483.33037      783.9249       313.0502     
    496300   496300         299.68985     -94.004985      11734.534      11800.36       3224.5821      8575.7781      1359.626       2758.319       2430.651       212.53187     -611.29605      7485.1867     -5059.2405     -368.12572      48014.551      36.346084      36.346084      36.346084      1.1970521      607.80809      381.67886     -1271.5019    
    496400   496400         294.72589      470.00592      12060.654      11731.958      3171.1713      8560.7863      1399.0934      2684.6416      2404.05        206.8257      -562.93355      7493.7638     -5064.6547     -368.59818      47953.008      36.330548      36.330548      36.330548      1.1985884      776.70936      560.89751      72.410892    
    496500   496500         294.16075     -1036.8381      10997.669      11726          3165.0904      8560.9097      1383.2679      2694.9965      2452.145       206.46271     -612.84654      7499.3834     -5062.4992     -366.96699      48166.161      36.384299      36.384299      36.384299      1.1932842      80.010669     -1490.4136     -1700.1113    
    496600   496600         298.72861      1246.4003      12683.527      11805.932      3214.2394      8591.6924      1451.6218      2709.5008      2391.8787      211.36557     -614.04177      7504.0261     -5062.6588     -366.10709      48279.292      36.412763      36.412763      36.412763      1.190488       2289.068      -122.33062      1572.4636    
    496700   496700         300.98947     -340.96362      11641.442      11881.353      3238.5656      8642.7875      1440.807       2710.8792      2459.0224      217.88729     -622.62444      7497.1178     -5060.3017     -366.35506      48246.614      36.404545      36.404545      36.404545      1.1912944      228.22695     -1102.3062     -148.81158    
    496800   496800         300.53878      1126.4151      12667.689      11876.988      3233.7164      8643.2717      1484.4888      2761.8769      2399.3381      198.80858     -636.6161       7496.8337     -5061.4583     -367.22394      48132.458      36.375811      36.375811      36.375811      1.1941197      1944.1536      17.881586      1417.2103    
    496900   496900         301.69414     -312.23547      11622.941      11841.598      3246.1477      8595.4498      1409.5577      2725.4059      2443.8469      198.93459     -597.90423      7483.7971     -5068.1881     -368.09849      48018.103      36.34698       36.34698       36.34698       1.1969636     -935.47335     -1811.3804      1810.1473    
    497000   497000         298.57605     -523.57864      11438.868      11806.604      3212.5979      8594.006       1441.4751      2724.442       2404.9598      212.20148     -609.97461      7489.6103     -5068.7081     -367.02144      48159.016      36.3825        36.3825        36.3825        1.1934612     -605.05362     -384.99757     -580.68474    
    497100   497100         296.28624     -85.39044       11723.288      11783.49       3187.9601      8595.5298      1457.4232      2780.3404      2360.7875      201.23452     -628.91192      7491.7285     -5067.0725     -365.63454      48341.689      36.428443      36.428443      36.428443      1.1889514      49.014691      1545.0297     -1850.2158    
    497200   497200         298.60692     -174.51331      11653.576      11776.571      3212.9301      8563.641       1389.916       2755.4228      2351.6465      195.54308     -556.45731      7493.9041     -5066.3342     -365.75202      48326.161      36.424542      36.424542      36.424542      1.1893334      1936.1467     -136.25623     -2323.4304    
    497300   497300         306.95791      49.577798      11824.046      11789.159      3302.7844      8486.3749      1404.3208      2751.5933      2331.4129      201.06124     -631.44215      7495.4605     -5066.0318     -366.32825      48250.145      36.405434      36.405434      36.405434      1.1912072      978.68114      1654.431      -2484.3787    
    497400   497400         305.0677       241.75988      12012.978      11843.736      3282.4463      8561.2899      1437.1443      2686.7928      2384.6962      210.38135     -586.31545      7492.1252     -5063.5345     -368.23277      48000.593      36.342561      36.342561      36.342561      1.1974002      1274.3384      1482.7509     -2031.8097    
    497500   497500         304.4754      -1038.5529      11137.226      11864.218      3276.0733      8588.1448      1427.4136      2726.5071      2431.0781      207.31262     -634.14082      7495.9314     -5065.9572     -368.25092      47998.227      36.341964      36.341964      36.341964      1.1974592     -472.07868      382.85793     -3026.438     
    497600   497600         296.62075      1336.5701      12726.151      11792.079      3191.5594      8600.5196      1473.6839      2746.2742      2361.7623      203.1643      -610.01753      7491.7354     -5066.0829     -368.85543      47919.563      36.3221        36.3221        36.3221        1.1994249      2267.1411      2486.347      -743.77766    
    497700   497700         294.0891       463.6348       12040.514      11716.528      3164.3195      8552.2089      1434.7373      2728.1487      2350.5064      196.00645     -583.21008      7490.9638     -5064.9436     -368.88819      47915.308      36.321025      36.321025      36.321025      1.1995314      366.36445      1811.2977     -786.75776    
    497800   497800         296.23379     -267.89531      11545.594      11733.248      3187.3958      8545.8523      1375.183       2731.4338      2427.5437      206.52744     -620.5967       7492.342      -5066.5809     -368.00347      48030.502      36.350108      36.350108      36.350108      1.1966546      382.76742     -217.41619     -969.03716    
    497900   497900         299.88412     -871.71704      11170.577      11784.137      3226.6723      8557.4645      1396.0579      2767.4457      2383.2598      205.08762     -619.06055      7490.7185     -5066.0444     -366.23818      48262.011      36.408418      36.408418      36.408418      1.1909143     -71.41798      -1796.6996     -747.03352    
    498000   498000         297.46624     -1019.8492      11087.462      11807.752      3200.6567      8607.0958      1445.2782      2745.6004      2398.7269      203.72114     -626.10949      7504.683      -5064.8044     -364.98341      48427.931      36.450093      36.450093      36.450093      1.1868341     -593.48768     -1577.2819     -888.778      
    498100   498100         303.03382      1623.0623      12963.09       11817.693      3260.5623      8557.1309      1473.3706      2764.0278      2303.8597      197.58569     -612.06955      7494.4023     -5064.0456     -365.27853      48388.805      36.440274      36.440274      36.440274      1.1877937      1806.4926      2453.9931      608.70135    
    498200   498200         296.97982      301.71031      12015.883      11803.496      3195.4229      8608.0728      1451.5036      2751.3286      2351.7047      210.82834     -584.55985      7492.3371     -5065.0697     -366.18906      48268.485      36.410046      36.410046      36.410046      1.1907546      2314.2715     -1083.7344     -325.40627    
    498300   498300         298.61685      1567.7746      12879.231      11779.888      3213.0369      8566.8514      1452.4452      2753.5537      2334.0683      199.8326      -606.23734      7499.1421     -5065.9532     -367.61674      48081.029      36.36285       36.36285       36.36285       1.195397       2521.2499      872.07109      1310.0029    
    498400   498400         299.4882       50.949427      11752.989      11717.357      3222.4124      8494.9447      1361.2397      2717.4773      2386.1855      206.78398     -613.65269      7501.7219     -5064.811      -368.58788      47954.348      36.330887      36.330887      36.330887      1.1985549     -190.29841      368.16036     -25.013676    
    498500   498500         289.75241     -1037.9826      10905.371      11630.879      3117.6579      8513.221       1393.2096      2707.0119      2416.6689      201.73464     -627.91304      7489.4969     -5066.9879     -368.80181      47926.53       36.32386       36.32386       36.32386       1.1992506     -733.53172      310.59614     -2691.0123    
    498600   498600         299.92371      804.51539      12263.739      11700.921      3227.0983      8473.823       1373.8157      2768.2135      2308.2867      199.88159     -612.92022      7499.7094     -5063.1636     -368.47824      47968.616      36.33449       36.33449       36.33449       1.1981984      1811.5415      1142.4266     -540.42194    
    498700   498700         303.49354     -1014.5884      11067.184      11779.125      3265.5087      8513.616       1410.643       2681.6036      2416.6697      200.33092     -623.10842      7493.3516     -5065.8743     -367.35937      48114.714      36.37134       36.37134       36.37134       1.1945601     -102.45257     -1761.3971     -1179.9156    
    498800   498800         297.80848      721.28901      12315.957      11808.574      3204.339       8604.2351      1432.2555      2775.8202      2315.0701      217.3102      -573.57887      7502.0719     -5064.7139     -366.45331      48233.679      36.401292      36.401292      36.401292      1.1916138      561.72245      1410.4734      191.67116    
    498900   498900         302.54481      330.76654      12059.696      11826.837      3255.3006      8571.5359      1409.8107      2767.6879      2390.4507      198.59639     -628.69143      7495.558      -5061.8763     -366.16101      48272.183      36.410975      36.410975      36.410975      1.1906633      1446.1919     -1325.9005      872.00825    
    499000   499000         303.28514     -308.38307      11621.871      11838.616      3263.2664      8575.3499      1434.249       2760.3223      2372.5933      204.4263      -630.22884      7497.2412     -5063.2533     -366.76291      48192.962      36.391046      36.391046      36.391046      1.1926206     -1066.7779      653.68959     -512.0609     
    499100   499100         299.0954       109.92849      11891.565      11814.6        3218.1859      8596.4144      1403.8663      2776.7497      2394.3647      204.89537     -614.08757      7494.1221     -5063.4961     -368.18182      48007.236      36.344238      36.344238      36.344238      1.1972345      1179.8466     -1036.7319      186.67081    
    499200   499200         297.75786      2085.3818      13198.787      11740.316      3203.7944      8536.5217      1433.7369      2715.7546      2356.3571      197.21171     -591.52818      7491.5656     -5066.5761     -368.58094      47955.25       36.331115      36.331115      36.331115      1.1985323      1742.3288      1591.0088      2922.8079    
    499300   499300         298.18451     -1236.5         10838.679      11706.18       3208.385       8497.7947      1359.8275      2736.6952      2423.898       191.83324     -636.63795      7485.2963     -5063.1175     -367.42539      48106.069      36.369162      36.369162      36.369162      1.1947748     -1226.1382     -841.54189     -1641.8199    
    499400   499400         305.43024      100.24984      11841.895      11771.345      3286.3471      8484.9981      1424.4946      2735.7188      2304.0347      197.83316     -593.37234      7482.2808     -5065.9917     -366.29704      48254.256      36.406468      36.406468      36.406468      1.1911057     -9.3847038      551.66304     -241.52882    
    499500   499500         306.37021      35.141928      11889.9        11865.148      3296.461       8568.6867      1435.2715      2824.6185      2293.5357      190.23436     -611.63242      7500.306      -5063.6469     -365.97606      48296.578      36.417108      36.417108      36.417108      1.1900619     -796.61076     -584.68498      1486.7215    
    499600   499600         301.14022     -251.49552      11686.686      11863.677      3240.1877      8623.4897      1456.7346      2704.2638      2398.8634      203.74015     -565.20036      7488.5981     -5063.5101     -366.28809      48255.435      36.406764      36.406764      36.406764      1.1910766     -148.94527      102.15174     -707.69303    
    499700   499700         302.58753      1603.7142      12958.288      11829.961      3255.7603      8574.2002      1397.1226      2765.3549      2360.2247      210.06349     -587.86945      7492.9463     -5063.6424     -366.38413      48242.786      36.403583      36.403583      36.403583      1.1913889      1996.484       1320.7427      1493.916     
    499800   499800         302.1562      -958.41064      11130.631      11803.834      3251.1194      8552.7146      1417.7502      2742.1605      2406.2111      210.98193     -656.27987      7496.4144     -5064.5237     -366.98699      48163.536      36.383638      36.383638      36.383638      1.1933492      210.29217     -1338.2814     -1747.2427    
    499900   499900         296.55472     -560.0034       11391.4        11783.703      3190.8489      8592.8539      1409.4056      2777.4284      2391.9596      201.79796     -627.36108      7504.4643     -5064.8409     -367.97124      48034.708      36.351169      36.351169      36.351169      1.1965498      910.3469      -1379.8219     -1210.5351    
    500000   500000         299.28115      635.23622      12216.142      11772.138      3220.1846      8551.9536      1446.2564      2732.1872      2346.891       197.02275     -603.14911      7494.7443     -5061.9989     -368.802        47926.506      36.323854      36.323854      36.323854      1.1992512      2081.2223     -1337.107       1161.5934    
Loop time of 1615.93 on 1 procs for 500000 steps with 4096 atoms

Performance: 26.734 ns/day, 0.898 hours/ns, 309.419 timesteps/s, 1.267 Matom-step/s
100.0% CPU use with 1 MPI tasks x 1 OpenMP threads

MPI task timing breakdown:
Section |  min time  |  avg time  |  max time  |%varavg| %total
---------------------------------------------------------------
Pair    | 548.55     | 548.55     | 548.55     |   0.0 | 33.95
Bond    | 276.15     | 276.15     | 276.15     |   0.0 | 17.09
Kspace  | 413.96     | 413.96     | 413.96     |   0.0 | 25.62
Neigh   | 70.667     | 70.667     | 70.667     |   0.0 |  4.37
Comm    | 10.828     | 10.828     | 10.828     |   0.0 |  0.67
Output  | 4.8733     | 4.8733     | 4.8733     |   0.0 |  0.30
Modify  | 238.45     | 238.45     | 238.45     |   0.0 | 14.76
Other   |            | 52.44      |            |       |  3.25

Nlocal:           4096 ave        4096 max        4096 min
Histogram: 1 0 0 0 0 0 0 0 0 0
Nghost:          13719 ave       13719 max       13719 min
Histogram: 1 0 0 0 0 0 0 0 0 0
Neighs:              0 ave           0 max           0 min
Histogram: 1 0 0 0 0 0 0 0 0 0
FullNghs:  2.22597e+06 ave 2.22597e+06 max 2.22597e+06 min
Histogram: 1 0 0 0 0 0 0 0 0 0

Total # of neighbors = 2225972
Ave neighs/atom = 543.4502
Ave special neighs/atom = 5.6289062
Neighbor list builds = 11636
Dangerous builds = 0

# --- Cleanup ---
unfix npt_fix
unfix shake_fix
undump dump_npt

# --- Write Output ---
write_dump all custom /home/arz2/PolyJarvis/data/PEEK1/lammps/mechanical/bm_series/bm_P0/bm_P0_last.dump id type mol x y z xu yu zu vx vy vz modify sort id
write_data /home/arz2/PolyJarvis/data/PEEK1/lammps/mechanical/bm_series/bm_P0/bm_P0_out.data
System init for write_data ...
PPPM Kokkos initialization ...
  using 12-bit tables for long-range coulomb
  G vector (1/distance) = 0.31294333
  grid = 30 30 30
  stencil order = 5
  estimated absolute RMS force accuracy = 0.00027819311
  estimated relative force accuracy = 8.3777029e-07
  using double precision cuFFT
  3d grid and FFT values/proc = 50653 27000
Generated 21 of 21 mixed pair_coeff terms from sixthpower/sixthpower mixing rule

print "STAGE COMPLETE: NPT T=300.0->300.0K P=0.0->0.0atm steps=500000"
STAGE COMPLETE: NPT T=300.0->300.0K P=0.0->0.0atm steps=500000
quit
