LAMMPS data file via write_data, version 22 Jul 2025, timestep = 0, units = real

2020 atoms
6 atom types
2010 bonds
7 bond types
3800 angles
12 angle types
4770 dihedrals
14 dihedral types
2400 impropers
11 improper types

0 30.1464841 xlo xhi
0 30.1464841 ylo yhi
0 30.1464841 zlo zhi

Masses

1 12.01115
2 12.01115
3 1.00797
4 1.00797
5 32.064
6 32.064

Pair Coeffs # lj/class2/coul/long/gpu

1 0.054 4.01
2 0.054 4.01
3 0.02 2.995
4 0.02 2.995
5 0.071 4.027
6 0.071 4.027

Bond Coeffs # class2

1 1.53 299.67 -501.77 679.81
2 1.101 345 -691.89 844.6
3 1.823 225.277 -327.706 488.972
4 1.101 345 -691.89 844.6
5 1.823 225.277 -327.706 488.972
6 1.823 225.277 -327.706 488.972
7 1.3261 275.112 -531.318 562.963

Angle Coeffs # class2

1 112.67 39.516 -7.443 -9.5583
2 110.77 41.453 -10.604 5.129
3 112.564 47.0276 -10.679 -10.1687
4 112.564 47.0276 -10.679 -10.1687
5 97.5 57.6938 -5.0559 -11.8206
6 110.77 41.453 -10.604 5.129
7 112.564 47.0276 -10.679 -10.1687
8 96.8479 56.7336 14.2713 0
9 107.66 39.641 -12.921 -2.4318
10 107.852 51.4949 -13.527 7.026
11 107.852 51.4949 -13.527 7.026
12 107.852 51.4949 -13.527 7.026

BondBond Coeffs

1 0 1.53 1.53
2 3.3872 1.53 1.101
3 10.9186 1.53 1.823
4 10.9186 1.53 1.823
5 -22.3144 1.823 1.823
6 3.3872 1.53 1.101
7 10.9186 1.53 1.823
8 -0.57 1.823 1.3261
9 5.3316 1.101 1.101
10 7.0463 1.101 1.823
11 7.0463 1.101 1.823
12 7.0463 1.101 1.823

BondAngle Coeffs

1 8.016 8.016 1.53 1.53
2 20.754 11.421 1.53 1.101
3 -3.5621 22.3865 1.53 1.823
4 -3.5621 22.3865 1.53 1.823
5 -13.0015 -13.0015 1.823 1.823
6 20.754 11.421 1.53 1.101
7 -3.5621 22.3865 1.53 1.823
8 10.7325 5.1221 1.823 1.3261
9 18.103 18.103 1.101 1.101
10 9.3225 44.9874 1.101 1.823
11 9.3225 44.9874 1.101 1.823
12 9.3225 44.9874 1.101 1.823

Dihedral Coeffs # class2

1 0 0 0.0316 0 -0.1681 0
2 -0.7017 0 0.0201 0 0.104 0
3 -0.4871 0 -0.4514 0 -0.1428 0
4 -0.5073 0 0.0155 0 -0.0671 0
5 -0.3338 0 -0.0684 0 -0.1706 0
6 -0.5073 0 0.0155 0 -0.0671 0
7 -0.3338 0 -0.0684 0 -0.1706 0
8 -0.1432 0 0.0617 0 -0.1083 0
9 -0.2078 0 -0.106 0 -0.3595 0
10 -0.2078 0 -0.106 0 -0.3595 0
11 -0.2078 0 -0.106 0 -0.3595 0
12 -0.5374 0 -0.5091 0 -0.1361 0
13 -1.2002 0 -1.2999 0 -0.1626 0
14 -1.2002 0 -1.2999 0 -0.1626 0

AngleAngleTorsion Coeffs

1 -16.164 112.67 110.77
2 -26.71 112.67 112.564
3 -28.1728 112.564 96.8479
4 -32.8949 112.564 97.5
5 -26.49 97.5 107.852
6 -32.8949 112.564 97.5
7 -26.49 97.5 107.852
8 -12.564 110.77 110.77
9 -13.1026 110.77 112.564
10 -13.1026 110.77 112.564
11 -13.1026 110.77 112.564
12 -18.6334 107.852 96.8479
13 -13.9674 112.564 112.564
14 -13.9674 112.564 112.564

EndBondTorsion Coeffs

1 0.2486 0.2422 -0.0925 0.0814 0.0591 0.2219 1.53 1.101
2 -0.1586 -0.7244 -0.2608 -0.7991 -0.959 0.5855 1.53 1.823
3 0.1026 0.0936 -0.0404 -0.3008 0.0606 0.4501 1.53 1.3261
4 -0.2542 -0.7984 -0.6525 -0.3047 -0.0109 -0.3763 1.53 1.823
5 0.2592 -0.0166 0.1306 -0.41 0.0668 0.4187 1.823 1.101
6 -0.2542 -0.7984 -0.6525 -0.3047 -0.0109 -0.3763 1.53 1.823
7 0.2592 -0.0166 0.1306 -0.41 0.0668 0.4187 1.823 1.101
8 0.213 0.312 0.0777 0.213 0.312 0.0777 1.101 1.101
9 -0.1526 -0.371 0.1048 1.0661 0.3298 0.425 1.101 1.823
10 -0.1526 -0.371 0.1048 1.0661 0.3298 0.425 1.101 1.823
11 -0.1526 -0.371 0.1048 1.0661 0.3298 0.425 1.101 1.823
12 0.4376 0.2001 -1.0696 0.2902 0.0695 0.1726 1.101 1.3261
13 -0.3252 0.5008 0.5191 -0.3252 0.5008 0.5191 1.823 1.823
14 -0.3252 0.5008 0.5191 -0.3252 0.5008 0.5191 1.823 1.823

MiddleBondTorsion Coeffs

1 -14.879 -3.6581 -0.3138 1.53
2 -4.2593 -5.6468 -3.3835 1.53
3 0.502 -1.0204 -0.9177 1.823
4 -2.5172 -2.0107 -2.8547 1.823
5 -0.6955 -2.9427 -1.2372 1.823
6 -2.5172 -2.0107 -2.8547 1.823
7 -0.6955 -2.9427 -1.2372 1.823
8 -14.261 -0.5322 -0.4864 1.53
9 -5.7537 -2.0104 0.2813 1.53
10 -5.7537 -2.0104 0.2813 1.53
11 -5.7537 -2.0104 0.2813 1.53
12 -0.3729 0.5373 -0.7035 1.823
13 1.7001 -3.3479 -0.8067 1.53
14 1.7001 -3.3479 -0.8067 1.53

BondBond13 Coeffs

1 0 1.53 1.101
2 0 1.53 1.823
3 0 1.53 1.3261
4 0 1.53 1.823
5 0 1.823 1.101
6 0 1.53 1.823
7 0 1.823 1.101
8 0 1.101 1.101
9 0 1.101 1.823
10 0 1.101 1.823
11 0 1.101 1.823
12 0 1.101 1.3261
13 0 1.823 1.823
14 0 1.823 1.823

AngleTorsion Coeffs

1 -0.2454 0 -0.1136 0.3113 0.4516 -0.1988 112.67 110.77
2 -2.0927 -0.1498 -1.7848 1.1179 0.3638 0.9423 112.67 112.564
3 -0.6045 3.8941 0.8885 1.0193 -0.6016 0.2097 112.564 96.8479
4 5.1289 2.0927 -2.4004 -4.5489 0.0886 0.6237 112.564 97.5
5 -1.0888 -0.2 -0.0909 0.5962 3.3479 0.2265 97.5 107.852
6 5.1289 2.0927 -2.4004 -4.5489 0.0886 0.6237 112.564 97.5
7 -1.0888 -0.2 -0.0909 0.5962 3.3479 0.2265 97.5 107.852
8 -0.8085 0.5569 -0.2466 -0.8085 0.5569 -0.2466 110.77 110.77
9 -2.0382 0.2102 -0.9023 0.3322 -0.0519 -0.3553 110.77 112.564
10 -2.0382 0.2102 -0.9023 0.3322 -0.0519 -0.3553 110.77 112.564
11 -2.0382 0.2102 -0.9023 0.3322 -0.0519 -0.3553 110.77 112.564
12 -2.2533 2.6948 -0.1723 1.434 -0.1915 -0.2611 107.852 96.8479
13 -5.0565 -0.6355 0.6015 -5.0565 -0.6355 0.6015 112.564 112.564
14 -5.0565 -0.6355 0.6015 -5.0565 -0.6355 0.6015 112.564 112.564

Improper Coeffs # class2

1 0 0
2 0 0
3 0 0
4 0 0
5 0 0
6 0 0
7 0 0
8 0 0
9 0 0
10 0 0
11 0 0

AngleAngle Coeffs

1 0.2738 -0.4825 0.2738 110.77 110.77 107.66
2 2.7985 -3.0031 -0.0668 110.77 112.564 107.852
3 -0.3157 -0.3157 -0.3157 107.66 107.66 107.66
4 0.5086 0.5086 -0.064 107.66 107.852 107.852
5 -1.3199 -1.3199 0.1184 112.67 110.77 110.77
6 -0.2564 -0.2564 -0.8766 112.67 112.564 112.564
7 -0.2564 -0.2564 -0.8766 112.67 112.564 112.564
8 2.7985 -3.0031 -0.0668 110.77 112.564 107.852
9 2.7985 -3.0031 -0.0668 110.77 112.564 107.852
10 -0.0668 -3.0031 2.7985 112.564 110.77 107.852
11 -0.0668 -3.0031 2.7985 112.564 110.77 107.852

Atoms # full

27 1 3 0.053 3.817556767110629 3.2367204964317127 4.127345470189506 0 1 0
28 1 3 0.053 2.106130911913314 3.133296220340942 3.6744261182963944 0 1 0
1244 7 3 0.053 4.807405654037901 5.352510876315076 1.8299833107132253 0 0 1
1778 9 3 0.053 1.3687461409253032 5.36779593835687 4.139637368658176 0 1 -1
25 1 3 0.053 2.7918644947482427 1.2226563288147816 5.209483323199226 0 1 0
1786 9 6 -0.13 1.249243730645882 4.866974774741495 1.3368309023535643 0 1 -1
1240 7 3 0.053 4.3581940692274985 3.9073055229275466 0.16010181131141257 0 0 1
31 1 1 -0.041 0.2990264876115151 0.8282271675871732 3.943775148734519 0 1 0
23 1 3 0.053 5.207046138427917 1.320764290217424 4.500178982250365 0 1 0
22 1 3 0.053 4.762149854903993 0.6345799667764104 2.929707345599816 0 1 0
33 1 3 0.053 0.2644320616537037 0.6952642756576083 5.036512949801431 0 1 0
21 1 1 -0.041 4.4956486470023265 0.641133439453659 3.9986011394858485 0 1 0
32 1 3 0.053 0.27581340361734075 1.9109797497560566 3.7379447183701213 0 1 0
26 1 1 -0.159 3.077253518153514 2.626937785308831 3.582309141064428 0 1 0
29 1 3 0.053 3.3592579895572943 2.625259497881884 2.516942663655171 0 1 0
24 1 2 0.012 3.065939454710933 1.1935492096150493 4.143230318436834 0 1 0
1794 9 3 0.053 1.7824951052447202 1.9962315146708112 0.6587312817225517 0 1 -1
1795 9 3 0.053 0.6429984442099705 0.7126299032686365 0.1914820302986125 0 1 -1
30 1 6 -0.13 1.8408379663314771 0.15418364927490832 3.2734358133685566 0 1 0
1144 6 2 0.012 12.500796957232218 14.994719634346769 11.491901570292764 0 0 -1
1972 10 2 0.012 9.519939442362991 3.808306495927548 0.422620447441251 0 1 1
1962 10 2 0.012 7.435455521366684 1.0251507677589569 0.7457381510505624 0 1 1
1963 10 3 0.053 8.251779090779715 1.106451564574388 0.007206491445561265 0 1 1
2002 10 2 0.012 10.192989593157575 1.4979492207066458 5.316173470603598 0 1 1
2003 10 3 0.053 9.94365822392409 1.2233209737997979 4.277055017676415 0 1 1
2008 10 6 -0.13 11.140330493221892 3.0669064193791593 5.132621625535123 0 1 1
1971 10 3 0.053 8.884844686430949 4.0365018327030295 2.4881371815280406 0 1 1
1968 10 6 -0.13 7.188804453467002 2.683814466437339 1.4903469696672282 0 1 1
1970 10 3 0.053 9.512635734469622 2.4244377885579356 2.109686351123132 0 1 1
1969 10 1 -0.041 8.914876065957149 3.257405181851031 1.7095800347781667 0 1 1
1975 10 3 0.053 9.026617694387866 5.903197767855542 0.8026370434668908 0 1 1
1978 10 6 -0.13 11.36350826795747 3.9559138878110414 0.5945053482074918 0 1 1
1255 7 3 0.053 8.076296603318427 5.755305085843556 5.095605615759348 0 0 1
1960 10 3 0.053 8.647244215690842 0.47427597245762176 2.4646509023063 0 1 1
2005 10 3 0.053 8.28723785890182 2.5519112234810044 5.539120920667509 0 1 1
1974 10 1 -0.159 8.881665875199534 5.140957906838947 0.02132450859348105 0 1 1
1983 10 3 0.053 11.099433988447672 0.925707497474885 0.2730367078473567 0 1 1
1994 10 1 -0.159 14.04236977759197 1.0419089785731566 4.404371717387914 0 1 1
1996 10 3 0.053 13.516580183172266 1.8839803210876036 4.87534982980838 0 1 1
1988 10 6 -0.13 13.361280753852608 0.9900602395209801 1.106785799031796 0 1 1
1989 10 1 -0.041 12.291980893016934 0.7019913602103409 2.5468569829176393 0 1 1
1990 10 3 0.053 11.811383868639089 1.6440763118200272 2.8486237348534296 0 1 1
1997 10 3 0.053 14.756911433779363 1.457082531846384 3.6742193043323312 0 1 1
1995 10 3 0.053 14.622727987790864 0.5223026801662579 5.1829408411792075 0 1 1
1243 7 1 -0.041 4.830957705103152 6.424952591633564 1.575132716513984 0 0 1
1245 7 3 0.053 3.7829233963003555 6.763727863897233 1.4939374469820401 0 0 1
1246 7 2 0.012 5.495211273022857 7.210061053375301 2.7151536590102463 0 0 1
1247 7 3 0.053 4.894296510376023 7.014883170504862 3.621768404986428 0 0 1
1248 7 1 -0.159 5.485127631544204 8.718251602218741 2.4353201245861764 0 0 1
1249 7 3 0.053 4.45806694286377 9.057216176189582 2.229777124221585 0 0 1
1250 7 3 0.053 5.862468097066354 9.302421057010795 3.287210722255554 0 0 1
1884 10 1 -0.159 1.6498140370366472 9.79326261898004 1.7727371116836617 0 0 1
1885 10 3 0.053 2.1388858928431405 9.23248838007462 2.584281352033507 0 0 1
1887 10 3 0.053 0.8540538097523227 9.157060327634609 1.352765881821985 0 0 1
1780 9 2 0.012 0.1392699060814966 5.849807124883042 2.4152322971978966 0 1 -1
1886 10 3 0.053 2.3902784436733153 9.962498609581703 0.9764775532455746 0 0 1
1777 9 1 -0.041 1.012693916572467 6.257754202877736 3.6002048995112954 0 1 -1
1776 9 6 -0.13 0.2511697648991508 7.430110019348264 4.79889968770102 0 1 -1
1779 9 3 0.053 1.9045610455617963 6.791980170402949 3.233237067507067 0 1 -1
1880 10 3 0.053 0.48929281587933754 10.321826718686284 4.250546804572521 0 0 1
1882 10 2 0.012 1.0671956921740362 11.11298223371166 2.308755632171164 0 0 1
1254 7 3 0.053 6.316904992870354 5.836697206446996 5.244202116966066 0 0 1
1251 7 3 0.053 6.103730326061571 8.960683504208719 1.557861714178934 0 0 1
1252 7 6 -0.13 7.200441439581417 6.582075870750091 3.088503139928529 0 0 1
1253 7 1 -0.041 7.202671744317867 6.407318356296536 4.91881022711869 0 0 1
1259 7 3 0.053 8.0753195491458 9.052988687751423 4.14769362774892 0 0 1
1632 9 1 -0.159 9.330788012818894 9.393118378860505 0.16693908407627622 0 0 0
1258 7 1 -0.159 8.43131389346426 8.652984760350042 5.109480775446423 0 0 1
1261 7 3 0.053 9.373854196445626 8.114433523195727 4.917218428224164 0 0 1
1635 9 3 0.053 8.582423197278018 9.504660029412006 0.9685403564022487 0 0 0
1634 9 3 0.053 10.321183448862374 9.316505639098802 0.642600567852853 0 0 0
1256 7 2 0.012 7.403834219266057 7.697384519892238 5.73729482446681 0 0 1
1260 7 3 0.053 8.66387248517257 9.50415988339762 5.765790290953551 0 0 1
1892 10 2 0.012 2.1393437062667324 14.674587569174701 1.6166443092334202 0 0 1
1898 10 6 -0.13 1.093288619422999 14.157260992038635 0.20757980253489652 0 0 1
474 3 6 -0.13 5.146482766035398 13.654954981822014 4.546930081221103 0 0 0
1891 10 3 0.053 2.3562516356755316 14.32471239694368 3.7267491897122054 0 0 1
1889 10 1 -0.041 1.8408308717995245 13.84034903830044 2.8806902357255684 0 0 1
1888 10 6 -0.13 2.462981541767399 12.115162204290158 2.947949862824043 0 0 1
1890 10 3 0.053 0.7663468202085791 13.860497110265399 3.1154058059244236 0 0 1
1883 10 3 0.053 0.6029981898948922 11.65679000404297 1.4682317076095734 0 0 1
1817 9 3 0.053 3.8073893442398687 11.781341800062265 0.37610056237784006 0 0 0
1893 10 3 0.053 3.200327628001045 14.542278000598992 1.3394006344327163 0 0 1
481 3 3 0.053 6.900320564779035 11.706848042564413 3.6446010356071294 0 0 0
483 3 3 0.053 8.044422345859159 11.675314706123473 2.285646549660104 0 0 0
479 3 3 0.053 6.234257591825499 13.380580788739612 1.8961985505178578 0 0 0
475 3 1 -0.041 6.539154703503736 14.482091421119671 3.735628232580629 0 0 0
478 3 2 0.012 7.059967157061721 13.611345044917321 2.592854518967867 0 0 0
480 3 1 -0.159 7.662426407653808 12.29731492286295 3.109874159448994 0 0 0
482 3 3 0.053 8.49469549572487 12.490276954845916 3.8046580142735493 0 0 0
484 3 6 -0.13 8.32776702855677 14.541597043686242 1.6430977917441745 0 0 0
476 3 3 0.053 7.346879039182162 14.662440637802474 4.464593983376427 0 0 0
1143 6 3 0.053 14.172049286753955 14.577820265225064 12.826105621171049 0 0 -1
1761 9 3 0.053 0.7601267253433232 2.82558117981718 9.438934953545798 0 1 -1
1762 9 1 -0.159 1.6685970144774016 2.489790520006381 7.529043432278245 0 1 -1
1769 9 3 0.053 1.3285394424920762 5.127417980703546 6.273122847980807 0 1 -1
1748 9 3 0.053 5.153034043368772 3.703712216724923 10.454208653289548 0 1 -1
1750 9 2 0.012 5.198287940473192 4.412523043822858 8.401400679858638 0 1 -1
1752 9 1 -0.159 5.170739133709991 3.0339782925733774 7.7320986006302 0 1 -1
1754 9 3 0.053 4.576491261725147 2.314156129878303 8.314036069914726 0 1 -1
1756 9 6 -0.13 3.5464642220500515 5.235790982934609 8.366174204756717 0 1 -1
1757 9 1 -0.041 2.421013687363186 4.143348282996251 9.359142797044292 0 1 -1
1758 9 3 0.053 2.037299250092625 4.764220732534701 10.184707155014056 0 1 -1
1759 9 3 0.053 3.0505707046088726 3.3672685081742584 9.822176789739256 0 1 -1
1760 9 2 0.012 1.253073741782857 3.4344609621620523 8.6576233080193 0 1 -1
1764 9 3 0.053 2.158381422223071 3.029974286564092 6.705858010265469 0 1 -1
1755 9 3 0.053 4.75566628980165 3.0875943275019826 6.713470405394316 0 1 -1
1767 9 1 -0.041 0.644169117138186 5.695336911634271 6.920100594232753 0 1 -1
1765 9 3 0.053 0.7971705021713207 1.9537189818164142 7.121006290595967 0 1 -1
1763 9 3 0.053 2.372523608686044 1.733986886408908 7.91222203424295 0 1 -1
15 1 3 0.053 5.340412014832419 0.17586575402930515 6.551074819466828 0 1 0
1728 9 3 0.053 11.19465769196744 0.5897995403290391 9.28260298208218 0 1 -1
2004 10 1 -0.159 8.870027637056292 1.7678292627934598 6.048992097184057 0 1 1
1729 9 3 0.053 11.289395647494507 0.9632937404135788 11.005934212560648 0 1 -1
1747 9 1 -0.041 5.746152029640321 4.387373900267631 9.82566125230726 0 1 -1
1749 9 3 0.053 5.684891631053127 5.394506646961743 10.270892799066482 0 1 -1
1751 9 3 0.053 5.8171828981331775 5.097215332008594 7.794085579225988 0 1 -1
1731 9 3 0.053 9.250151247532541 1.8050312072442465 9.72334422717931 0 1 -1
1746 9 6 -0.13 7.476851083034184 3.8472904322427826 9.836114389876203 0 1 -1
1753 9 3 0.053 6.19440634203356 2.632490607790653 7.652753872215533 0 1 -1
2006 10 3 0.053 8.253538478362854 0.8541870437385118 6.065170993529873 0 1 1
2007 10 3 0.053 9.034520798055375 2.0840766392628463 7.089452842940887 0 1 1
2012 10 2 0.012 10.605546533243835 4.8182531125637675 7.38129018587946 0 1 1
2013 10 3 0.053 9.539993558451753 4.62727611379391 7.1747752963340465 0 1 1
2016 10 3 0.053 10.198967019084282 5.765446518068112 9.324586394463195 0 1 1
1730 9 2 0.012 9.253407674547281 0.8037841781850845 10.189356970452055 0 1 -1
2009 10 1 -0.041 11.439396515500718 3.629879141202544 6.869344286146474 0 1 1
2011 10 3 0.053 11.267514018716927 2.7632379702360192 7.527641922027227 0 1 1
2014 10 1 -0.159 10.807952717739578 4.953570834517977 8.899208585363226 0 1 1
2017 10 3 0.053 10.51207580541257 4.018386335998504 9.401616668076935 0 1 1
1734 9 3 0.053 7.37670201907189 0.30568606670631976 9.190523315223585 0 1 -1
1999 10 1 -0.041 11.028210635815055 0.3785748468572847 5.981468852474118 0 1 1
1727 9 1 -0.041 10.729236902791765 0.3751715930212581 10.260698286770825 0 1 -1
2001 10 3 0.053 11.704735572254375 0.763964917849781 6.758947621500096 0 1 1
2010 10 3 0.053 12.512688837870728 3.8715096911859246 6.935014984576491 0 1 1
2015 10 3 0.053 11.864103474809122 5.152258161650508 9.140568210297706 0 1 1
1265 7 3 0.053 5.1238459800693406 10.472206614651064 7.071666307150267 0 0 1
1768 9 3 0.053 1.2381327144985124 6.462550604069172 7.442647845900012 0 1 -1
1270 7 3 0.053 4.649821258346814 9.033635179506833 9.16246119653012 0 0 1
1517 8 3 0.053 3.152417396746085 8.108422450414357 10.826200453323716 1 0 0
1518 8 2 0.012 1.2453018556984987 9.008040822496593 11.218155697428749 1 0 0
1519 8 3 0.053 0.9842129564736452 8.819241890118322 10.160640282703012 1 0 0
1520 8 1 -0.159 1.7419791972701246 10.45791828317668 11.312967160238458 1 0 0
1521 8 3 0.053 0.9848345239056681 11.166428826167317 10.943088256593562 1 0 0
1522 8 3 0.053 2.6505239648456915 10.584943746786255 10.70163381461427 1 0 0
1262 7 6 -0.13 5.787079815300949 8.508011512804496 5.999167318686741 0 0 1
2018 10 5 -0.2042 11.111962379497891 6.335375181743095 6.492778365137341 0 1 1
2020 10 4 0.1392 10.31244489355224 7.19303986202852 7.111801939590007 0 1 1
1257 7 3 0.053 7.776022036643463 7.372598450445087 6.725883058490722 0 0 1
1263 7 1 -0.041 6.115578291267671 9.98600983965293 7.0352190316306915 0 0 1
1264 7 3 0.053 6.781326270623802 10.686399229346147 6.503976289399688 0 0 1
1268 7 1 -0.159 5.7101949932092015 8.740859381097481 9.236178325816612 0 0 1
1269 7 3 0.053 5.81437356086342 7.732943353716699 8.805499708597639 0 0 1
1271 7 3 0.053 5.9689277941859835 8.686340789370279 10.304416294145032 0 0 1
1266 7 2 0.012 6.580798073249449 9.757583043891103 8.487013709080914 0 0 1
1267 7 3 0.053 6.477304631673807 10.741613021410416 8.9830019245398 0 0 1
1272 7 6 -0.13 8.355041637446467 9.31524074948702 8.592049157191903 0 0 1
1273 7 1 -0.041 8.707653403950756 9.776571833588237 10.316351635625857 0 0 1
1274 7 3 0.053 8.237797290878166 10.755373730647294 10.512840916840695 0 0 1
1275 7 3 0.053 8.256788459747264 9.043230787889607 11.002551030312434 0 0 1
1276 7 2 0.012 10.213661602082464 9.879727832190378 10.549773713788325 0 0 1
1277 7 3 0.053 10.60857053306777 10.652055602245687 9.865900892228249 0 0 1
1278 7 1 -0.159 10.960807106118942 8.561761753177853 10.296911038355042 0 0 1
1279 7 3 0.053 10.820041698186607 8.247479251953669 9.250465974529794 0 0 1
1280 7 3 0.053 10.588026118401613 7.752494600877164 10.942476950944226 0 0 1
1281 7 3 0.053 12.04424837356425 8.670864307462844 10.462728850442474 0 0 1
463 3 3 0.053 0.6848622558491853 14.383777425184997 6.39946151520781 0 0 0
464 3 6 -0.13 3.080772933158073 14.941035487123859 8.181160713111082 0 0 0
465 3 1 -0.041 3.624322412296354 14.035442365622972 6.703392253213553 0 0 0
467 3 3 0.053 3.8930990977286446 13.004166359079754 6.988472785646602 0 0 0
466 3 3 0.053 2.780290162253507 13.970263403483804 5.9989079520497075 0 0 0
455 3 1 -0.041 1.0141818466392356 14.501360441742975 9.88445387259316 0 0 0
457 3 3 0.053 1.812750664085497 14.249806680131464 10.602013958450339 0 0 0
458 3 2 0.012 1.4519706870690905 14.160151774862994 8.460161585639753 0 0 0
459 3 3 0.053 1.5851379933958747 13.066516821746074 8.377640264683592 0 0 0
468 3 2 0.012 4.801679650594954 14.707806766401376 5.99583229176943 0 0 0
469 3 3 0.053 5.679464967520581 14.698121752661315 6.66561355530812 0 0 0
460 3 1 -0.159 0.4178633472633328 14.647022244347085 7.4336176563018475 0 0 0
1149 6 3 0.053 12.111922378905629 13.83030966387617 9.666999250901597 0 0 -1
1147 6 3 0.053 11.941061236940957 12.910057470528704 11.178251955573442 0 0 -1
1148 6 3 0.053 13.566067204717386 13.323857367905065 10.567236265036353 0 0 -1
1146 6 1 -0.159 12.533195200538929 13.691242535930426 10.675213431505272 0 0 -1
1549 8 3 0.053 0.5325139472389715 0.9590848067019109 11.617918232880948 1 0 0
1992 10 2 0.012 13.075613294094012 0.08448239942392168 3.700980661536663 0 1 1
1545 8 1 -0.041 0.37352401278316166 1.903584016419967 13.573249763861277 1 0 0
1512 8 3 0.053 4.71246111009523 4.853520073520213 13.207286748694129 1 0 0
1554 8 6 -0.13 2.7572340101342006 1.6143893813895425 12.055580948512272 1 0 0
1511 8 3 0.053 3.135753282204668 5.3199797588965945 12.53746738234837 1 0 0
1546 8 3 0.053 1.0001629664751206 2.0723005246569226 14.463535762897136 1 0 0
1548 8 2 0.012 1.0964137811459502 0.9932210366659332 12.56635714706856 1 0 0
1558 8 2 0.012 5.057162678541649 0.8757190785620624 13.576254219805607 1 0 0
1555 8 1 -0.041 3.7398328247879897 1.6462178191035448 13.620304950913798 1 0 0
1557 8 3 0.053 3.1096321674368275 1.2383518519735432 14.424238347831723 1 0 0
1556 8 3 0.053 3.9257733146065488 2.70327459252148 13.864174019324016 1 0 0
1510 8 1 -0.159 3.887059874318096 5.5776779929677724 13.298877889324155 1 0 0
1513 8 3 0.053 3.425013017376013 5.444726457700763 14.289565621451883 1 0 0
1503 8 3 0.053 6.3962550482954175 4.592520189079417 14.9943236566054 1 0 0
1559 8 3 0.053 5.709641973068368 1.319385274473836 12.805313277908523 1 0 0
1736 9 6 -0.13 8.484909556981895 1.0393741523250406 11.851573985843114 0 1 -1
1737 9 1 -0.041 8.820101162320169 2.8244039318851444 12.123532354157032 0 1 -1
1738 9 3 0.053 9.809631560538607 3.060078824571483 11.698837566102348 0 1 -1
1739 9 3 0.053 8.910217044718584 2.926627212879221 13.219635783419434 0 1 -1
1740 9 2 0.012 7.754981391065742 3.8361310287187673 11.650176279232237 0 1 -1
1741 9 3 0.053 6.792879261018304 3.5701905999686456 12.122845054525943 0 1 -1
1742 9 1 -0.159 8.18081025126605 5.231888413464487 12.128795488586638 0 1 -1
1744 9 3 0.053 9.15611174322513 5.50977583834005 11.698746621790056 0 1 -1
1743 9 3 0.053 8.277375646989395 5.2367043832712685 13.226755595825239 0 1 -1
1203 6 3 0.053 14.952139536198708 1.6027999584534753 13.039867874290442 0 1 -1
1202 6 3 0.053 13.470220056322416 0.8419927748313 12.407604683930614 0 1 -1
1212 6 4 0.1392 11.830625912909378 3.9394723516501675 14.07739523223339 0 1 -1
1201 6 1 -0.041 14.038138250068483 1.0580196022555552 13.328039896681238 0 1 -1
1204 6 2 0.012 13.174690500388579 1.926895433885533 14.243710156675359 0 1 -1
1205 6 3 0.053 12.30117210125919 1.3358798315156164 14.56390777126176 0 1 -1
1210 6 5 -0.2042 12.573035649903638 3.2957196126240356 13.185030835583536 0 1 -1
1514 8 6 -0.13 3.0810744639473215 8.241529549882094 13.223503075656847 1 0 0
1515 8 1 -0.041 2.3502749043389777 8.003717776386779 11.577106088110186 1 0 0
1516 8 3 0.053 1.9620723664533506 6.975133115017954 11.49196108131014 1 0 0
1523 8 3 0.053 1.9847336887820586 10.732071022305014 12.351015084554211 1 0 0
431 3 3 0.053 4.192269658227429 10.940656735452654 14.347656415881374 0 0 0
1505 8 1 -0.041 5.558435065094471 7.309945368861328 14.12103984679313 1 0 0
1508 8 2 0.012 4.427073222791473 7.001944047925643 13.129234715055137 1 0 0
1509 8 3 0.053 4.874769778951372 7.0939853722141555 12.121979961621665 1 0 0
1292 7 6 -0.13 10.223033918812721 6.859828907461281 14.57344759845317 0 0 1
1288 7 1 -0.159 8.831079602812347 9.278867349392076 14.788797833096714 0 0 1
1745 9 3 0.053 7.455789746386945 6.012346904570144 11.852086337642385 0 1 -1
1507 8 3 0.053 6.38388234979728 6.601852859108753 13.951507418952104 1 0 0
1290 7 3 0.053 8.44141350054951 10.169118997692653 14.26810861570976 0 0 1
1283 7 1 -0.041 10.948492425983675 9.221655560413533 13.373267033659529 0 0 1
1287 7 3 0.053 9.115161547879383 8.146787290483962 12.960264961066303 0 0 1
433 3 3 0.053 5.9595802018514465 11.013057948641421 14.439496247651771 0 0 0
1282 7 6 -0.13 10.576309697458802 10.608299459862096 12.228193221618696 0 0 1
1286 7 2 0.012 9.709368035140564 8.463299548901558 13.833853753862122 0 0 1
1506 8 3 0.053 5.962305860097624 8.314748177909358 13.919464495585316 1 0 0
1787 9 1 -0.041 0.1448034681510345 4.184417517787927 0.02902627585299795 0 1 -1
1284 7 3 0.053 11.446823008478356 9.70933521781571 14.226802209924028 0 0 1
1285 7 3 0.053 11.690481408062231 8.55308149021091 12.907320691102349 0 0 1
447 3 3 0.053 0.8247441838401908 14.765813444918814 12.735918636709497 0 0 0
436 3 3 0.053 2.450050441164556 13.2408543635305 13.787085901193532 0 0 0
435 3 1 -0.041 2.199573165557421 12.888057084763526 14.801901833358743 0 0 0
437 3 3 0.053 2.155312816013416 11.786859439611414 14.769501314159726 0 0 0
429 3 3 0.053 5.005646204938719 13.311839547991067 14.05490115994952 0 0 0
420 3 1 -0.159 8.839072971826095 13.882323712165803 12.681963245313801 0 0 0
421 3 3 0.053 9.8582596449968 13.651172570069251 13.029744895444727 0 0 0
423 3 3 0.053 8.427047220645127 12.97940077037351 12.204980143468818 0 0 0
418 3 2 0.012 7.9585615301296535 14.352186011824239 13.846076643057607 0 0 0
422 3 3 0.053 8.910156499013697 14.666812231618309 11.911002756465855 0 0 0
419 3 3 0.053 6.940848275857134 14.551936382863264 13.468474505883398 0 0 0
1141 6 1 -0.041 13.078671030717029 14.710768699998136 12.897841478945349 0 0 -1
1142 6 3 0.053 12.657678313018483 13.75081759070742 13.248771482495037 0 0 -1
430 3 1 -0.159 5.031507344512835 11.33180511622133 14.941772505034287 0 0 0
1965 10 3 0.053 5.307820885263953 0.5093199665657175 0.7232541370949755 0 1 1
1959 10 1 -0.041 7.831260185845634 0.056329360813457185 1.8567283135187655 0 1 1
1991 10 3 0.053 11.49805989632544 0.001965016340975012 2.234070524876096 0 1 1
428 3 2 0.012 5.000984786236059 12.86196141780043 15.063151014746301 0 0 0
1964 10 1 -0.159 6.154429209736441 0.5865462417112245 0.024065921065805185 0 1 1
1792 9 1 -0.159 0.9297227501096528 1.758886005340516 0.001681869142473147 0 1 -1
548 3 2 0.012 1.575100699317859 3.6536711137929716 17.743082718524775 0 0 -1
549 3 3 0.053 1.9551077979530904 3.873086093822167 18.756062920767537 0 0 -1
554 3 6 -0.13 2.670710653805711 2.3978151460840547 16.988043621470787 0 0 -1
555 3 1 -0.041 2.6315869327554653 1.0308653646340558 18.242533204801003 0 0 -1
556 3 3 0.053 2.0184105796597005 1.3947434797141876 19.083038080571416 0 0 -1
557 3 3 0.053 3.6564396936536823 0.9261092858990718 18.63325752521765 0 0 -1
545 3 1 -0.041 1.6851501894840957 4.928456803041682 16.905039457957123 0 0 -1
546 3 3 0.053 1.3255051876033044 4.742575948984324 15.87950849443141 0 0 -1
547 3 3 0.053 2.7406830254998154 5.2401109029866015 16.83934542153263 0 0 -1
1494 8 6 -0.13 4.769408078735405 5.489256475778907 18.784740445789406 1 0 0
1502 8 3 0.053 5.241504294584047 4.25817896864631 16.30688838799423 1 0 0
1488 8 2 0.012 4.858918080891211 5.763162682733409 20.591595460019583 1 0 0
562 3 3 0.053 0.7273991475141613 0.40398356984802475 16.24794293972395 0 0 -1
550 3 1 -0.159 0.1294955007474364 3.150022594573198 17.824136818838852 0 0 -1
858 5 6 -0.13 10.427106856074793 1.2278171756884335 18.568410419759 0 1 0
859 5 1 -0.041 10.121963422496133 2.156966752870325 20.101068614000823 0 1 0
860 5 3 0.053 11.05432453549062 2.6739526106315554 20.383764461812333 0 1 0
862 5 2 0.012 8.96771821651455 3.148203998004477 19.973059275267588 0 1 0
863 5 3 0.053 9.146846366240052 3.82326592408319 19.12091399466506 0 1 0
864 5 1 -0.159 7.624197448650631 2.441199572590285 19.752083767978 0 1 0
866 5 3 0.053 6.79510271120546 3.1611948528921094 19.670814747286496 0 1 0
867 5 3 0.053 7.65288448482682 1.8625992167610368 18.814854517118622 0 1 0
1298 7 1 -0.159 10.838229240054911 4.968554036524728 17.046495385652396 0 0 1
1501 8 3 0.053 6.986166271664978 4.00609721741684 16.562013523077272 1 0 0
1299 7 3 0.053 11.36261918521565 4.126288034388926 17.524038289843148 0 0 1
1300 7 3 0.053 10.049125590193192 5.316221849400865 17.72952585143326 0 0 1
1497 8 3 0.053 7.176721440619202 5.581181861533437 18.55868095788558 1 0 0
1301 7 3 0.053 10.350614223297734 4.5835921613471236 16.136248455276462 0 0 1
1500 8 1 -0.159 6.241064645276367 4.661889391665726 16.080623566982563 1 0 0
1566 8 3 0.053 8.087508183217462 0.6469343810479719 15.696044604788701 1 0 0
865 5 3 0.053 7.394660635203957 1.7482238259242535 20.57639192782438 0 1 0
870 5 3 0.053 10.98964804552862 5.068171742503425 20.59300475226409 0 1 0
1564 8 6 -0.13 5.7984311253769585 1.1708073302543078 15.226010924227959 1 0 0
1565 8 1 -0.041 7.248952928718907 0.03708097309796887 15.321743768128243 1 0 0
1206 6 1 -0.159 13.931010988229007 2.4397408449051183 15.473190362784022 0 1 -1
848 5 6 -0.13 13.953019790999951 1.540926807755354 19.162617004122925 0 1 0
1209 6 3 0.053 13.280670123092348 3.046107347646291 16.12188822140988 0 1 -1
1303 7 1 -0.041 14.025706660122452 5.447912287086289 18.228369246260215 0 0 1
1304 7 3 0.053 13.622996140737559 4.488520862258814 18.59687006048029 0 0 1
1297 7 3 0.053 12.54079665158504 5.786745235485016 15.969028067989651 0 0 1
1305 7 3 0.053 14.364423852165395 5.278331511578434 17.192005539210886 0 0 1
1208 6 3 0.053 14.302045652033359 1.5924577692744655 16.07213588954659 0 1 -1
1207 6 3 0.053 14.794949620684653 3.0566060397473858 15.181485042894895 0 1 -1
853 5 3 0.053 11.536223128185563 0.08343355969295159 20.36876890659713 0 1 0
1482 8 3 0.053 0.14471063888572816 4.136199676802716 20.443341113137034 1 0 0
553 3 3 0.053 0.01617531035118738 2.3210319841055904 18.53614361770964 0 0 -1
432 3 3 0.053 5.002825169873258 10.853304726320868 15.932707779645428 0 0 0
530 3 1 -0.159 4.546395478182099 10.550820177448527 18.9853592775125 0 0 -1
531 3 3 0.053 4.737027674335244 10.147815306380323 19.99143240624523 0 0 -1
533 3 3 0.053 4.877120266693815 9.801419875319215 18.250831840047027 0 0 -1
534 3 6 -0.13 1.9747610282600823 9.478586958710366 18.99440580002387 0 0 -1
535 3 1 -0.041 2.5501992958167228 8.504007899172917 17.545489886660167 0 0 -1
536 3 3 0.053 3.0227661426767867 9.220069106709305 16.850756631023522 0 0 -1
537 3 3 0.053 3.3458183949413676 7.8255741962932905 17.890240607406444 0 0 -1
538 3 2 0.012 1.509947937632822 7.718970409245173 16.729509268358683 0 0 -1
539 3 3 0.053 2.067992611826886 7.253835978364483 15.896247457235589 0 0 -1
544 3 6 -0.13 0.7422765879589692 6.302396751169784 17.646177433435128 0 0 -1
1493 8 3 0.053 4.4835576964579715 7.918196195244961 20.55295484609715 1 0 0
528 3 2 0.012 3.067558345864007 10.93365050920639 18.81803011142589 0 0 -1
529 3 3 0.053 2.91171513461659 11.321073653526819 17.794371336098607 0 0 -1
532 3 3 0.053 5.1785494914408785 11.444882168182902 18.85517558485944 0 0 -1