units real
atom_style full
boundary p p p

# --- Force Field Styles ---
pair_style lj/cut 14.0
dielectric 1.000000
bond_style harmonic
angle_style harmonic
dihedral_style multi/harmonic
improper_style none
special_bonds lj 0 0 0
pair_modify mix arithmetic tail yes
neighbor 2.0 bin
neigh_modify delay 0 every 1 check yes
neigh_modify one 4000
package gpu 1 neigh yes

read_data /home/alexzhao/PolyJarvis/data/PE4/lammps/equil/npt_cool/npt_cool_out.data
Reading data file ...
  orthogonal box = (2.4122786 2.4122786 2.4122786) to (53.366093 53.366093 53.366093)
  1 by 1 by 1 MPI processor grid
  reading atoms ...
  4840 atoms
  reading velocities ...
  4840 velocities
  scanning bonds ...
  2 = max bonds/atom
  scanning angles ...
  1 = max angles/atom
  scanning dihedrals ...
  2 = max dihedrals/atom
  orthogonal box = (2.4122786 2.4122786 2.4122786) to (53.366093 53.366093 53.366093)
  1 by 1 by 1 MPI processor grid
  reading bonds ...
  4820 bonds
  reading angles ...
  4800 angles
  reading dihedrals ...
  4780 dihedrals
Finding 1-2 1-3 1-4 neighbors ...
  special bond factors lj:    0        0        0       
  special bond factors coul:  0        0        0       
     2 = max # of 1-2 neighbors
     2 = max # of 1-3 neighbors
     4 = max # of 1-4 neighbors
     6 = max # of special neighbors
  special bonds CPU = 0.002 seconds
  read_data CPU = 0.075 seconds
include /home/alexzhao/PolyJarvis/data/PE4/lammps/equil/emc_build.params
# LAMMPS parameters created by EMC v9.4.4, build Jul 31 2025 20:33:44

# Variables

variable	seed		index	942725
variable	ntotal		index	4840
variable	fshape		index	1
variable	output		index	emc_build
variable	field		index	trappe/2014/trappe-ua
variable	location1	index	~/emc/field/
variable	nav		index	0.6022141179
variable	temperature	index	300
variable	radius		index	5
variable	nrelax		index	100
variable	weight_nonbond	index	0.0001
variable	weight_bond	index	0.0001
variable	weight_focus	index	1
variable	cutoff		index	14
variable	charge_cutoff	index	14
variable	kappa		index	4
variable	density1	index	0.65
variable	lprevious	index	0
variable	lphase		index	55.7783720511
variable	f_poly		index	20
variable	chem_repeat	index	*CC*
variable	chem_cap	index	*C
variable	lg_repeat	index	2
variable	lg_cap		index	1
variable	norm_poly	index	100
variable	l_poly		index	242
variable	mg_repeat	index	28.0536
variable	mg_cap		index	15.0347
variable	m_poly		index	3396.5014
variable	n_poly		index	20
variable	mtotal		index	67930.028
variable	nphase1		index	4840
variable	mphase1		index	67930.028
variable	vphase1		index	173539.165354
variable	lbox		index	55.7783720511
variable	lphase1		index	55.7783720511
variable	lxx		index	55.7783720511
variable	lyy		index	55.7783720511
variable	lzz		index	55.7783720511
variable	lzy		index	0
variable	lzx		index	0
variable	lyx		index	0
variable	vtotal		index	173539.165354
variable	nl_poly		index	20

# Types

variable	type_c4h2	index	1
variable	type_c4h3	index	2

variable	type_bond_c4h2_c4h2 index	1
variable	type_bond_c4h2_c4h3 index	2

variable	type_angle_c4h2_c4h2_c4h2 index	1
variable	type_angle_c4h2_c4h2_c4h3 index	2

# Clusters

variable	n0_poly		index	1
variable	n1_poly		index	20
variable	nl_poly		index	20

# Flags

variable	flag_charged	index	0

# Masses

mass		1    14.02680  # c4h2
mass		2    15.03470  # c4h3

# Potentials

pair_modify	mix arithmetic tail yes
special_bonds	lj 0 0 0 coul 0 0 0.5
Finding 1-2 1-3 1-4 neighbors ...
  special bond factors lj:    0        0        0       
  special bond factors coul:  0        0        0.5     
     2 = max # of 1-2 neighbors
     2 = max # of 1-3 neighbors
     4 = max # of 1-4 neighbors
     6 = max # of special neighbors
  special bonds CPU = 0.002 seconds

# Pair Coeffs

pair_coeff	1 1    0.09141    3.95000  # c4h2,c4h2
pair_coeff	2 2    0.19475    3.75000  # c4h3,c4h3

# Bond Coeffs

bond_coeff	1  260.00013    1.54000  # c4h2,c4h2
bond_coeff	2  260.00013    1.54000  # c4h2,c4h3

# Angle Coeffs

angle_coeff	1   62.10020  114.00000  # c4h2,c4h2,c4h2
angle_coeff	2   62.10020  114.00000  # c4h2,c4h2,c4h3

# Dihedral Coeffs

dihedral_coeff	1    2.00702   -4.01203    0.27102    6.29006    0.00000  # c4h2,c4h2,c4h2,c4h2
dihedral_coeff	2    2.00702   -4.01203    0.27102    6.29006    0.00000  # c4h2,c4h2,c4h2,c4h3


# --- Thermo Output ---
thermo_style custom step time temp press enthalpy etotal ke pe ebond eangle edihed eimp evdwl ecoul elong etail vol lx ly lz density pxx pyy pzz
thermo_modify flush yes
thermo 1000

# --- Trajectory ---
dump dump_nvt all custom 1000 nvt_production.dump id type mol x y z ix iy iz vx vy vz

# --- Restart Checkpointing ---
# No restart checkpointing

# --- Initial Velocities (optional) ---
# Velocities read from data file

# --- SHAKE Constraints ---
# Constrains H-X bonds to allow 2fs timestep
# SHAKE disabled (TraPPE-UA united-atom)

# --- NVT Thermostat (Nose-Hoover) ---
# T_damp = 100.0 fs  (coupling timescale for heat exchange)
# Ramp: 300.0 K -> 300.0 K over 1000000 steps
timestep 2.0
fix nvt_fix all nvt temp 300.0 300.0 100.0

run 1000000

CITE-CITE-CITE-CITE-CITE-CITE-CITE-CITE-CITE-CITE-CITE-CITE-CITE

Your simulation uses code contributions which should be cited:

- GPU package (short-range, long-range and three-body potentials): doi:10.1016/j.cpc.2010.12.021, doi:10.1016/j.cpc.2011.10.012, doi:10.1016/j.cpc.2013.08.002, doi:10.1016/j.commatsci.2014.10.068, doi:10.1016/j.cpc.2016.10.020, doi:10.3233/APC200086

@Article{Brown11,
 author = {W. M. Brown and P. Wang and S. J. Plimpton and A. N. Tharrington},
 title = {Implementing Molecular Dynamics on Hybrid High Performance Computers---Short Range Forces},
 journal = {Comput.\ Phys.\ Commun.},
 year =    2011,
 volume =  182,
 pages =   {898--911},
 doi =     {10.1016/j.cpc.2010.12.021}
}

@Article{Brown12,
 author = {W. M. Brown and A. Kohlmeyer and S. J. Plimpton and A. N. Tharrington},
 title = {Implementing Molecular Dynamics on Hybrid High Performance Computers - Particle-Particle Particle-Mesh},
 journal = {Comput.\ Phys.\ Commun.},
 year =    2012,
 volume =  183,
 doi =     {10.1016/j.cpc.2011.10.012},
 pages =   {449--459}
}

@Article{Brown13,
 author = {W. M. Brown and Y. Masako},
 title = {Implementing Molecular Dynamics on Hybrid High Performance Computers---Three-Body Potentials},
 journal = {Comput.\ Phys.\ Commun.},
 year =    2013,
 volume =  184,
 pages =   {2785--2793},
 doi =     {10.1016/j.cpc.2013.08.002},
}

@Article{Trung15,
 author = {T. D. Nguyen and S. J. Plimpton},
 title = {Accelerating Dissipative Particle Dynamics Simulations for Soft Matter Systems},
 journal = {Comput.\ Mater.\ Sci.},
 year =    2015,
 doi =     {10.1016/j.commatsci.2014.10.068},
 volume =  100,
 pages =   {173--180}
}

@Article{Trung17,
 author = {T. D. Nguyen},
 title = {{GPU}-Accelerated {T}ersoff Potentials for Massively Parallel
    Molecular Dynamics Simulations},
 journal = {Comput.\ Phys.\ Commun.},
 year =    2017,
 doi =     {10.1016/j.cpc.2016.10.020},
 volume =  212,
 pages =   {113--122}
}

@inproceedings{Nikolskiy19,
 author = {V. Nikolskiy and V. Stegailov},
 title = {{GPU} Acceleration of Four-Site Water Models in {LAMMPS}},
 booktitle = {Proceedings of the International Conference on Parallel
    Computing (ParCo 2019), Prague, Czech Republic},
 doi =     {10.3233/APC200086},
 year =    2019
}

CITE-CITE-CITE-CITE-CITE-CITE-CITE-CITE-CITE-CITE-CITE-CITE-CITE

Generated 1 of 1 mixed pair_coeff terms from arithmetic mixing rule
Per MPI rank memory allocation (min/avg/max) = 15.01 | 15.01 | 15.01 Mbytes
   Step          Time           Temp          Press         Enthalpy        TotEng         KinEng         PotEng         E_bond        E_angle        E_dihed        E_impro         E_vdwl         E_coul         E_long         E_tail         Volume           Lx             Ly             Lz          Density          Pxx            Pyy            Pzz      
         0   0              297.68135      258.37481      4795.9501      4297.4604      4293.7974      3.6630326      1481.215       1416.3594      2757.5758      0             -5651.4871      0              0             -188.45243      132290.94      50.953815      50.953815      50.953815      0.85266952     653.20304      29.655777      92.265607    
      1000   2000           296.98344     -255.43813      3781.2899      4274.1138      4283.7307     -9.6169515      1440.4625      1433.4993      2763.4958      0             -5647.0746      0              0             -188.45243      132290.94      50.953815      50.953815      50.953815      0.85266952    -341.8641      -335.08505     -89.365236    
      2000   4000           300.09432      113.23488      4666.0856      4447.6184      4328.6024      119.01598      1523.4842      1516.5793      2731.0686      0             -5652.1162      0              0             -188.45243      132290.94      50.953815      50.953815      50.953815      0.85266952     956.97545      302.68664     -919.95744    
      3000   6000           300.83783     -510.00301      3366.2228      4350.1857      4339.327       10.858753      1475.982       1437.1937      2733.9252      0             -5636.2421      0              0             -188.45243      132290.94      50.953815      50.953815      50.953815      0.85266952     126.73771     -755.94399     -900.80276    
      4000   8000           297.91454     -62.581314      4189.9733      4310.7132      4297.161       13.552186      1490.0144      1422.4419      2758.7419      0             -5657.6461      0              0             -188.45243      132290.94      50.953815      50.953815      50.953815      0.85266952     275.66025     -91.668259     -371.73593    
      5000   10000          299.48474      305.72744      4849.8146      4259.9662      4319.8098     -59.843612      1443.7422      1444.0334      2710.8973      0             -5658.5165      0              0             -188.45243      132290.94      50.953815      50.953815      50.953815      0.85266952     46.214208      699.88717      171.08094    
      6000   12000          303.01558     -43.740533      4312.3771      4396.7669      4370.7392      26.027792      1491.8071      1475.1375      2704.8549      0             -5645.7717      0              0             -188.45243      132290.94      50.953815      50.953815      50.953815      0.85266952     137.55388     -380.42484      111.64936    
      7000   14000          304.97023     -238.67756      3966.0243      4426.5116      4398.9332      27.578335      1487.4039      1503.2022      2692.6343      0             -5655.6619      0              0             -188.45243      132290.94      50.953815      50.953815      50.953815      0.85266952    -78.337452     -754.18493      116.48969    
      8000   16000          298.92493      294.09882      4922.342       4354.929       4311.7349      43.194058      1466.6774      1480.3838      2735.3398      0             -5639.2069      0              0             -188.45243      132290.94      50.953815      50.953815      50.953815      0.85266952    -63.819156      699.67853      246.4371     
      9000   18000          304.85687      690.64323      5814.5203      4482.0432      4397.2982      84.744982      1489.6417      1481.5091      2738.9358      0             -5625.3417      0              0             -188.45243      132290.94      50.953815      50.953815      50.953815      0.85266952     633.97057      689.55867      748.40045    
     10000   20000          297.00952     -271.43241      3703.7085      4227.3905      4284.1068     -56.716257      1463.4962      1426.6419      2735.1258      0             -5681.9801      0              0             -188.45243      132290.94      50.953815      50.953815      50.953815      0.85266952     402.61423     -67.534147     -1149.3773    
     11000   22000          297.01946     -346.30015      3625.4816      4293.6081      4284.2502      9.3578199      1482.4953      1430.5974      2756.645       0             -5660.3798      0              0             -188.45243      132290.94      50.953815      50.953815      50.953815      0.85266952    -412.9062      -161.38114     -464.6131     
     12000   24000          310.18855      554.83777      5624.0269      4553.5631      4474.203       79.360105      1508.5835      1474.9106      2720.3797      0             -5624.5136      0              0             -188.45243      132290.94      50.953815      50.953815      50.953815      0.85266952     817.44991      369.85964      477.20375    
     13000   26000          298.14544      381.64953      5017.7898      4281.4628      4300.4915     -19.028747      1501.3525      1469.2021      2675.9977      0             -5665.5811      0              0             -188.45243      132290.94      50.953815      50.953815      50.953815      0.85266952     273.09378      486.39305      385.46177    
     14000   28000          297.74893      170.22288      4627.8875      4299.4718      4294.7722      4.6995484      1515.2178      1473.9177      2667.3898      0             -5651.8258      0              0             -188.45243      132290.94      50.953815      50.953815      50.953815      0.85266952    -34.793777     -242.65085      788.11327    
     15000   30000          303.52996      352.53622      5024.8315      4344.6736      4378.1586     -33.484962      1486.0628      1456.4685      2656.1531      0             -5632.1693      0              0             -188.45243      132290.94      50.953815      50.953815      50.953815      0.85266952     247.13996      553.08716      257.38155    
     16000   32000          300.85593     -118.71391      4115.5186      4344.5566      4339.5881      4.96856        1477.5306      1453.1654      2746.4608      0             -5672.1882      0              0             -188.45243      132290.94      50.953815      50.953815      50.953815      0.85266952    -174.5262       91.166996     -272.78254    
     17000   34000          298.97539     -633.92969      3098.3277      4321.3858      4312.4629      8.9229699      1509.7193      1409.2943      2723.9974      0             -5634.088       0              0             -188.45243      132290.94      50.953815      50.953815      50.953815      0.85266952    -771.89239     -469.94924     -659.94746    
     18000   36000          304.89288     -33.239794      4370.3093      4434.4398      4397.8175      36.622263      1490.6762      1433.9369      2741.3647      0             -5629.3556      0              0             -188.45243      132290.94      50.953815      50.953815      50.953815      0.85266952    -364.47921     -158.04806      422.8079     
     19000   38000          301.98689      257.81472      4845.89        4348.4809      4355.9011     -7.4202443      1476.3212      1501.6855      2677.5909      0             -5663.0179      0              0             -188.45243      132290.94      50.953815      50.953815      50.953815      0.85266952     583.2088       353.63983     -163.40447    
     20000   40000          299.33803     -222.24227      3827.9556      4256.7338      4317.6936     -60.959867      1505.0309      1427.1917      2676.0676      0             -5669.2501      0              0             -188.45243      132290.94      50.953815      50.953815      50.953815      0.85266952    -728.59249     -15.761936      77.62762     
     21000   42000          296.84618     -22.117031      4209.958       4252.629       4281.7508     -29.121794      1518.0781      1421.9078      2660.6676      0             -5629.7752      0              0             -188.45243      132290.94      50.953815      50.953815      50.953815      0.85266952     400.59827     -332.80631     -134.14306    
     22000   44000          302.15897     -285.83713      3854.1054      4405.5789      4358.3832      47.195633      1555.0098      1465.7152      2673.2592      0             -5646.7885      0              0             -188.45243      132290.94      50.953815      50.953815      50.953815      0.85266952    -1008.9614     -66.88277       218.33274    
     23000   46000          301.22597      174.19219      4746.3605      4410.2867      4344.9256      65.361086      1515.9925      1522.9504      2685.2814      0             -5658.8631      0              0             -188.45243      132290.94      50.953815      50.953815      50.953815      0.85266952     142.30671     -371.82271      752.09256    
     24000   48000          302.66247     -35.090289      4290.6329      4358.3336      4365.6457     -7.3121275      1516.6467      1480.9159      2637.0021      0             -5641.8769      0              0             -188.45243      132290.94      50.953815      50.953815      50.953815      0.85266952    -200.17933     -165.78327      260.69173    
     25000   50000          304.25065     -134.22565      4115.3126      4374.2779      4388.5539     -14.276003      1460.2535      1441.8537      2724.4327      0             -5640.8159      0              0             -188.45243      132290.94      50.953815      50.953815      50.953815      0.85266952    -538.5003      -254.7942       390.61755    
     26000   52000          306.90764      161.26102      4686.639       4375.5137      4426.8787     -51.364995      1489.4502      1435.0314      2686.5419      0             -5662.3885      0              0             -188.45243      132290.94      50.953815      50.953815      50.953815      0.85266952    -21.06737       378.1491       126.70133    
     27000   54000          299.52502      500.65842      5280.6195      4314.6853      4320.3908     -5.7054961      1477.753       1473.5315      2693.6525      0             -5650.6425      0              0             -188.45243      132290.94      50.953815      50.953815      50.953815      0.85266952     244.38162      248.52541      1009.0682    
     28000   56000          295.99953     -656.08648      2976.1008      4241.9067      4269.5386     -27.63191       1471.4756      1425.095       2753.6167      0             -5677.8192      0              0             -188.45243      132290.94      50.953815      50.953815      50.953815      0.85266952    -1193.6196     -368.55258     -406.0872     
     29000   58000          304.55076     -17.994376      4304.6196      4339.3367      4392.8828     -53.546089      1438.4162      1460.2919      2687.0673      0             -5639.3215      0              0             -188.45243      132290.94      50.953815      50.953815      50.953815      0.85266952     97.941144      326.22394     -478.14821    
     30000   60000          297.94492     -344.777        3554.2829      4219.4707      4297.5992     -78.128477      1448.5226      1434.2456      2694.1984      0             -5655.0951      0              0             -188.45243      132290.94      50.953815      50.953815      50.953815      0.85266952     218.66972     -523.12209     -729.87863    
     31000   62000          296.29723     -144.85789      3997.4934      4276.9717      4273.8327      3.1390406      1497.2329      1461.1811      2660.709       0             -5615.984       0              0             -188.45243      132290.94      50.953815      50.953815      50.953815      0.85266952    -99.609085      806.20516     -1141.1697    
     32000   64000          295.90156     -351.2559       3528.3638      4206.0515      4268.1255     -62.073998      1476.2511      1445.8932      2659.7706      0             -5643.9889      0              0             -188.45243      132290.94      50.953815      50.953815      50.953815      0.85266952    -193.21058     -452.06667     -408.49044    
     33000   66000          298.21221     -186.40733      3903.6277      4263.2685      4301.4546     -38.186061      1483.8472      1448.4157      2670.8475      0             -5641.2965      0              0             -188.45243      132290.94      50.953815      50.953815      50.953815      0.85266952     194.47402     -196.04249     -557.65351    
     34000   68000          303.8642      -560.28519      3299.0681      4380.0418      4382.9797     -2.9378419      1484.4243      1512.8862      2661.9653      0             -5662.2137      0              0             -188.45243      132290.94      50.953815      50.953815      50.953815      0.85266952     146.43945     -1001.7306     -825.5644     
     35000   70000          294.00803     -575.23262      3003.58        4113.3922      4240.813      -127.42076      1414.6394      1455.2393      2675.5229      0             -5672.8224      0              0             -188.45243      132290.94      50.953815      50.953815      50.953815      0.85266952    -205.45352     -888.47935     -631.76499    
     36000   72000          295.78016     -605.59217      3035.7691      4204.1549      4266.3744     -62.219536      1429.5914      1456.3124      2700.9115      0             -5649.0348      0              0             -188.45243      132290.94      50.953815      50.953815      50.953815      0.85266952    -717.37264     -716.62509     -382.77877    
     37000   74000          298.87555     -7.1270369      4253.9172      4267.6676      4311.0227     -43.355179      1446.6295      1486.2971      2674.9753      0             -5651.257       0              0             -188.45243      132290.94      50.953815      50.953815      50.953815      0.85266952     295.41651     -161.94157     -154.85605    
     38000   76000          293.04351     -601.32265      2932.2356      4092.3841      4226.9006     -134.51657      1448.7491      1431.2197      2656.034       0             -5670.5193      0              0             -188.45243      132290.94      50.953815      50.953815      50.953815      0.85266952    -128.23251     -166.10934     -1509.6261    
     39000   78000          301.5091      -282.24411      3768.1535      4312.6948      4349.0095     -36.314628      1503.5994      1440.8724      2679.24        0             -5660.0265      0              0             -188.45243      132290.94      50.953815      50.953815      50.953815      0.85266952    -165.57083     -693.34889      12.187392    
     40000   80000          298.00641      361.78276      4941.0041      4243.0066      4298.4861     -55.479554      1454.0093      1478.0504      2649.9077      0             -5637.4469      0              0             -188.45243      132290.94      50.953815      50.953815      50.953815      0.85266952     422.8714       1.2488574      661.22802    
     41000   82000          299.05716     -171.85268      4038.4561      4370.0162      4313.6423      56.373945      1476.8704      1547.4727      2696.925       0             -5664.8942      0              0             -188.45243      132290.94      50.953815      50.953815      50.953815      0.85266952     22.586225     -510.82506     -27.319212    
     42000   84000          300.74527     -156.96784      3950.2568      4253.0992      4337.9918     -84.892544      1458.5928      1433.5818      2665.4009      0             -5642.468       0              0             -188.45243      132290.94      50.953815      50.953815      50.953815      0.85266952     488.83129     -285.80347     -673.93134    
     43000   86000          304.57743     -567.81218      3163.9769      4259.4727      4393.2674     -133.7947       1424.4896      1438.5132      2659.9539      0             -5656.7513      0              0             -188.45243      132290.94      50.953815      50.953815      50.953815      0.85266952     28.568475     -839.15248     -892.85254    
     44000   88000          297.01869     -120.19476      4069.7957      4301.6908      4284.239       17.451713      1515.5721      1436.1506      2712.5827      0             -5646.8537      0              0             -188.45243      132290.94      50.953815      50.953815      50.953815      0.85266952    -467.96041      124.519       -17.142872    
     45000   90000          305.43345      261.49594      4918.0108      4413.4994      4405.6148      7.8845728      1500.0686      1454.2463      2702.4151      0             -5648.8454      0              0             -188.45243      132290.94      50.953815      50.953815      50.953815      0.85266952     1080.5812     -147.40014     -148.69327    
     46000   92000          299.6026       173.2584       4652.9778      4318.7056      4321.5098     -2.8042087      1471.8855      1443.765       2737.6468      0             -5656.1015      0              0             -188.45243      132290.94      50.953815      50.953815      50.953815      0.85266952     408.97641      378.63649     -267.8377     
     47000   94000          294.0913      -397.28754      3461.6941      4228.1919      4242.0141     -13.822127      1460.9615      1448.1581      2728.8386      0             -5651.7803      0              0             -188.45243      132290.94      50.953815      50.953815      50.953815      0.85266952    -537.41335     -821.5377       167.08843    
     48000   96000          301.87711     -169.61566      4120.3277      4447.5719      4354.3177      93.254251      1509.9194      1472.9727      2749.3202      0             -5638.9581      0              0             -188.45243      132290.94      50.953815      50.953815      50.953815      0.85266952    -53.608889     -749.21168      293.9736     
     49000   98000          298.32723     -826.49595      2762.6553      4357.2368      4303.1137      54.12305       1478.0937      1498.0914      2715.8884      0             -5637.9505      0              0             -188.45243      132290.94      50.953815      50.953815      50.953815      0.85266952    -559.60077     -1361.5483     -558.33877    
     50000   100000         301.31318     -56.036589      4160.6564      4268.7693      4346.1834     -77.4141        1442.6338      1466.2437      2672.2343      0             -5658.5259      0              0             -188.45243      132290.94      50.953815      50.953815      50.953815      0.85266952     392.56161     -618.8606       58.18923     
     51000   102000         297.22299     -752.21354      2759.8207      4211.0871      4287.186      -76.098879      1458.5018      1441.2694      2683.5014      0             -5659.3715      0              0             -188.45243      132290.94      50.953815      50.953815      50.953815      0.85266952    -61.160622     -724.33198     -1471.148     
     52000   104000         298.31987     -114.06396      4136.9917      4357.0584      4303.0075      54.050936      1472.2481      1504.2532      2732.8692      0             -5655.3196      0              0             -188.45243      132290.94      50.953815      50.953815      50.953815      0.85266952    -236.06477     -68.808684     -37.318414    
     53000   106000         304.36685      438.24095      5191.6042      4346.0938      4390.23       -44.136246      1439.9507      1427.4273      2747.8274      0             -5659.3416      0              0             -188.45243      132290.94      50.953815      50.953815      50.953815      0.85266952     796.05731      272.61833      246.0472     
     54000   108000         294.24841      416.57613      4945.5021      4141.7902      4244.2802     -102.48998      1407.4823      1413.6152      2706.9592      0             -5630.5467      0              0             -188.45243      132290.94      50.953815      50.953815      50.953815      0.85266952     92.882858      557.79178      599.05375    
     55000   110000         301.96578      218.6276       4667.8836      4246.0793      4355.5966     -109.51729      1415.2123      1389.0834      2745.9719      0             -5659.7849      0              0             -188.45243      132290.94      50.953815      50.953815      50.953815      0.85266952     290.09843     -66.668576      432.45293    
     56000   112000         305.07743      364.10324      5102.646       4400.1716      4400.4795     -0.30797012     1435.974       1445.9243      2768.2124      0             -5650.4188      0              0             -188.45243      132290.94      50.953815      50.953815      50.953815      0.85266952     973.16836     -277.26939      396.41074    
     57000   114000         300.74478      323.24587      4940.636       4316.9888      4337.9848     -20.996007      1450.6717      1467.5258      2721.9281      0             -5661.1216      0              0             -188.45243      132290.94      50.953815      50.953815      50.953815      0.85266952     429.46715      389.78021      150.49026    
     58000   116000         299.48143      426.96741      5136.8709      4313.1109      4319.7621     -6.6512042      1473.528       1445.5281      2714.1756      0             -5639.8829      0              0             -188.45243      132290.94      50.953815      50.953815      50.953815      0.85266952     757.35447      553.84207     -30.294318    
     59000   118000         301.77468     -38.662311      4289.1219      4363.7142      4352.8401      10.874054      1463.9119      1447.0802      2733.559       0             -5633.677       0              0             -188.45243      132290.94      50.953815      50.953815      50.953815      0.85266952    -723.73773     -323.65086      931.40166    
     60000   120000         306.7134       85.262179      4541.5626      4377.0639      4424.077      -47.013089      1422.2838      1480.8301      2719.7144      0             -5669.8413      0              0             -188.45243      132290.94      50.953815      50.953815      50.953815      0.85266952     423.98771      32.219299     -200.42047    
     61000   122000         304.50037      567.00884      5426.0816      4332.1358      4392.1558     -60.020082      1417.5651      1479.2152      2720.698       0             -5677.4983      0              0             -188.45243      132290.94      50.953815      50.953815      50.953815      0.85266952     674.21977      857.74724      169.05952    
     62000   124000         306.08149     -124.12442      4131.0496      4370.5263      4414.9622     -44.435827      1432.8282      1457.9907      2693.1961      0             -5628.4509      0              0             -188.45243      132290.94      50.953815      50.953815      50.953815      0.85266952    -94.497788     -406.87801      129.00253    
     63000   126000         295.8025       265.04215      4760.8893      4249.5361      4266.6966     -17.160439      1480.344       1444.3799      2708.8898      0             -5650.7742      0              0             -188.45243      132290.94      50.953815      50.953815      50.953815      0.85266952     341.32768     -343.4801       797.27888    
     64000   128000         297.07618     -312.99485      3678.2146      4282.0842      4285.0684     -2.9841551      1473.4485      1477.8066      2696.7143      0             -5650.9536      0              0             -188.45243      132290.94      50.953815      50.953815      50.953815      0.85266952    -67.772302     -658.90978     -212.30245    
     65000   130000         302.66331      89.004336      4597.7651      4426.0466      4365.6579      60.388747      1510.9844      1509.6288      2716.1196      0             -5676.3441      0              0             -188.45243      132290.94      50.953815      50.953815      50.953815      0.85266952    -28.547754      180.87064      114.69013    
     66000   132000         295.6009      -738.53344      2852.8608      4277.7339      4263.7887      13.945154      1484.9491      1462.8162      2736.4164      0             -5670.2365      0              0             -188.45243      132290.94      50.953815      50.953815      50.953815      0.85266952    -769.70215     -777.51079     -668.38738    
     67000   134000         303.18995      286.29743      4940.2777      4387.9161      4373.2543      14.661885      1485.5873      1421.1387      2771.432       0             -5663.4962      0              0             -188.45243      132290.94      50.953815      50.953815      50.953815      0.85266952     341.41126     -18.22576       535.7068     
     68000   136000         298.63388     -1379.4299      1671.0654      4332.4378      4307.5369      24.90093       1489.0365      1438.2426      2757.9986      0             -5660.3768      0              0             -188.45243      132290.94      50.953815      50.953815      50.953815      0.85266952    -1393.6294     -1614.3866     -1130.2739    
     69000   138000         298.8297      -243.78514      3903.6865      4374.0279      4310.3614      63.666536      1481.8359      1452.7703      2766.1295      0             -5637.0691      0              0             -188.45243      132290.94      50.953815      50.953815      50.953815      0.85266952     107.14148     -482.58501     -355.91188    
     70000   140000         304.07351     -260.56134      3833.5805      4336.2887      4385.9988     -49.71015       1386.4092      1475.6952      2737.4758      0             -5649.2903      0              0             -188.45243      132290.94      50.953815      50.953815      50.953815      0.85266952    -304.03899     -704.82498      227.17995    
     71000   142000         304.50812      292.79575      5102.016       4537.117       4392.2676      144.84937      1480.5558      1511.3853      2775.6099      0             -5622.7017      0              0             -188.45243      132290.94      50.953815      50.953815      50.953815      0.85266952     177.42643      575.6463       125.31453    
     72000   144000         300.94613     -240.0788       3805.3769      4268.5676      4340.8891     -72.321471      1429.9735      1471.5526      2698.23        0             -5672.0776      0              0             -188.45243      132290.94      50.953815      50.953815      50.953815      0.85266952     13.440755     -250.4399      -483.23725    
     73000   146000         299.24131      183.09056      4634.0679      4280.8262      4316.2985     -35.472254      1435.3811      1465.5549      2701.458       0             -5637.8663      0              0             -188.45243      132290.94      50.953815      50.953815      50.953815      0.85266952     43.275072     -233.56708      739.56368    
     74000   148000         295.9238       441.32327      5143.0858      4291.6285      4268.4462      23.182333      1472.2198      1472.0522      2725.4112      0             -5646.5008      0              0             -188.45243      132290.94      50.953815      50.953815      50.953815      0.85266952     509.13186      536.06793      278.77001    
     75000   150000         295.56137     -293.95438      3627.678       4194.8124      4263.2185     -68.406158      1450.9522      1465.5109      2697.7594      0             -5682.6286      0              0             -188.45243      132290.94      50.953815      50.953815      50.953815      0.85266952    -8.99084       -459.34881     -413.52348    
     76000   152000         307.5777      -88.271574      4226.0223      4396.3271      4436.5438     -40.216662      1452.688       1409.5552      2746.9814      0             -5649.4413      0              0             -188.45243      132290.94      50.953815      50.953815      50.953815      0.85266952     150.70009     -133.14838     -282.36643    
     77000   154000         299.83715     -76.363947      4213.0134      4360.3445      4324.893       35.451499      1447.7046      1472.834       2765.3285      0             -5650.4156      0              0             -188.45243      132290.94      50.953815      50.953815      50.953815      0.85266952    -6.1159941     -578.42752      355.45167    
     78000   156000         301.933       -924.39871      2454.2076      4237.6757      4355.1238     -117.44814      1409.8786      1451.9407      2672.6178      0             -5651.8852      0              0             -188.45243      132290.94      50.953815      50.953815      50.953815      0.85266952    -1151.2702     -723.86902     -898.05691    
     79000   158000         290.70831      101.99469      4498.9426      4302.1614      4193.2173      108.94412      1469.5144      1517.4532      2790.9663      0             -5668.9898      0              0             -188.45243      132290.94      50.953815      50.953815      50.953815      0.85266952     321.43379     -569.5918       554.14209    
     80000   160000         302.01047     -17.793032      4219.5721      4253.9007      4356.2413     -102.34067      1447.7358      1414.2924      2689.5986      0             -5653.9675      0              0             -188.45243      132290.94      50.953815      50.953815      50.953815      0.85266952    -363.98838     -17.870469      328.47975    
     81000   162000         298.8862       330.65582      4860.9427      4222.9993      4311.1764     -88.177074      1425.6774      1433.2348      2701.8162      0             -5648.9054      0              0             -188.45243      132290.94      50.953815      50.953815      50.953815      0.85266952    -17.960638      387.89483      622.03328    
     82000   164000         302.22003      78.135395      4402.303       4251.5542      4359.2639     -107.70966      1435.7877      1446.1111      2677.5657      0             -5667.1741      0              0             -188.45243      132290.94      50.953815      50.953815      50.953815      0.85266952     416.75167     -443.50913      261.16365    
     83000   166000         295.54147     -36.00837       4155.4558      4224.9277      4262.9315     -38.003797      1467.9378      1480.2654      2666.142       0             -5652.349       0              0             -188.45243      132290.94      50.953815      50.953815      50.953815      0.85266952    -406.80189      256.8774       41.899373    
     84000   168000         295.00573     -82.579127      4033.5688      4192.891       4255.2039     -62.312824      1450.1517      1442.9839      2685.5934      0             -5641.0419      0              0             -188.45243      132290.94      50.953815      50.953815      50.953815      0.85266952    -217.54632     -763.61937      733.42831    
     85000   170000         305.27153     -75.349808      4312.5888      4457.9633      4403.2793      54.68402       1468.3988      1484.5371      2744.6727      0             -5642.9247      0              0             -188.45243      132290.94      50.953815      50.953815      50.953815      0.85266952     64.180291     -49.955162     -240.27455    
     86000   172000         302.15961     -172.13764      4134.0609      4466.1708      4358.3924      107.77839      1526.4813      1485.6355      2735.7717      0             -5640.1101      0              0             -188.45243      132290.94      50.953815      50.953815      50.953815      0.85266952     15.626653     -875.87886      343.8393     
     87000   174000         295.91089      70.686174      4330.0075      4193.6307      4268.2601     -74.629435      1430.2709      1516.3345      2645.9442      0             -5667.1791      0              0             -188.45243      132290.94      50.953815      50.953815      50.953815      0.85266952    -680.27299      440.20917      452.12235    
     88000   176000         295.15696     -387.04187      3331.5944      4078.325       4257.3852     -179.06026      1396.8864      1510.8019      2610.8126      0             -5697.5612      0              0             -188.45243      132290.94      50.953815      50.953815      50.953815      0.85266952    -965.94203      159.75519     -354.93877    
     89000   178000         300.32702     -136.18379      4054.3841      4317.1272      4331.959      -14.831752      1460.021       1466.4642      2737.9818      0             -5679.2988      0              0             -188.45243      132290.94      50.953815      50.953815      50.953815      0.85266952    -231.08832      179.18117     -356.64422    
     90000   180000         295.7022      -444.2215       3455.1066      4312.1555      4265.2499      46.90556       1508.7132      1454.3089      2734.5051      0             -5650.6216      0              0             -188.45243      132290.94      50.953815      50.953815      50.953815      0.85266952    -1132.6366     -158.69912     -41.328819    
     91000   182000         308.87971      474.16362      5300.1049      4385.2879      4455.3241     -70.036172      1442.3835      1446.6857      2703.7309      0             -5662.8363      0              0             -188.45243      132290.94      50.953815      50.953815      50.953815      0.85266952     569.97677      824.2976       28.216486    
     92000   184000         299.12571     -27.946656      4159.0618      4212.98        4314.631      -101.65099      1420.1386      1449.5445      2705.3499      0             -5676.6839      0              0             -188.45243      132290.94      50.953815      50.953815      50.953815      0.85266952    -622.39659      288.12473      250.43189    
     93000   186000         297.6877      -261.51425      3823.0068      4327.5535      4293.889       33.664525      1470.2649      1478.1559      2716.0037      0             -5630.76        0              0             -188.45243      132290.94      50.953815      50.953815      50.953815      0.85266952    -450.75852     -216.04289     -117.74133    
     94000   188000         293.81919      98.501488      4356.4843      4166.4426      4238.089      -71.646444      1452.9331      1365.9088      2774.4025      0             -5664.8908      0              0             -188.45243      132290.94      50.953815      50.953815      50.953815      0.85266952    -240.22513      353.43447      182.29512    
     95000   190000         297.12928     -13.40079       4256.6218      4282.4763      4285.8343     -3.3579888      1463.9503      1489.453       2685.7235      0             -5642.4848      0              0             -188.45243      132290.94      50.953815      50.953815      50.953815      0.85266952    -332.34938      301.03112     -8.8841088    
     96000   192000         299.07626      16.595892      4300.2713      4268.2524      4313.9177     -45.665367      1460.9897      1460.1549      2690.676       0             -5657.486       0              0             -188.45243      132290.94      50.953815      50.953815      50.953815      0.85266952     81.256146      231.64608     -263.11455    
     97000   194000         308.835        964.90631      6368.0886      4506.4682      4454.6792      51.788958      1459.6374      1510.4055      2752.505       0             -5670.759       0              0             -188.45243      132290.94      50.953815      50.953815      50.953815      0.85266952     673.88265      735.38705      1485.4492    
     98000   196000         309.46494      360.30151      5102.5455      4407.4058      4463.7655     -56.359779      1416.8137      1459.9619      2696.7309      0             -5629.8663      0              0             -188.45243      132290.94      50.953815      50.953815      50.953815      0.85266952     120.74983      391.67001      568.48469    
     99000   198000         299.18573      0.81284438     4403.6335      4402.0653      4315.4968      86.568494      1521.8111      1524.7048      2688.9383      0             -5648.8856      0              0             -188.45243      132290.94      50.953815      50.953815      50.953815      0.85266952     9.2935021     -381.58107      374.7261     
    100000   200000         293.80727     -221.76564      3839.1964      4267.055       4237.9172      29.137803      1476.4556      1476.6504      2732.5141      0             -5656.4823      0              0             -188.45243      132290.94      50.953815      50.953815      50.953815      0.85266952     567.04517     -847.2175      -385.12459    
    101000   202000         296.68952     -17.760886      4256.5261      4290.7927      4279.4911      11.301624      1467.0932      1459.4086      2725.487       0             -5640.6871      0              0             -188.45243      132290.94      50.953815      50.953815      50.953815      0.85266952     333.70188     -389.22224      2.2376924    
    102000   204000         302.82636     -251.79425      3858.0442      4343.8378      4368.0098     -24.172028      1479.2182      1400.4262      2782.9516      0             -5686.768       0              0             -188.45243      132290.94      50.953815      50.953815      50.953815      0.85266952    -521.37791      360.81953     -594.82436    
    103000   206000         302.54401     -92.038347      4207.5698      4385.142       4363.9371      21.204814      1486.955       1438.1939      2740.2731      0             -5644.2172      0              0             -188.45243      132290.94      50.953815      50.953815      50.953815      0.85266952     152.64707     -516.46512      87.70301     
    104000   208000         304.7062       239.88702      4769.3028      4306.4821      4395.1249     -88.642735      1465.7411      1411.798       2683.5394      0             -5649.7213      0              0             -188.45243      132290.94      50.953815      50.953815      50.953815      0.85266952     506.89764      62.445504      150.31792    
    105000   210000         302.04787     -370.15713      3592.7157      4306.8701      4356.7807     -49.910579      1476.8942      1453.9991      2677.1652      0             -5657.969       0              0             -188.45243      132290.94      50.953815      50.953815      50.953815      0.85266952     52.984695     -142.47087     -1020.9852    
    106000   212000         299.16185     -745.48384      2903.1308      4341.4135      4315.1523      26.261156      1522.6159      1432.7274      2737.0467      0             -5666.1288      0              0             -188.45243      132290.94      50.953815      50.953815      50.953815      0.85266952    -959.59944     -482.39756     -794.45453    
    107000   214000         301.65821     -370.90072      3657.0619      4372.6509      4351.1602      21.490709      1487.0748      1456.4028      2736.9399      0             -5658.9268      0              0             -188.45243      132290.94      50.953815      50.953815      50.953815      0.85266952    -794.82468     -566.06943      248.19194    
    108000   216000         307.39357      553.65833      5462.9243      4394.7359      4433.8879     -39.151945      1470.1082      1388.475       2755.8651      0             -5653.6002      0              0             -188.45243      132290.94      50.953815      50.953815      50.953815      0.85266952     330.34465      859.7239       470.90645    
    109000   218000         297.8801      -496.25231      3301.6342      4259.0675      4296.6643     -37.596763      1466.6109      1446.4301      2723.2828      0             -5673.9205      0              0             -188.45243      132290.94      50.953815      50.953815      50.953815      0.85266952    -462.77029     -464.23148     -561.75515    
    110000   220000         295.18016     -455.45176      3291.851       4170.5667      4257.72       -87.153278      1430.1752      1401.1851      2749.2881      0             -5667.8017      0              0             -188.45243      132290.94      50.953815      50.953815      50.953815      0.85266952    -549.76048     -160.23232     -656.36247    
    111000   222000         306.79656     -587.21083      3354.5045      4487.4266      4425.2764      62.150183      1501.1541      1454.518       2756.8199      0             -5650.3418      0              0             -188.45243      132290.94      50.953815      50.953815      50.953815      0.85266952    -977.74065     -990.60042      206.70858    
    112000   224000         301.08356      716.2869       5710.2091      4328.257       4342.8713     -14.614375      1479.688       1454.6927      2690.2054      0             -5639.2005      0              0             -188.45243      132290.94      50.953815      50.953815      50.953815      0.85266952     558.8872       787.60653      802.36697    
    113000   226000         303.15528     -139.58483      4086.4025      4355.7074      4372.7542     -17.046844      1471.0692      1485.554       2687.7805      0             -5661.4505      0              0             -188.45243      132290.94      50.953815      50.953815      50.953815      0.85266952    -285.7808       542.07053     -675.04421    
    114000   228000         300.5395      -402.8953       3477.3429      4254.66        4335.0238     -80.363805      1456.6798      1419.5628      2692.0188      0             -5648.6253      0              0             -188.45243      132290.94      50.953815      50.953815      50.953815      0.85266952     33.577203     -355.69599     -886.56713    
    115000   230000         291.7784       433.0404       5057.1826      4221.7057      4208.6524      13.053328      1485.38        1437.6409      2718.5087      0             -5628.4762      0              0             -188.45243      132290.94      50.953815      50.953815      50.953815      0.85266952     244.97318      438.70292      615.4451     
    116000   232000         299.03656     -572.65865      3194.7933      4299.6395      4313.3452     -13.705622      1478.1922      1462.716       2689.4726      0             -5644.0865      0              0             -188.45243      132290.94      50.953815      50.953815      50.953815      0.85266952    -100.25139     -987.63192     -630.09264    
    117000   234000         301.08061     -645.28013      2980.2815      4225.2383      4342.8289     -117.59056      1444.9059      1437.0254      2677.71        0             -5677.2319      0              0             -188.45243      132290.94      50.953815      50.953815      50.953815      0.85266952    -43.565508     -720.3714      -1171.9035    
    118000   236000         299.14176     -123.77811      3992.2419      4231.0504      4314.8625     -83.812069      1417.1761      1428.5831      2707.5402      0             -5637.1116      0              0             -188.45243      132290.94      50.953815      50.953815      50.953815      0.85266952    -357.10604     -302.4889       288.26062    
    119000   238000         302.60226     -85.966112      4244.409       4410.2658      4364.7773      45.488436      1500.2179      1430.3132      2758.1663      0             -5643.2089      0              0             -188.45243      132290.94      50.953815      50.953815      50.953815      0.85266952    -162.18465      477.84088     -573.55456    
    120000   240000         304.89412      40.70514       4420.4837      4341.9502      4397.8354     -55.885233      1444.8789      1439.2824      2730.1424      0             -5670.189       0              0             -188.45243      132290.94      50.953815      50.953815      50.953815      0.85266952     40.4429       -166.9333       248.60582    
    121000   242000         294.27257     -395.82127      3531.7445      4295.4135      4244.6287      50.784729      1483.7534      1457.5287      2752.1614      0             -5642.6587      0              0             -188.45243      132290.94      50.953815      50.953815      50.953815      0.85266952    -362.85791     -631.65899     -192.94692    
    122000   244000         308.4704      -363.69671      3743.6897      4445.3798      4449.4202     -4.0403951      1421.9474      1476.4622      2773.6912      0             -5676.1412      0              0             -188.45243      132290.94      50.953815      50.953815      50.953815      0.85266952    -285.60984     -814.49301      9.0127205    
    123000   246000         299.54153     -670.017        3069.2173      4361.8996      4320.6289      41.270714      1474.722       1485.9175      2720.1161      0             -5639.4848      0              0             -188.45243      132290.94      50.953815      50.953815      50.953815      0.85266952    -565.94118      66.095214     -1510.205     
    124000   248000         295.29372     -48.624451      4132.0304      4225.8429      4259.3579     -33.515071      1510.0042      1410.473       2695.9183      0             -5649.9106      0              0             -188.45243      132290.94      50.953815      50.953815      50.953815      0.85266952    -238.14703      345.87786     -253.60419    
    125000   250000         299.88676     -485.43088      3465.1335      4401.6888      4325.6086      76.080207      1512.3827      1430.1914      2765.0754      0             -5631.5693      0              0             -188.45243      132290.94      50.953815      50.953815      50.953815      0.85266952    -1210.1323     -906.65278      660.49247    
    126000   252000         297.16427     -180.60434      4053.4257      4401.8707      4286.3391      115.53163      1510.3725      1476.9539      2798.6632      0             -5670.458       0              0             -188.45243      132290.94      50.953815      50.953815      50.953815      0.85266952    -152.15983      107.60234     -497.25553    
    127000   254000         303.75904      289.54258      4871.2689      4312.6464      4381.4629     -68.816532      1428.5033      1414.0568      2746.4061      0             -5657.7828      0              0             -188.45243      132290.94      50.953815      50.953815      50.953815      0.85266952     137.67993      620.20939      110.73842    
    128000   256000         306.71293      219.42691      4832.4106      4409.0642      4424.0702     -15.006068      1441.9682      1456.1526      2749.1067      0             -5662.2335      0              0             -188.45243      132290.94      50.953815      50.953815      50.953815      0.85266952     122.98538     -428.43839      963.73375    
    129000   258000         291.98617     -268.50596      3701.1757      4219.2117      4211.6493      7.5623584      1444.1767      1463.3913      2734.5174      0             -5634.523       0              0             -188.45243      132290.94      50.953815      50.953815      50.953815      0.85266952     35.526827     -771.18096     -69.863756    
    130000   260000         302.5371      -67.03146       4293.6148      4422.9404      4363.8374      59.103019      1468.2917      1496.4856      2751.2983      0             -5656.9727      0              0             -188.45243      132290.94      50.953815      50.953815      50.953815      0.85266952     518.94513     -317.32738     -402.71213    
    131000   262000         302.83162     -287.41652      3825.1904      4379.711       4368.0856      11.625383      1511.8784      1447.9552      2743.9596      0             -5692.1678      0              0             -188.45243      132290.94      50.953815      50.953815      50.953815      0.85266952    -560.37403     -179.28153     -122.59399    
    132000   264000         306.31361     -745.97984      3038.8628      4478.1024      4418.3103      59.792117      1500.075       1423.3755      2767.096       0             -5630.7544      0              0             -188.45243      132290.94      50.953815      50.953815      50.953815      0.85266952    -518.92917     -795.19344     -923.81691    
    133000   266000         300.55255     -512.09461      3359.2839      4347.2822      4335.212       12.070201      1502.0486      1452.3477      2729.3544      0             -5671.6806      0              0             -188.45243      132290.94      50.953815      50.953815      50.953815      0.85266952    -454.90653     -465.23346     -616.14383    
    134000   268000         299.65917     -472.08718      3385.5452      4296.3561      4322.3257     -25.969614      1430.6054      1465.6643      2714.0552      0             -5636.2945      0              0             -188.45243      132290.94      50.953815      50.953815      50.953815      0.85266952    -47.567214     -748.74902     -619.9453     
    135000   270000         295.68791      66.209962      4428.8521      4301.1114      4265.0437      36.067678      1492.1696      1484.6957      2693.5774      0             -5634.375       0              0             -188.45243      132290.94      50.953815      50.953815      50.953815      0.85266952    -31.220992      610.11344     -380.26256    
    136000   272000         305.85092      551.31999      5452.8164      4389.1394      4411.6364     -22.496932      1476.3489      1415.0768      2739.4173      0             -5653.34        0              0             -188.45243      132290.94      50.953815      50.953815      50.953815      0.85266952     801.03381      531.75685      321.16932    
    137000   274000         293.02296     -418.8889       3301.6387      4109.8127      4226.6041     -116.79143      1427.1747      1413.4496      2725.2169      0             -5682.6326      0              0             -188.45243      132290.94      50.953815      50.953815      50.953815      0.85266952    -742.39128      424.91595     -939.19137    
    138000   276000         297.29271     -766.4481       2701.0656      4179.7951      4288.1916     -108.39645      1479.8896      1409.5133      2673.5484      0             -5671.3477      0              0             -188.45243      132290.94      50.953815      50.953815      50.953815      0.85266952    -205.25056     -828.93152     -1265.1622    
    139000   278000         300.13845     -363.85355      3642.0097      4344.0024      4329.2389      14.76347       1495.1554      1464.5694      2744.9302      0             -5689.8914      0              0             -188.45243      132290.94      50.953815      50.953815      50.953815      0.85266952     87.588041     -582.27408     -596.8746     
    140000   280000         301.98032     -247.40808      3833.829       4311.1603      4355.8064     -44.646103      1446.9209      1420.2531      2749.9464      0             -5661.7665      0              0             -188.45243      132290.94      50.953815      50.953815      50.953815      0.85266952    -856.7845      -475.43312      589.99338    
    141000   282000         295.65259     -107.18419      4091.8836      4298.677       4264.5343      34.142685      1462.4405      1447.5733      2795.4222      0             -5671.2933      0              0             -188.45243      132290.94      50.953815      50.953815      50.953815      0.85266952    -13.603477     -165.16564     -142.78345    
    142000   284000         309.31233     -54.05212       4331.7678      4436.0521      4461.5642     -25.512157      1499.1989      1412.2192      2735.7025      0             -5672.6328      0              0             -188.45243      132290.94      50.953815      50.953815      50.953815      0.85266952    -354.02272      103.53365      88.332709    
    143000   286000         303.31397     -385.30103      3697.4692      4440.8412      4375.0431      65.798032      1524.6025      1423.1368      2769.0029      0             -5650.9441      0              0             -188.45243      132290.94      50.953815      50.953815      50.953815      0.85266952    -561.07362      249.84829     -844.67778    
    144000   288000         300.43346     -311.64212      3725.0511      4326.3109      4333.4942     -7.1832962      1464.1584      1469.8582      2708.3221      0             -5649.522       0              0             -188.45243      132290.94      50.953815      50.953815      50.953815      0.85266952    -449.8056      -294.82093     -190.29982    
    145000   290000         303.38507     -195.28188      4012.806       4389.5687      4376.0687      13.500063      1507.2406      1427.3672      2729.1139      0             -5650.2216      0              0             -188.45243      132290.94      50.953815      50.953815      50.953815      0.85266952     154.35368     -240.64099     -499.55833    
    146000   292000         301.29774     -257.35167      3887.1931      4383.7088      4345.9607      37.748072      1500.2728      1473.6412      2738.4879      0             -5674.6537      0              0             -188.45243      132290.94      50.953815      50.953815      50.953815      0.85266952     21.018317     -516.91074     -276.16259    
    147000   294000         301.17553     -12.642362      4371.1004      4395.4916      4344.198       51.293641      1488.4203      1520.6106      2703.1349      0             -5660.8721      0              0             -188.45243      132290.94      50.953815      50.953815      50.953815      0.85266952     511.54078     -201.38615     -348.08171    
    148000   296000         297.69573      160.96345      4609.5944      4299.0431      4294.0049      5.0382591      1543.1698      1446.9412      2680.6916      0             -5665.7644      0              0             -188.45243      132290.94      50.953815      50.953815      50.953815      0.85266952     407.36728     -77.786784      153.30987    
    149000   298000         300.81924      372.88413      5024.5782      4305.1625      4339.0587     -33.896239      1464.8638      1458.5291      2721.5448      0             -5678.8339      0              0             -188.45243      132290.94      50.953815      50.953815      50.953815      0.85266952    -204.95688      296.29907      1027.3102    
    150000   300000         299.66406     -556.23946      3222.8627      4296.0309      4322.3963     -26.365388      1473.8481      1470.7489      2714.8724      0             -5685.8347      0              0             -188.45243      132290.94      50.953815      50.953815      50.953815      0.85266952    -175.21277     -1018.228      -475.27761    
    151000   302000         299.08677     -95.723311      4123.2661      4307.9478      4314.0694     -6.1216122      1487.8965      1497.8103      2710.2498      0             -5702.0782      0              0             -188.45243      132290.94      50.953815      50.953815      50.953815      0.85266952     186.95959     -63.24622      -410.88331    
    152000   304000         301.39415     -694.41684      3021.0955      4360.8532      4347.3513      13.501861      1505.7181      1434.2775      2732.5993      0             -5659.093       0              0             -188.45243      132290.94      50.953815      50.953815      50.953815      0.85266952    -558.01567     -264.16603     -1261.0688    
    153000   306000         299.4657       722.80165      5713.5246      4319.0034      4319.5351     -0.53170444     1509.5068      1393.8134      2734.863       0             -5638.7149      0              0             -188.45243      132290.94      50.953815      50.953815      50.953815      0.85266952     910.6202       445.93284      811.85192    
    154000   308000         305.64849      162.19487      4817.7388      4504.8117      4408.7166      96.095155      1496.429       1489.9584      2750.1524      0             -5640.4447      0              0             -188.45243      132290.94      50.953815      50.953815      50.953815      0.85266952     50.16042       612.00034     -175.57613    
    155000   310000         301.12934      324.02899      5062.8095      4437.6514      4343.5317      94.11965       1541.0603      1432.0671      2767.2096      0             -5646.2174      0              0             -188.45243      132290.94      50.953815      50.953815      50.953815      0.85266952     410.44916      62.577712      499.06009    
    156000   312000         305.16918     -311.38494      3678.1124      4278.876       4401.803      -122.92699      1454.2931      1447.1935      2655.4777      0             -5679.8914      0              0             -188.45243      132290.94      50.953815      50.953815      50.953815      0.85266952    -138.66047     -508.84764     -286.64671    
    157000   314000         299.55634      87.277066      4495.9081      4327.522       4320.8425      6.6795038      1494.7162      1501.8027      2686.7334      0             -5676.5729      0              0             -188.45243      132290.94      50.953815      50.953815      50.953815      0.85266952     325.94474      152.2848      -216.39834    
    158000   316000         300.07186     -315.11115      3666.7318      4274.6845      4328.2785     -53.593968      1415.2468      1509.5252      2709.5614      0             -5687.9274      0              0             -188.45243      132290.94      50.953815      50.953815      50.953815      0.85266952    -590.5276      -908.46378      553.65794    
    159000   318000         307.10097     -201.63908      3981.0997      4370.1276      4429.6673     -59.539683      1443.319       1443.1778      2722.0183      0             -5668.0547      0              0             -188.45243      132290.94      50.953815      50.953815      50.953815      0.85266952    -282.39166     -774.92378      452.3982     
    160000   320000         302.8572      -743.45622      2927.4302      4361.8009      4368.4546     -6.6536916      1476.233       1440.9139      2719.657       0             -5643.4576      0              0             -188.45243      132290.94      50.953815      50.953815      50.953815      0.85266952    -656.15343     -877.14349     -697.07174    
    161000   322000         301.20634     -210.66673      3931.6011      4338.0463      4344.6424     -6.5961815      1484.1961      1465.8339      2696.3754      0             -5653.0017      0              0             -188.45243      132290.94      50.953815      50.953815      50.953815      0.85266952    -665.71269     -161.07944      194.79195    
    162000   324000         299.65513     -636.82153      3068.0236      4296.6611      4322.2675     -25.606472      1486.5583      1434.7553      2743.0208      0             -5689.9408      0              0             -188.45243      132290.94      50.953815      50.953815      50.953815      0.85266952    -831.60938     -971.71765     -107.13757    
    163000   326000         297.80325     -476.55551      3377.499       4296.9308      4295.5557      1.3750852      1451.9956      1465.5236      2747.5847      0             -5663.7289      0              0             -188.45243      132290.94      50.953815      50.953815      50.953815      0.85266952    -609.84821     -28.81264      -791.00567    
    164000   328000         296.31081     -45.569398      4208.3199      4296.2382      4274.0285      22.209672      1488.6886      1455.781       2739.4929      0             -5661.7528      0              0             -188.45243      132290.94      50.953815      50.953815      50.953815      0.85266952    -276.36031     -234.50647      374.15858    
    165000   330000         308.33858      213.76738      4843.7175      4431.2902      4447.5188     -16.228586      1501.1614      1442.5446      2684.9734      0             -5644.908       0              0             -188.45243      132290.94      50.953815      50.953815      50.953815      0.85266952     423.78404     -79.974774      297.49287    
    166000   332000         297.0427       343.02971      4902.2037      4240.3869      4284.5854     -44.19849       1467.8928      1466.7618      2674.4192      0             -5653.2722      0              0             -188.45243      132290.94      50.953815      50.953815      50.953815      0.85266952     84.170922     -453.87725      1398.7955    
    167000   334000         301.5383      -90.116411      4156.6658      4330.5299      4349.4306     -18.900682      1521.766       1387.6759      2723.3891      0             -5651.7316      0              0             -188.45243      132290.94      50.953815      50.953815      50.953815      0.85266952     152.68911      87.572768     -510.61112    
    168000   336000         300.65022     -770.63173      2840.7811      4327.5823      4336.6208     -9.0385153      1477.7049      1440.9126      2747.3452      0             -5675.0013      0              0             -188.45243      132290.94      50.953815      50.953815      50.953815      0.85266952    -1109.0367     -593.47384     -609.38462    
    169000   338000         305.36873      32.568435      4471.4473      4408.6122      4404.6812      3.930933       1510.9702      1412.8112      2726.2269      0             -5646.0774      0              0             -188.45243      132290.94      50.953815      50.953815      50.953815      0.85266952    -215.58753     -221.69325      534.98609    
    170000   340000         300.32447      89.991258      4569.2148      4395.5922      4331.9221      63.670088      1494.4362      1467.9171      2752.0032      0             -5650.6864      0              0             -188.45243      132290.94      50.953815      50.953815      50.953815      0.85266952    -14.48804      -215.69663      500.15844    
    171000   342000         293.56953      128.30293      4458.8885      4211.3501      4234.4879     -23.137786      1484.1173      1441.0641      2678.8491      0             -5627.1684      0              0             -188.45243      132290.94      50.953815      50.953815      50.953815      0.85266952    -102.13713     -293.3892       780.43511    
    172000   344000         303.36313      353.7297       4986.7289      4304.2684      4375.7522     -71.483881      1471.1543      1474.9519      2653.1755      0             -5670.7656      0              0             -188.45243      132290.94      50.953815      50.953815      50.953815      0.85266952     489.01128     -30.750869      602.9287     
    173000   346000         308.05773      196.46545      4835.5126      4456.4664      4443.4677      12.998712      1486.0761      1475.8159      2726.2175      0             -5675.1108      0              0             -188.45243      132290.94      50.953815      50.953815      50.953815      0.85266952     177.21104      115.78216      296.40314    
    174000   348000         300.79515      25.2229        4388.0696      4339.4064      4338.7113      0.6951209      1456.8013      1465.4803      2700.638       0             -5622.2244      0              0             -188.45243      132290.94      50.953815      50.953815      50.953815      0.85266952    -26.588646     -282.82415      385.08149    
    175000   350000         300.65618     -185.46765      3991.0644      4348.8923      4336.7068      12.185548      1477.1255      1416.3024      2743.5364      0             -5624.7788      0              0             -188.45243      132290.94      50.953815      50.953815      50.953815      0.85266952    -882.78397     -174.00576      500.3868     
    176000   352000         299.73207     -573.99436      3197.9822      4305.4055      4323.3772     -17.971766      1451.7124      1449.0397      2697.1952      0             -5615.9191      0              0             -188.45243      132290.94      50.953815      50.953815      50.953815      0.85266952    -684.48717     -807.79028     -229.70563    
    177000   354000         306.20563      795.56307      5850.1214      4315.2195      4416.7528     -101.53327      1461.9728      1412.6007      2682.5166      0             -5658.6234      0              0             -188.45243      132290.94      50.953815      50.953815      50.953815      0.85266952     989.85912      636.73315      760.09696    
    178000   356000         305.78222      126.17454      4746.9042      4503.4722      4410.6455      92.826651      1509.3771      1480.349       2721.055       0             -5617.9545      0              0             -188.45243      132290.94      50.953815      50.953815      50.953815      0.85266952    -156.1524      -49.142642      583.81867    
    179000   358000         298.65868      29.654588      4348.58        4291.3666      4307.8946     -16.527951      1470.7674      1451.085       2715.1202      0             -5653.5006      0              0             -188.45243      132290.94      50.953815      50.953815      50.953815      0.85266952    -220.78263     -346.30792      656.05432    
    180000   360000         301.26818      261.21353      4876.4047      4372.4382      4345.5343      26.903852      1501.7221      1466.7464      2717.1835      0             -5658.7481      0              0             -188.45243      132290.94      50.953815      50.953815      50.953815      0.85266952     305.73101     -295.96207      773.87165    
    181000   362000         297.1151      -283.63126      3717.0031      4264.2208      4285.6298     -21.408999      1456.4985      1481.256       2705.9459      0             -5665.1094      0              0             -188.45243      132290.94      50.953815      50.953815      50.953815      0.85266952    -745.2419      -597.30851      491.65664    
    182000   364000         298.4172      -125.40618      4007.2155      4249.1651      4304.4114     -55.246221      1431.618       1435.1987      2722.8861      0             -5644.949       0              0             -188.45243      132290.94      50.953815      50.953815      50.953815      0.85266952    -278.56353      6.2382269     -103.89325    
    183000   366000         298.12186      153.26549      4683.7443      4388.045       4300.1515      87.893529      1503.0745      1464.7367      2756.522       0             -5636.4396      0              0             -188.45243      132290.94      50.953815      50.953815      50.953815      0.85266952     175.57009     -365.16816      649.39452    
    184000   368000         299.65962     -612.71388      3104.837       4286.9629      4322.3322     -35.369325      1479.1668      1421.2463      2726.658       0             -5662.4405      0              0             -188.45243      132290.94      50.953815      50.953815      50.953815      0.85266952    -835.13281     -98.784012     -904.22482    
    185000   370000         297.01809     -120.51146      4048.2718      4280.7779      4284.2305     -3.4525422      1442.7705      1486.2544      2737.0946      0             -5669.572       0              0             -188.45243      132290.94      50.953815      50.953815      50.953815      0.85266952    -321.1468      -22.640722     -17.74685     
    186000   372000         304.11358     -378.49339      3675.9422      4406.18        4386.5768      19.603264      1461.5742      1460.7456      2735.8461      0             -5638.5626      0              0             -188.45243      132290.94      50.953815      50.953815      50.953815      0.85266952    -579.47504     -302.68218     -253.32295    
    187000   374000         300.72881      56.073074      4508.9849      4400.8015      4337.7544      63.047118      1494.3016      1482.5737      2732.5656      0             -5646.3938      0              0             -188.45243      132290.94      50.953815      50.953815      50.953815      0.85266952     424.89628      430.84224     -687.5193     
    188000   376000         306.3215       207.1512       4764.7772      4365.1147      4418.4242     -53.309499      1465.9982      1430.1792      2709.3168      0             -5658.8037      0              0             -188.45243      132290.94      50.953815      50.953815      50.953815      0.85266952    -411.08159      497.41282      535.12237    
    189000   378000         300.06889     -283.31262      3779.2723      4325.8751      4328.2357     -2.3605208      1469.6695      1434.6668      2762.3596      0             -5669.0564      0              0             -188.45243      132290.94      50.953815      50.953815      50.953815      0.85266952    -117.23838     -377.57072     -355.12874    
    190000   380000         298.73751      373.45357      4998.9272      4278.4129      4309.0316     -30.618679      1474.5843      1470.2581      2686.3666      0             -5661.8277      0              0             -188.45243      132290.94      50.953815      50.953815      50.953815      0.85266952     812.06501      215.2447       93.050993    
    191000   382000         302.48708     -35.167098      4322.7389      4390.5878      4363.116       27.471819      1468.0466      1492.3988      2712.1754      0             -5645.149       0              0             -188.45243      132290.94      50.953815      50.953815      50.953815      0.85266952    -59.236732     -107.57275      61.308191    
    192000   384000         297.66162      243.03269      4671.1251      4202.2354      4293.5128     -91.277423      1457.8241      1397.3763      2718.8495      0             -5665.3274      0              0             -188.45243      132290.94      50.953815      50.953815      50.953815      0.85266952    -381.15487      539.48502      570.76792    
    193000   386000         302.16758     -295.12452      3698.0195      4267.4114      4358.5074     -91.096012      1468.8242      1423.7923      2672.7542      0             -5656.4666      0              0             -188.45243      132290.94      50.953815      50.953815      50.953815      0.85266952    -123.16634     -742.67514     -19.532093    
    194000   388000         300.77895     -236.29621      3795.1347      4251.0276      4338.4777     -87.450096      1449.2639      1394.0034      2699.021       0             -5629.7384      0              0             -188.45243      132290.94      50.953815      50.953815      50.953815      0.85266952    -315.59433     -274.75297     -118.54132    
    195000   390000         299.54359     -566.05191      3240.1213      4332.221       4320.6586      11.562427      1488.5091      1466.0553      2711.0288      0             -5654.0307      0              0             -188.45243      132290.94      50.953815      50.953815      50.953815      0.85266952    -373.08494     -1426.6809      101.61009    
    196000   392000         300.51155      183.6338       4687.8346      4333.5448      4334.6207     -1.0758629      1433.7206      1490.136       2708.4631      0             -5633.3955      0              0             -188.45243      132290.94      50.953815      50.953815      50.953815      0.85266952     300.57081     -138.16051      388.49111    
    197000   394000         296.32347     -15.80841       4221.8288      4252.3284      4274.2112     -21.882809      1456.8111      1490.1551      2678.0341      0             -5646.8831      0              0             -188.45243      132290.94      50.953815      50.953815      50.953815      0.85266952    -694.55063     -6.2150055      653.34041    
    198000   396000         302.737       -538.01455      3233.6181      4271.6245      4366.7208     -95.096324      1466.4284      1445.6629      2665.2969      0             -5672.4845      0              0             -188.45243      132290.94      50.953815      50.953815      50.953815      0.85266952    -323.29079     -615.62087     -675.132      
    199000   398000         297.52365     -153.08539      3868.9517      4164.3036      4291.5228     -127.21911      1414.0968      1445.4909      2679.4629      0             -5666.2697      0              0             -188.45243      132290.94      50.953815      50.953815      50.953815      0.85266952     205.01644     -315.97957     -348.29305    
    200000   400000         293.83961      427.71597      5001.7839      4176.5796      4238.3837     -61.804078      1444.5598      1499.8364      2641.3225      0             -5647.5228      0              0             -188.45243      132290.94      50.953815      50.953815      50.953815      0.85266952     538.73024      268.93534      475.48234    
    201000   402000         303.25021     -701.87403      2923.4379      4277.583       4374.1234     -96.5404        1510.871       1430.8468      2654.0942      0             -5692.3523      0              0             -188.45243      132290.94      50.953815      50.953815      50.953815      0.85266952    -1086.6724     -656.98311     -361.96655    
[...]
    958000   1916000        300.92277      285.95389      4834.637       4282.9382      4340.5522     -57.613946      1442.4138      1445.9744      2691.9737      0             -5637.9758      0              0             -188.45243      132290.94      50.953815      50.953815      50.953815      0.85266952     183.39472      393.77125      280.69571    
    959000   1918000        305.74694      665.9271       5717.7743      4432.9827      4410.1366      22.846058      1439.6893      1449.4709      2756.2131      0             -5622.5273      0              0             -188.45243      132290.94      50.953815      50.953815      50.953815      0.85266952     104.06589      1165.3482      728.36716    
    960000   1920000        301.90254      188.55381      4560.4163      4196.6342      4354.6845     -158.05027      1413.7953      1408.023       2661.8145      0             -5641.683       0              0             -188.45243      132290.94      50.953815      50.953815      50.953815      0.85266952    -112.57587      316.47317      361.76413    
    961000   1922000        297.86056      380.12346      4886.379       4152.9963      4296.3824     -143.38608      1384.0144      1424.1297      2676.7653      0             -5628.2955      0              0             -188.45243      132290.94      50.953815      50.953815      50.953815      0.85266952    -205.67582      625.34483      720.70138    
    962000   1924000        301.83969      52.657356      4362.988       4261.3947      4353.7778     -92.383163      1453.4011      1436.3493      2675.2067      0             -5657.3403      0              0             -188.45243      132290.94      50.953815      50.953815      50.953815      0.85266952    -95.006968      167.01173      85.96731     
    963000   1926000        303.35906      152.10912      4590.9593      4297.491       4375.6935     -78.202511      1424.9776      1462.8466      2682.8519      0             -5648.8786      0              0             -188.45243      132290.94      50.953815      50.953815      50.953815      0.85266952    -38.550095      784.11496     -289.23751    
    964000   1928000        297.49406     -822.54942      2744.2813      4331.2487      4291.0959      40.152851      1455.9546      1483.7137      2757.2827      0             -5656.7981      0              0             -188.45243      132290.94      50.953815      50.953815      50.953815      0.85266952    -650.42954     -742.1796      -1075.0391    
    965000   1930000        300.76453      125.52143      4560.9174      4318.7454      4338.2696     -19.524194      1449.3733      1482.5732      2701.9806      0             -5653.4513      0              0             -188.45243      132290.94      50.953815      50.953815      50.953815      0.85266952    -118.45092     -3.821617       498.83682    
    966000   1932000        299.91392      589.84705      5523.5281      4385.5198      4326.0003      59.519518      1470.1848      1497.7189      2726.0924      0             -5634.4766      0              0             -188.45243      132290.94      50.953815      50.953815      50.953815      0.85266952     516.05087      674.88757      578.6027     
    967000   1934000        304.14499      236.05004      4808.1395      4352.7216      4387.0299     -34.308274      1432.0365      1489.462       2672.2077      0             -5628.0145      0              0             -188.45243      132290.94      50.953815      50.953815      50.953815      0.85266952    -11.561183      191.58909      528.12222    
    968000   1936000        299.71025      476.69378      5182.7695      4263.0709      4323.0626     -59.991673      1449.1619      1449.0699      2699.7096      0             -5657.9332      0              0             -188.45243      132290.94      50.953815      50.953815      50.953815      0.85266952    -391.039        716.95331      1104.167     
    969000   1938000        303.22468      122.2711       4510.4754      4274.5744      4373.7551     -99.180719      1450.5794      1458.1203      2693.5418      0             -5701.4221      0              0             -188.45243      132290.94      50.953815      50.953815      50.953815      0.85266952    -352.86507      582.60239      137.07598    
    970000   1940000        297.61778      74.932889      4416.7668      4272.1967      4292.8804     -20.683683      1521.0356      1468.2124      2637.3299      0             -5647.2616      0              0             -188.45243      132290.94      50.953815      50.953815      50.953815      0.85266952    -176.45295      200.80657      200.44504    
    971000   1942000        299.95683     -286.80721      3765.6288      4318.9739      4326.6192     -7.6453159      1471.0726      1457.9108      2703.3964      0             -5640.0251      0              0             -188.45243      132290.94      50.953815      50.953815      50.953815      0.85266952    -473.5998      -356.20856     -30.613262    
    972000   1944000        297.10416      248.92138      4740.2543      4260.0034      4285.472      -25.468552      1468.8583      1425.9016      2722.9183      0             -5643.1468      0              0             -188.45243      132290.94      50.953815      50.953815      50.953815      0.85266952     576.56011      174.89379     -4.6897614    
    973000   1946000        302.22458      262.85065      4804.6852      4297.5602      4359.3296     -61.769427      1468.0261      1434.3503      2684.773       0             -5648.9189      0              0             -188.45243      132290.94      50.953815      50.953815      50.953815      0.85266952    -72.839428      743.68921      117.70216    
    974000   1948000        299.6921       169.42814      4500.2787      4173.3963      4322.8007     -149.40443      1417.1468      1391.8508      2685.7842      0             -5644.1863      0              0             -188.45243      132290.94      50.953815      50.953815      50.953815      0.85266952     615.7796       419.05698     -526.55217    
    975000   1950000        298.09552     -228.14444      3848.0076      4288.173       4299.7714     -11.598445      1426.7779      1473.3234      2730.8564      0             -5642.5562      0              0             -188.45243      132290.94      50.953815      50.953815      50.953815      0.85266952    -556.18408      157.78229     -286.03153    
    976000   1952000        297.24169     -744.17717      2863.6558      4299.4175      4287.4556      11.961837      1455.946       1468.4228      2703.46        0             -5615.8669      0              0             -188.45243      132290.94      50.953815      50.953815      50.953815      0.85266952    -575.42271     -638.85542     -1018.2534    
    977000   1954000        303.04619      141.94362      4649.2399      4375.3841      4371.1806      4.2035133      1478.225       1496.2406      2672.0887      0             -5642.3507      0              0             -188.45243      132290.94      50.953815      50.953815      50.953815      0.85266952     328.45358     -465.31808      562.69536    
    978000   1956000        298.43745     -484.65466      3336.0283      4271.086       4304.7035     -33.617515      1463.8764      1461.8797      2713.022       0             -5672.3956      0              0             -188.45243      132290.94      50.953815      50.953815      50.953815      0.85266952    -398.20012     -13.3893       -1042.3746    
    979000   1958000        299.26137      264.83744      4712.7498      4201.7916      4316.5878     -114.79621      1478.9201      1421.0895      2654.7585      0             -5669.5643      0              0             -188.45243      132290.94      50.953815      50.953815      50.953815      0.85266952     466.51503      78.414869      249.58243    
    980000   1960000        295.62575     -53.456867      3971.8337      4074.9695      4264.1472     -189.1776       1412.3444      1431.0332      2635.1127      0             -5667.6679      0              0             -188.45243      132290.94      50.953815      50.953815      50.953815      0.85266952    -311.20664      131.94039      18.895654    
    981000   1962000        301.28039     -314.83481      3810.2609      4417.6804      4345.7105      71.969952      1508.2921      1452.7896      2773.669       0             -5662.7808      0              0             -188.45243      132290.94      50.953815      50.953815      50.953815      0.85266952    -595.24281     -835.50312      486.2415     
    982000   1964000        301.55298      369.39686      4862.4746      4149.787       4349.6423     -199.85532      1395.9616      1415.3182      2649.0094      0             -5660.1445      0              0             -188.45243      132290.94      50.953815      50.953815      50.953815      0.85266952     724.85112     -91.061231      474.4007     
    983000   1966000        296.23194      105.98933      4457.0829      4252.5947      4272.8909     -20.296231      1472.3411      1419.9413      2723.3723      0             -5635.9509      0              0             -188.45243      132290.94      50.953815      50.953815      50.953815      0.85266952     50.779545      498.57801     -231.38957    
    984000   1968000        298.95034      28.967702      4440.2035      4384.3153      4312.1015      72.213844      1517.8717      1403.7268      2784.0502      0             -5633.4348      0              0             -188.45243      132290.94      50.953815      50.953815      50.953815      0.85266952    -177.7466       211.00739      53.642321    
    985000   1970000        291.82295      60.071491      4324.0318      4208.1342      4209.2951     -1.1608207      1485.0566      1444.7618      2733.3811      0             -5664.3603      0              0             -188.45243      132290.94      50.953815      50.953815      50.953815      0.85266952     264.96905      51.628641     -136.38321    
    986000   1972000        295.33219      174.30451      4606.4749      4270.1843      4259.9128      10.271566      1464.0042      1424.4817      2781.4782      0             -5659.6926      0              0             -188.45243      132290.94      50.953815      50.953815      50.953815      0.85266952     30.977334      532.364       -40.427794    
    987000   1974000        299.48823     -313.2446       3604.3347      4208.6862      4319.8602     -111.17397      1423.4207      1431.3609      2682.1341      0             -5648.0897      0              0             -188.45243      132290.94      50.953815      50.953815      50.953815      0.85266952    -120.81812     -742.00082     -76.914874    
    988000   1976000        299.30429     -246.73646      3795.5334      4271.5689      4317.2069     -45.638017      1462.5963      1436.5442      2717.5716      0             -5662.3501      0              0             -188.45243      132290.94      50.953815      50.953815      50.953815      0.85266952    -798.85674      358.4895      -299.84215    
    989000   1978000        292.35567     -150.68671      3914.851       4205.575       4216.979      -11.403996      1458.308       1442.2137      2746.0122      0             -5657.9379      0              0             -188.45243      132290.94      50.953815      50.953815      50.953815      0.85266952    -544.29741     -193.00112      285.23841    
    990000   1980000        296.92423      278.73738      4800.7099      4262.9342      4282.8766     -19.94247       1494.1335      1451.4688      2691.095       0             -5656.6398      0              0             -188.45243      132290.94      50.953815      50.953815      50.953815      0.85266952    -253.05298      296.4306       792.83451    
    991000   1982000        299.76148      151.80996      4592.5873      4299.6962      4323.8015     -24.105287      1484.6228      1446.699       2732.7302      0             -5688.1573      0              0             -188.45243      132290.94      50.953815      50.953815      50.953815      0.85266952     557.71414      141.99668     -244.28095    
    992000   1984000        300.76427      111.12386      4569.8449      4355.4505      4338.2659      17.184629      1475.2956      1399.9905      2782.5623      0             -5640.6637      0              0             -188.45243      132290.94      50.953815      50.953815      50.953815      0.85266952    -214.6165       93.788274      454.19979    
    993000   1986000        299.24741      208.27819      4746.2388      4344.4019      4316.3865      28.015426      1499.3634      1487.3247      2699.3456      0             -5658.0183      0              0             -188.45243      132290.94      50.953815      50.953815      50.953815      0.85266952     697.45378     -747.94899      675.32979    
    994000   1988000        300.88528     -150.26313      4039.2317      4329.1386      4340.0114     -10.87281       1447.0341      1481.5774      2720.4041      0             -5659.8884      0              0             -188.45243      132290.94      50.953815      50.953815      50.953815      0.85266952     312.99771     -635.90337     -127.88371    
    995000   1990000        304.1119       71.632638      4498.7504      4360.5476      4386.5525     -26.004931      1453.7127      1461.5307      2698.9808      0             -5640.2291      0              0             -188.45243      132290.94      50.953815      50.953815      50.953815      0.85266952     3.2823626     -167.25649      378.87204    
    996000   1992000        297.1352      -85.180462      4177.3668      4341.7078      4285.9197      55.788121      1471.9375      1463.3116      2775.9048      0             -5655.3658      0              0             -188.45243      132290.94      50.953815      50.953815      50.953815      0.85266952    -224.7957      -54.500155      23.754473    
    997000   1994000        296.88573     -168.56846      3962.5048      4287.7286      4282.3212      5.4073796      1437.9668      1457.308       2768.2924      0             -5658.1598      0              0             -188.45243      132290.94      50.953815      50.953815      50.953815      0.85266952    -81.748996     -180.53501     -243.42136    
    998000   1996000        301.60519     -203.3994       3875.0707      4267.4948      4350.3955     -82.900702      1450.0781      1428.8358      2675.0644      0             -5636.8789      0              0             -188.45243      132290.94      50.953815      50.953815      50.953815      0.85266952     287.91123     -49.665191     -848.44425    
    999000   1998000        295.16684     -691.17614      2858.0844      4191.5897      4257.5278     -65.938071      1423.1134      1446.9152      2742.6927      0             -5678.6594      0              0             -188.45243      132290.94      50.953815      50.953815      50.953815      0.85266952    -762.20632     -673.55377     -637.76833    
   1000000   2000000        295.8834       11.581664      4232.9627      4210.6179      4267.8635     -57.245652      1438.0788      1453.2461      2705.2158      0             -5653.7864      0              0             -188.45243      132290.94      50.953815      50.953815      50.953815      0.85266952    -101.75483      142.07142     -5.5715899    
Loop time of 632.156 on 1 procs for 1000000 steps with 4840 atoms

Performance: 273.350 ns/day, 0.088 hours/ns, 1581.887 timesteps/s, 7.656 Matom-step/s
99.4% CPU use with 1 MPI tasks x 1 OpenMP threads

MPI task timing breakdown:
Section |  min time  |  avg time  |  max time  |%varavg| %total
---------------------------------------------------------------
Pair    | 74.509     | 74.509     | 74.509     |   0.0 | 11.79
Bond    | 447.46     | 447.46     | 447.46     |   0.0 | 70.78
Neigh   | 0.15365    | 0.15365    | 0.15365    |   0.0 |  0.02
Comm    | 52.002     | 52.002     | 52.002     |   0.0 |  8.23
Output  | 7.2829     | 7.2829     | 7.2829     |   0.0 |  1.15
Modify  | 36.163     | 36.163     | 36.163     |   0.0 |  5.72
Other   |            | 14.58      |            |       |  2.31

Nlocal:           4840 ave        4840 max        4840 min
Histogram: 1 0 0 0 0 0 0 0 0 0
Nghost:          16072 ave       16072 max       16072 min
Histogram: 1 0 0 0 0 0 0 0 0 0
Neighs:              0 ave           0 max           0 min
Histogram: 1 0 0 0 0 0 0 0 0 0

Total # of neighbors = 0
Ave neighs/atom = 0
Ave special neighs/atom = 5.9504132
Neighbor list builds = 26249
Dangerous builds = 0

# --- Cleanup ---
unfix nvt_fix

undump dump_nvt

# --- Write Output ---
write_dump all custom nvt_production_last.dump id type mol x y z xu yu zu vx vy vz modify sort id
write_data /home/alexzhao/PolyJarvis/data/PE4/lammps/equil/nvt_production/nvt_production_out.data
System init for write_data ...
Generated 1 of 1 mixed pair_coeff terms from arithmetic mixing rule

print "STAGE COMPLETE: NVT T=300.0->300.0K steps=1000000"
STAGE COMPLETE: NVT T=300.0->300.0K steps=1000000
quit
8
Neigh   | 0.15365    | 0.15365    | 0.15365    |   0.0 |  0.02
Comm    | 52.002     | 52.002     | 52.002     |   0.0 |  8.23
Output  | 7.2829     | 7.2829     | 7.2829     |   0.0 |  1.15
Modify  | 36.163     | 36.163     | 36.163     |   0.0 |  5.72
Other   |            | 14.58      |            |       |  2.31

Nlocal:           4840 ave        4840 max        4840 min
Histogram: 1 0 0 0 0 0 0 0 0 0
Nghost:          16072 ave       16072 max       16072 min
Histogram: 1 0 0 0 0 0 0 0 0 0
Neighs:              0 ave           0 max           0 min
Histogram: 1 0 0 0 0 0 0 0 0 0

Total # of neighbors = 0
Ave neighs/atom = 0
Ave special neighs/atom = 5.9504132
Neighbor list builds = 26249
Dangerous builds = 0
System init for write_data ...


---------------------------------------------------------------------
      Device Time Info (average): 
---------------------------------------------------------------------
Data Transfer:   33.4502 s.
Neighbor copy:   1.9829 s.
Neighbor build:  11.4783 s.
Force calc:      80.2985 s.
Device Overhead: 39.9584 s.
CPU Neighbor:    4.9893 s.
CPU Cast/Pack:   26.9866 s.
CPU Driver_Time: 17.8918 s.
CPU Idle_Time:   1.9970 s.
Average split:   1.0000.
Max Mem / Proc:  53.83 MB.
Prefetch mode:   None.
Vector width:    32.
Lanes / atom:    4.
Pair block:      256.
Neigh block:     128.
Neigh mode:      Hybrid (binning on host) with subgroup support.
Neigh sorting:   Unavailable or disabled.
---------------------------------------------------------------------


--------------------------------------------------------------------------
- Using acceleration for lj/cut:
-  with 1 proc(s) per device.
-  with 1 thread(s) per proc.
-  Horizontal vector operations: ENABLED
-  Shared memory system: No
--------------------------------------------------------------------------
Device 0: NVIDIA A800 40GB Active, 108 CUs, 39/39 GB, 1.4 GHZ (Mixed Precision)
--------------------------------------------------------------------------

Initializing Device and compiling on process 0...Done.
Initializing Device 0 on core 0...Done.

Generated 1 of 1 mixed pair_coeff terms from arithmetic mixing rule
STAGE COMPLETE: NVT T=300.0->300.0K steps=1000000
Cuda driver error 4 in call at file '/home/alexzhao/lammps/lib/gpu/geryon/nvd_timer.h' in line 98.
Cuda driver error 4 in call at file '/home/alexzhao/lammps/lib/gpu/geryon/nvd_timer.h' in line 99.
Cuda driver error 4 in call at file '/home/alexzhao/lammps/lib/gpu/geryon/nvd_timer.h' in line 98.
Cuda driver error 4 in call at file '/home/alexzhao/lammps/lib/gpu/geryon/nvd_timer.h' in line 99.
Cuda driver error 4 in call at file '/home/alexzhao/lammps/lib/gpu/geryon/nvd_timer.h' in line 98.
Cuda driver error 4 in call at file '/home/alexzhao/lammps/lib/gpu/geryon/nvd_timer.h' in line 99.
