LAMMPS (22 Jul 2025 - Update 3)
OMP_NUM_THREADS environment is not set. Defaulting to 1 thread.
  using 1 OpenMP thread(s) per MPI task
Reading data file ...
  orthogonal box = (0 0 0) to (42.324459 42.324459 42.324459)
  2 by 2 by 2 MPI processor grid
  reading atoms ...
  4020 atoms
  scanning bonds ...
  4 = max bonds/atom
  scanning angles ...
  6 = max angles/atom
  scanning dihedrals ...
  11 = max dihedrals/atom
  scanning impropers ...
  4 = max impropers/atom
  orthogonal box = (0 0 0) to (42.324459 42.324459 42.324459)
  2 by 2 by 2 MPI processor grid
  reading bonds ...
  4010 bonds
  reading angles ...
  7600 angles
  reading dihedrals ...
  9570 dihedrals
  reading impropers ...
  4800 impropers
Finding 1-2 1-3 1-4 neighbors ...
  special bond factors lj:    0        0        1       
  special bond factors coul:  0        0        1       
     4 = max # of 1-2 neighbors
     7 = max # of 1-3 neighbors
    11 = max # of special neighbors
  special bonds CPU = 0.000 seconds
  read_data CPU = 0.081 seconds

CITE-CITE-CITE-CITE-CITE-CITE-CITE-CITE-CITE-CITE-CITE-CITE-CITE

Your simulation uses code contributions which should be cited:
- GPU package (short-range, long-range and three-body potentials): doi:10.1016/j.cpc.2010.12.021, doi:10.1016/j.cpc.2011.10.012, doi:10.1016/j.cpc.2013.08.002, doi:10.1016/j.commatsci.2014.10.068, doi:10.1016/j.cpc.2016.10.020, doi:10.3233/APC200086
The log file lists these citations in BibTeX format.

CITE-CITE-CITE-CITE-CITE-CITE-CITE-CITE-CITE-CITE-CITE-CITE-CITE

PPPM initialization ...
  using 12-bit tables for long-range coulomb
  G vector (1/distance) = 0.28087215
  grid = 24 24 24
  stencil order = 5
  estimated absolute RMS force accuracy = 0.00034737707
  estimated relative force accuracy = 1.0461157e-06
  using double precision KISS FFT
  3d grid and FFT values/proc = 6859 1728

--------------------------------------------------------------------------
- Using acceleration for pppm:
-  with 8 proc(s) per device.
-  with 1 thread(s) per proc.
-  Horizontal vector operations: ENABLED
-  Shared memory system: No
--------------------------------------------------------------------------
Device 0: NVIDIA A800 40GB Active, 108 CUs, 36/39 GB, 1.4 GHZ (Mixed Precision)
--------------------------------------------------------------------------

Initializing Device and compiling on process 0...Done.
Initializing Device 0 on core 0...Done.
Initializing Device 0 on core 1...Done.
Initializing Device 0 on core 2...Done.
Initializing Device 0 on core 3...Done.
Initializing Device 0 on core 4...Done.
Initializing Device 0 on core 5...Done.
Initializing Device 0 on core 6...Done.
Initializing Device 0 on core 7...Done.


--------------------------------------------------------------------------
- Using acceleration for lj/class2/coul/long:
-  with 8 proc(s) per device.
-  with 1 thread(s) per proc.
-  Horizontal vector operations: ENABLED
-  Shared memory system: No
--------------------------------------------------------------------------
Device 0: NVIDIA A800 40GB Active, 108 CUs, 36/39 GB, 1.4 GHZ (Mixed Precision)
--------------------------------------------------------------------------

Initializing Device and compiling on process 0...Done.
Initializing Device 0 on core 0...Done.
Initializing Device 0 on core 1...Done.
Initializing Device 0 on core 2...Done.
Initializing Device 0 on core 3...Done.
Initializing Device 0 on core 4...Done.
Initializing Device 0 on core 5...Done.
Initializing Device 0 on core 6...Done.
Initializing Device 0 on core 7...Done.

Generated 15 of 15 mixed pair_coeff terms from sixthpower/sixthpower mixing rule
Neighbor list info ...
  update: every = 1 steps, delay = 0 steps, check = yes
  max neighbors/atom: 4000, page size: 100000
  master list distance cutoff = 11.5
  ghost atom cutoff = 11.5
  binsize = 5.75, bins = 8 8 8
  1 neighbor lists, perpetual/occasional/extra = 1 0 0
  (1) pair lj/class2/coul/long/gpu, perpetual
      attributes: full, newton on
      pair build: full/bin
      stencil: full/bin/3d
      bin: standard
Setting up cg style minimization ...
  Unit style    : real
  Current step  : 0
Per MPI rank memory allocation (min/avg/max) = 16.83 | 17.1 | 17.62 Mbytes
   Step          Time           Temp          Press          TotEng         PotEng         E_bond        E_angle        E_dihed        E_impro         E_vdwl         E_coul         E_long         Volume           Lx             Ly             Lz          Density    
         0   0              0              7365.1571     -1509.1973     -1509.1973      1421.1645      3023.6218     -6471.2889      15.161822      1222.0339      532.47414     -1252.3646      75818.337      42.324459      42.324459      42.324459      0.64999999   
       500   500            0             -475.70707     -7638.512      -7638.512       66.345213      609.56629     -7017.3969      4.9873327     -579.2175       532.19078     -1254.9873      75818.337      42.324459      42.324459      42.324459      0.64999999   
      1000   1000           0             -410.07956     -7746.3573     -7746.3573      62.130369      587.50002     -7023.0968      4.4464943     -649.79277      529.03935     -1256.584       75818.337      42.324459      42.324459      42.324459      0.64999999   
      1500   1500           0             -426.32332     -7785.2351     -7785.2351      59.151547      576.61364     -7025.1212      4.5431473     -672.49598      528.69181     -1256.618       75818.337      42.324459      42.324459      42.324459      0.64999999   
      2000   2000           0             -482.47946     -7826.9755     -7826.9755      60.352258      572.81602     -7032.5853      4.5544823     -703.40219      528.81615     -1257.527       75818.337      42.324459      42.324459      42.324459      0.64999999   
      2500   2500           0             -507.39415     -7857.6332     -7857.6332      61.117122      581.96847     -7042.9071      4.4159965     -729.56099      527.13714     -1259.8038      75818.337      42.324459      42.324459      42.324459      0.64999999   
      3000   3000           0             -536.24102     -7877.6052     -7877.6052      59.581346      579.79148     -7046.7727      4.336908      -744.7477       530.15134     -1259.9458      75818.337      42.324459      42.324459      42.324459      0.64999999   
      3074   3074           0             -571.73039     -7879.0728     -7879.0728      60.169886      583.11989     -7050.4284      4.4151381     -747.13875      530.61871     -1259.8292      75818.337      42.324459      42.324459      42.324459      0.64999999   
Loop time of 32.9673 on 8 procs for 3074 steps with 4020 atoms

96.5% CPU use with 8 MPI tasks x 1 OpenMP threads

Minimization stats:
  Stopping criterion = energy tolerance
  Energy initial, next-to-last, final = 
     -1509.19733343554  -7879.06721731007  -7879.07276241032
  Force two-norm initial, final = 2014.418 4.0453249
  Force max component initial, final = 125.18873 0.67625253
  Final line search alpha, max atom move = 0.019637674 0.013280027
  Iterations, force evaluations = 3074 6148

MPI task timing breakdown:
Section |  min time  |  avg time  |  max time  |%varavg| %total
---------------------------------------------------------------
Pair    | 10.606     | 12.896     | 15.832     |  45.5 | 39.12
Bond    | 1.9628     | 2.8568     | 3.6234     |  36.7 |  8.67
Kspace  | 11.181     | 11.993     | 12.856     |  17.8 | 36.38
Neigh   | 0.29786    | 0.29911    | 0.3014     |   0.3 |  0.91
Comm    | 0.58572    | 0.71776    | 0.81726    |   8.7 |  2.18
Output  | 0.0018682  | 0.0021081  | 0.0023786  |   0.3 |  0.01
Modify  | 0.00030209 | 0.00038222 | 0.00045589 |   0.0 |  0.00
Other   |            | 4.201      |            |       | 12.74

Nlocal:          502.5 ave         656 max         328 min
Histogram: 2 1 0 0 1 0 0 1 1 2
Nghost:        4044.25 ave        4323 max        3764 min
Histogram: 1 1 0 2 1 0 0 1 0 2
Neighs:              0 ave           0 max           0 min
Histogram: 8 0 0 0 0 0 0 0 0 0
FullNghs:       205634 ave      292536 max      114028 min
Histogram: 2 1 0 1 0 0 0 1 1 2

Total # of neighbors = 1645074
Ave neighs/atom = 409.22239
Ave special neighs/atom = 5.7761194
Neighbor list builds = 62
Dangerous builds = 0
System init for write_data ...
PPPM initialization ...
  using 12-bit tables for long-range coulomb
  G vector (1/distance) = 0.28087215
  grid = 24 24 24
  stencil order = 5
  estimated absolute RMS force accuracy = 0.00034737707
  estimated relative force accuracy = 1.0461157e-06
  using double precision KISS FFT
  3d grid and FFT values/proc = 6859 1728


---------------------------------------------------------------------
    Device Time Info (average) for kspace: 
---------------------------------------------------------------------
CPU Poisson:     7.9874 s.
CPU Data Cast:   0.0077 s.
CPU Idle Time:   3.8566 s.
Max Mem / Proc:  1.46 MB.
---------------------------------------------------------------------


--------------------------------------------------------------------------
- Using acceleration for pppm:
-  with 8 proc(s) per device.
-  with 1 thread(s) per proc.
-  Horizontal vector operations: ENABLED
-  Shared memory system: No
--------------------------------------------------------------------------
Device 0: NVIDIA A800 40GB Active, 108 CUs, 36/39 GB, 1.4 GHZ (Mixed Precision)
--------------------------------------------------------------------------

Initializing Device and compiling on process 0...Done.
Initializing Device 0 on core 0...Done.
Initializing Device 0 on core 1...Done.
Initializing Device 0 on core 2...Done.
Initializing Device 0 on core 3...Done.
Initializing Device 0 on core 4...Done.
Initializing Device 0 on core 5...Done.
Initializing Device 0 on core 6...Done.
Initializing Device 0 on core 7...Done.



---------------------------------------------------------------------
      Device Time Info (average): 
---------------------------------------------------------------------
CPU Cast/Pack:   0.0120 s.
CPU Driver_Time: 0.0692 s.
CPU Idle_Time:   2.5867 s.
Average split:   1.0000.
Max Mem / Proc:  3.07 MB.
Prefetch mode:   None.
Vector width:    32.
Lanes / atom:    8.
Pair block:      256.
Neigh block:     128.
Neigh mode:      Host.
---------------------------------------------------------------------


--------------------------------------------------------------------------
- Using acceleration for lj/class2/coul/long:
-  with 8 proc(s) per device.
-  with 1 thread(s) per proc.
-  Horizontal vector operations: ENABLED
-  Shared memory system: No
--------------------------------------------------------------------------
Device 0: NVIDIA A800 40GB Active, 108 CUs, 36/39 GB, 1.4 GHZ (Mixed Precision)
--------------------------------------------------------------------------

Initializing Device and compiling on process 0...Done.
Initializing Device 0 on core 0...Done.
Initializing Device 0 on core 1...Done.
Initializing Device 0 on core 2...Done.
Initializing Device 0 on core 3...Done.
Initializing Device 0 on core 4...Done.
Initializing Device 0 on core 5...Done.
Initializing Device 0 on core 6...Done.
Initializing Device 0 on core 7...Done.

Generated 15 of 15 mixed pair_coeff terms from sixthpower/sixthpower mixing rule
STAGE COMPLETE: minimization
