LAMMPS data file via write_data, version 22 Jul 2025, timestep = 0, units = real

4020 atoms
6 atom types
4010 bonds
7 bond types
7600 angles
12 angle types
9570 dihedrals
14 dihedral types
4800 impropers
11 improper types

0 42.32445924 xlo xhi
0 42.32445924 ylo yhi
0 42.32445924 zlo zhi

Masses

1 12.01115
2 12.01115
3 1.00797
4 1.00797
5 32.064
6 32.064

Pair Coeffs # lj/class2/coul/long/gpu

1 0.054 4.01
2 0.054 4.01
3 0.02 2.995
4 0.02 2.995
5 0.071 4.027
6 0.071 4.027

Bond Coeffs # class2

1 1.53 299.67 -501.77 679.81
2 1.101 345 -691.89 844.6
3 1.823 225.277 -327.706 488.972
4 1.101 345 -691.89 844.6
5 1.823 225.277 -327.706 488.972
6 1.823 225.277 -327.706 488.972
7 1.3261 275.112 -531.318 562.963

Angle Coeffs # class2

1 112.67 39.516 -7.443 -9.5583
2 110.77 41.453 -10.604 5.129
3 112.564 47.0276 -10.679 -10.1687
4 112.564 47.0276 -10.679 -10.1687
5 97.5 57.6938 -5.0559 -11.8206
6 110.77 41.453 -10.604 5.129
7 112.564 47.0276 -10.679 -10.1687
8 96.8479 56.7336 14.2713 0
9 107.66 39.641 -12.921 -2.4318
10 107.852 51.4949 -13.527 7.026
11 107.852 51.4949 -13.527 7.026
12 107.852 51.4949 -13.527 7.026

BondBond Coeffs

1 0 1.53 1.53
2 3.3872 1.53 1.101
3 10.9186 1.53 1.823
4 10.9186 1.53 1.823
5 -22.3144 1.823 1.823
6 3.3872 1.53 1.101
7 10.9186 1.53 1.823
8 -0.57 1.823 1.3261
9 5.3316 1.101 1.101
10 7.0463 1.101 1.823
11 7.0463 1.101 1.823
12 7.0463 1.101 1.823

BondAngle Coeffs

1 8.016 8.016 1.53 1.53
2 20.754 11.421 1.53 1.101
3 -3.5621 22.3865 1.53 1.823
4 -3.5621 22.3865 1.53 1.823
5 -13.0015 -13.0015 1.823 1.823
6 20.754 11.421 1.53 1.101
7 -3.5621 22.3865 1.53 1.823
8 10.7325 5.1221 1.823 1.3261
9 18.103 18.103 1.101 1.101
10 9.3225 44.9874 1.101 1.823
11 9.3225 44.9874 1.101 1.823
12 9.3225 44.9874 1.101 1.823

Dihedral Coeffs # class2

1 0 0 0.0316 0 -0.1681 0
2 -0.7017 0 0.0201 0 0.104 0
3 -0.4871 0 -0.4514 0 -0.1428 0
4 -0.5073 0 0.0155 0 -0.0671 0
5 -0.3338 0 -0.0684 0 -0.1706 0
6 -0.5073 0 0.0155 0 -0.0671 0
7 -0.3338 0 -0.0684 0 -0.1706 0
8 -0.1432 0 0.0617 0 -0.1083 0
9 -0.2078 0 -0.106 0 -0.3595 0
10 -0.2078 0 -0.106 0 -0.3595 0
11 -0.2078 0 -0.106 0 -0.3595 0
12 -0.5374 0 -0.5091 0 -0.1361 0
13 -1.2002 0 -1.2999 0 -0.1626 0
14 -1.2002 0 -1.2999 0 -0.1626 0

AngleAngleTorsion Coeffs

1 -16.164 112.67 110.77
2 -26.71 112.67 112.564
3 -28.1728 112.564 96.8479
4 -32.8949 112.564 97.5
5 -26.49 97.5 107.852
6 -32.8949 112.564 97.5
7 -26.49 97.5 107.852
8 -12.564 110.77 110.77
9 -13.1026 110.77 112.564
10 -13.1026 110.77 112.564
11 -13.1026 110.77 112.564
12 -18.6334 107.852 96.8479
13 -13.9674 112.564 112.564
14 -13.9674 112.564 112.564

EndBondTorsion Coeffs

1 0.2486 0.2422 -0.0925 0.0814 0.0591 0.2219 1.53 1.101
2 -0.1586 -0.7244 -0.2608 -0.7991 -0.959 0.5855 1.53 1.823
3 0.1026 0.0936 -0.0404 -0.3008 0.0606 0.4501 1.53 1.3261
4 -0.2542 -0.7984 -0.6525 -0.3047 -0.0109 -0.3763 1.53 1.823
5 0.2592 -0.0166 0.1306 -0.41 0.0668 0.4187 1.823 1.101
6 -0.2542 -0.7984 -0.6525 -0.3047 -0.0109 -0.3763 1.53 1.823
7 0.2592 -0.0166 0.1306 -0.41 0.0668 0.4187 1.823 1.101
8 0.213 0.312 0.0777 0.213 0.312 0.0777 1.101 1.101
9 -0.1526 -0.371 0.1048 1.0661 0.3298 0.425 1.101 1.823
10 -0.1526 -0.371 0.1048 1.0661 0.3298 0.425 1.101 1.823
11 -0.1526 -0.371 0.1048 1.0661 0.3298 0.425 1.101 1.823
12 0.4376 0.2001 -1.0696 0.2902 0.0695 0.1726 1.101 1.3261
13 -0.3252 0.5008 0.5191 -0.3252 0.5008 0.5191 1.823 1.823
14 -0.3252 0.5008 0.5191 -0.3252 0.5008 0.5191 1.823 1.823

MiddleBondTorsion Coeffs

1 -14.879 -3.6581 -0.3138 1.53
2 -4.2593 -5.6468 -3.3835 1.53
3 0.502 -1.0204 -0.9177 1.823
4 -2.5172 -2.0107 -2.8547 1.823
5 -0.6955 -2.9427 -1.2372 1.823
6 -2.5172 -2.0107 -2.8547 1.823
7 -0.6955 -2.9427 -1.2372 1.823
8 -14.261 -0.5322 -0.4864 1.53
9 -5.7537 -2.0104 0.2813 1.53
10 -5.7537 -2.0104 0.2813 1.53
11 -5.7537 -2.0104 0.2813 1.53
12 -0.3729 0.5373 -0.7035 1.823
13 1.7001 -3.3479 -0.8067 1.53
14 1.7001 -3.3479 -0.8067 1.53

BondBond13 Coeffs

1 0 1.53 1.101
2 0 1.53 1.823
3 0 1.53 1.3261
4 0 1.53 1.823
5 0 1.823 1.101
6 0 1.53 1.823
7 0 1.823 1.101
8 0 1.101 1.101
9 0 1.101 1.823
10 0 1.101 1.823
11 0 1.101 1.823
12 0 1.101 1.3261
13 0 1.823 1.823
14 0 1.823 1.823

AngleTorsion Coeffs

1 -0.2454 0 -0.1136 0.3113 0.4516 -0.1988 112.67 110.77
2 -2.0927 -0.1498 -1.7848 1.1179 0.3638 0.9423 112.67 112.564
3 -0.6045 3.8941 0.8885 1.0193 -0.6016 0.2097 112.564 96.8479
4 5.1289 2.0927 -2.4004 -4.5489 0.0886 0.6237 112.564 97.5
5 -1.0888 -0.2 -0.0909 0.5962 3.3479 0.2265 97.5 107.852
6 5.1289 2.0927 -2.4004 -4.5489 0.0886 0.6237 112.564 97.5
7 -1.0888 -0.2 -0.0909 0.5962 3.3479 0.2265 97.5 107.852
8 -0.8085 0.5569 -0.2466 -0.8085 0.5569 -0.2466 110.77 110.77
9 -2.0382 0.2102 -0.9023 0.3322 -0.0519 -0.3553 110.77 112.564
10 -2.0382 0.2102 -0.9023 0.3322 -0.0519 -0.3553 110.77 112.564
11 -2.0382 0.2102 -0.9023 0.3322 -0.0519 -0.3553 110.77 112.564
12 -2.2533 2.6948 -0.1723 1.434 -0.1915 -0.2611 107.852 96.8479
13 -5.0565 -0.6355 0.6015 -5.0565 -0.6355 0.6015 112.564 112.564
14 -5.0565 -0.6355 0.6015 -5.0565 -0.6355 0.6015 112.564 112.564

Improper Coeffs # class2

1 0 0
2 0 0
3 0 0
4 0 0
5 0 0
6 0 0
7 0 0
8 0 0
9 0 0
10 0 0
11 0 0

AngleAngle Coeffs

1 0.2738 -0.4825 0.2738 110.77 110.77 107.66
2 2.7985 -3.0031 -0.0668 110.77 112.564 107.852
3 -0.3157 -0.3157 -0.3157 107.66 107.66 107.66
4 0.5086 0.5086 -0.064 107.66 107.852 107.852
5 -1.3199 -1.3199 0.1184 112.67 110.77 110.77
6 -0.2564 -0.2564 -0.8766 112.67 112.564 112.564
7 -0.2564 -0.2564 -0.8766 112.67 112.564 112.564
8 2.7985 -3.0031 -0.0668 110.77 112.564 107.852
9 2.7985 -3.0031 -0.0668 110.77 112.564 107.852
10 -0.0668 -3.0031 2.7985 112.564 110.77 107.852
11 -0.0668 -3.0031 2.7985 112.564 110.77 107.852

Atoms # full

515 2 3 0.053 3.3015460538738184 4.723152758759819 0.5292726097881163 0 0 0
415 2 3 0.053 7.479697045888142 5.556646351508942 4.13892408424987 0 0 0
414 2 3 0.053 8.27635346936877 5.085823778181973 2.6205260220001674 0 0 0
406 2 2 0.012 10.163468403951581 4.978846708050266 4.8765285557909035 0 0 0
407 2 3 0.053 9.887496069410677 4.124797576570013 4.232074995405089 0 0 0
2892 8 3 0.053 7.419619482070524 3.0209706475281246 0.9169580281138601 0 0 1
419 2 3 0.053 5.9068704725228605 5.590023134264061 1.6346039200762406 0 0 0
2886 8 3 0.053 9.844556138767386 3.2343365817375345 0.9268866138886555 0 0 1
639 2 3 0.053 11.26929879060428 1.8923135873696053 3.989346269004283 -1 0 0
638 2 1 -0.159 10.793753538801218 0.9017672822770616 4.052894508147072 -1 0 0
641 2 3 0.053 9.703153952340202 1.0460447271198496 4.049586057162681 -1 0 0
640 2 3 0.053 11.055591418675995 0.34014275924077714 3.1405176440312745 -1 0 0
636 2 2 0.012 11.28083310842716 0.1421299207912461 5.294247384590528 -1 0 0
632 2 6 -0.13 13.911046525493012 1.1859913276088907 4.9326848394227545 -1 0 0
631 2 3 0.053 15.21007671077391 0.9148090999879684 2.2208062914873805 -1 0 0
626 2 2 0.012 15.345802648501847 0.22851791789838286 4.291205059927177 -1 0 0
2882 8 3 0.053 13.454359016866762 3.7605989925024588 2.2248452635944718 0 0 1
410 2 3 0.053 12.23614686693817 5.030025762678869 4.143748738784115 0 0 0
408 2 1 -0.159 11.682223738772288 4.949851862532029 5.0915262385783 0 0 0
409 2 3 0.053 11.978802257034292 4.005365241754048 5.577149920179917 0 0 0
2880 8 1 -0.159 12.678541757675948 3.2172549385789977 1.6589719556381686 0 0 1
2881 8 3 0.053 11.715281459529614 3.4293383089689846 2.145002336475698 0 0 1
2883 8 3 0.053 12.881741021136765 2.1388777867268916 1.754541094310225 0 0 1
2877 8 3 0.053 14.836973752793176 3.909179358599236 0.3508580164594886 0 0 1
622 2 6 -0.13 17.122031976831476 2.487744898780695 3.8853619588561337 -1 0 0
623 2 1 -0.041 16.700721259379634 0.8561526403550336 4.645211406975682 -1 0 0
625 2 3 0.053 16.771795550557467 1.0073750739089482 5.734827443541682 -1 0 0
620 2 3 0.053 16.92761623958814 2.7872275105100432 0.9446504659951991 -1 0 0
2878 8 2 0.012 12.706917329132132 3.649127464424166 0.18279856383215712 0 0 1
2879 8 3 0.053 12.469517950497316 4.726142457338029 0.11457645047943951 0 0 1
619 2 3 0.053 18.605763546135176 2.5161381474726303 0.42690194746266363 -1 0 0
617 2 3 0.053 17.974466426231455 0.9296625531971554 2.243476529955342 -1 0 0
616 2 2 0.012 18.2402089024355 1.9680448549980523 2.506265084182124 -1 0 0
621 2 3 0.053 18.21105661781264 3.9021772034159663 1.4815030876050705 -1 0 0
624 2 3 0.053 17.505268662824143 0.1513823267986961 4.374483115554576 -1 0 0
614 2 3 0.053 19.969305300930596 3.0502003585456534 3.253737177319123 -1 0 0
613 2 1 -0.041 19.741669830208544 2.0462330532426773 2.856551250245591 -1 0 0
615 2 3 0.053 20.312970309290773 1.9295502652148508 1.9188705402936228 -1 0 0
618 2 1 -0.159 17.97729496023007 2.846575917700371 1.2706051657480284 -1 0 0
612 2 6 -0.13 20.349006764423667 0.804607176850915 4.040657189651004 -1 0 0
511 2 3 0.053 1.9799479159740634 9.403082212582811 1.2105039445163952 0 0 0
2719 7 3 0.053 2.3999456382699185 9.181600136533486 5.4853339125630365 0 0 0
2716 7 2 0.012 0.6280660407607549 7.916942782245239 5.185441361643859 0 0 0
421 2 3 0.053 5.205540428978774 7.214859980053819 1.8365049130355489 0 0 0
2720 7 3 0.053 2.406401393913041 8.254977323686687 3.9638741321812296 0 0 0
2718 7 1 -0.159 1.7646904915720318 8.8071638656201 4.6689993039820274 0 0 0
2721 7 3 0.053 1.353910479012122 9.682305968937515 4.139744551079874 0 0 0
420 2 3 0.053 5.38802759107887 6.150113145222266 3.2473695750081384 0 0 0
512 2 6 -0.13 2.077657664916031 6.750387785618 0.1560270465042633 0 0 0
2714 7 3 0.053 0.35193801894967786 6.859585562367463 3.323957809056319 0 0 0
508 2 1 -0.159 2.0610189331079534 9.440286903539397 0.1122737820457352 0 0 0
507 2 3 0.053 3.900084383770008 8.337270904832724 0.024517473747458773 0 0 0
412 2 6 -0.13 9.674259058274687 6.503581513137737 3.987137043135214 0 0 0
413 2 1 -0.041 8.096003908147535 5.933001570705197 3.30352093359057 0 0 0
416 2 2 0.012 7.2705305582562545 7.0179745824745945 2.5790732241995507 0 0 0
423 2 1 -0.041 8.124916757539262 9.460619530512716 1.399847610781899 0 0 0
424 2 3 0.053 8.824506780128004 9.89972734864367 0.6708624687035974 0 0 0
425 2 3 0.053 8.573925575613481 9.58235634650674 2.4003881395886815 0 0 0
426 2 2 0.012 6.757664944071823 10.129491239321814 1.3088881554620866 0 0 0
427 2 3 0.053 6.044647995422757 9.59708696122104 1.9619844965589937 0 0 0
422 2 6 -0.13 8.059386483024664 7.667470510282731 1.0221142740948 0 0 0
417 2 3 0.053 7.170865053216745 7.8851776756551635 3.2548926944322223 0 0 0
418 2 1 -0.159 5.862088798400344 6.464046559046714 2.302410946320364 0 0 0
411 2 3 0.053 11.99693339065234 5.780923875564873 5.740643529184644 0 0 0
1746 5 3 0.053 15.471117579748237 5.906408666734102 4.977597248846678 1 1 0
1745 5 3 0.053 16.383145983136707 7.425842782490733 5.180352707287491 1 1 0
1744 5 1 -0.159 16.063993902679996 6.5026288207442935 5.689564941778777 1 1 0
790 2 3 0.053 2.991269223633271 11.64834287503519 3.9019732881525626 -1 -1 0
788 2 1 -0.159 3.2566150087731978 12.696535682385592 3.687267576571316 -1 -1 0
789 2 3 0.053 4.007494155934547 12.692486027188346 2.8826983816623457 -1 -1 0
441 2 3 0.053 5.443934260213181 14.251627371102897 1.9330883684537863 0 0 0
440 2 3 0.053 5.190634155394385 15.443482918688506 0.6468514436275751 0 0 0
792 2 6 -0.13 4.287056451353149 15.097344056777724 4.6453512301386874 -1 -1 0
793 2 1 -0.041 2.6786818868793763 15.844658389493782 4.258640295105766 -1 -1 0
795 2 3 0.053 2.3522031817320483 15.495929325343413 3.2636541997580553 -1 -1 0
185 1 3 0.053 1.5003350127288126 16.662017533905026 0.15952588377525223 1 1 1
791 2 3 0.053 2.3508820468257827 13.191859768116998 3.3080024424329086 -1 -1 0
783 2 1 -0.041 5.061292120293158 12.673889640253252 5.471019620534319 -1 -1 0
786 2 2 0.012 3.8038140235692492 13.366747626988168 4.955319607837364 -1 -1 0
794 2 3 0.053 1.9365274577138203 15.485890700866607 4.991034245157122 -1 -1 0
179 1 3 0.053 2.14714406121941 12.741526421165025 0.594969955627407 1 1 1
787 2 3 0.053 3.031158770266515 13.358540891285056 5.74313839411322 -1 -1 0
298 1 3 0.053 0.41808989270388497 12.245860030756448 4.745333837560298 1 1 1
3966 10 3 0.053 6.491497988224414 17.99535569532017 20.03645123156857 1 1 0
177 1 3 0.053 2.8990761560683733 14.245603268265711 0.048059425127988636 1 1 1
785 2 3 0.053 5.835257738918407 12.684581119188389 4.686430747122397 -1 -1 0
438 2 1 -0.159 5.948710429286576 14.80912370706405 1.1284617117615303 0 0 0
432 2 6 -0.13 6.829379760439907 11.800081398199843 2.0984483948052834 0 0 0
433 2 1 -0.041 7.616468006736285 12.927181785496911 0.8632559263105222 0 0 0
435 2 3 0.053 8.338635968553607 13.535203117385375 1.431438151656058 0 0 0
439 2 3 0.053 6.70010434301551 15.464872289294876 1.5944364476558073 0 0 0
1805 5 3 0.053 9.034659691741622 15.356178635939767 4.226525358319921 1 1 0
1802 5 2 0.012 7.6875684953805825 17.05809533458469 4.242194560445951 1 1 0
1803 5 3 0.053 6.8541925336995035 16.51092051881094 3.764329798467554 1 1 0
1804 5 1 -0.159 9.007897300312534 16.38765873999978 3.8365298310222435 1 1 0
1807 5 3 0.053 9.125490588301826 16.328037052436095 2.744191521703375 1 1 0
1806 5 3 0.053 9.875538007237424 16.927866983494614 4.246562360915891 1 1 0
436 2 2 0.012 6.6168198476786975 13.835123774886195 0.14895099330943806 0 0 0
434 2 3 0.053 8.192885558200357 12.313339576848339 0.15341632121621177 0 0 0
1817 5 3 0.053 5.303012072660144 19.835269713096064 0.9784517127395079 1 1 0
796 2 2 0.012 2.6840857804499803 17.378772526317007 4.2258691776582635 -1 -1 0
797 2 3 0.053 1.6613482739715182 17.684553699876286 3.937489968717126 -1 -1 0
798 2 1 -0.159 3.6539631819558527 17.9332312626267 3.1756173522834357 -1 -1 0
799 2 3 0.053 3.4659931266274118 17.446278687673384 2.2059813208651065 -1 -1 0
800 2 3 0.053 4.7009526689679015 17.741287422666456 3.453883409968813 -1 -1 0
801 2 3 0.053 3.530993203029255 19.018361048655724 3.0401962819188593 -1 -1 0
187 1 3 0.053 2.6398925646173663 18.944361903246413 0.2816301953950077 1 1 1
202 1 3 0.053 1.0946966433782308 20.11754530838493 2.936081536027146 1 1 1
192 1 3 0.053 0.4564803946926665 18.69524601504163 0.996889808105143 1 1 1
207 1 3 0.053 3.0929812657814817 21.113966334994743 4.3395542996562755 1 1 1
213 1 3 0.053 0.3594035317050492 20.00452416422917 5.1528558542237475 1 1 1
201 1 1 -0.041 1.0371567629055014 21.09426586761075 2.4313700138687 1 1 1
203 1 3 0.053 1.7766057787410587 21.077805258310985 1.6114418789239229 1 1 1
1808 5 6 -0.13 7.600603693816426 18.79904089881972 3.69340350977757 1 1 0
1810 5 3 0.053 6.90451054562748 17.957407543988847 1.5265912869701557 1 1 0
1811 5 3 0.053 8.658129866628332 18.248434531356587 1.5994340397732711 1 1 0
1809 5 1 -0.041 7.676405623800411 18.656785182989278 1.8876501572737479 1 1 0
1812 5 2 0.012 7.460445813687319 20.036781195375067 1.2636658387807154 1 1 0
1820 5 3 0.053 10.07836347469408 19.332702798340865 0.13989882885695087 1 1 0
1816 5 3 0.053 5.771782104417509 20.578627204414946 2.531284808050401 1 1 0
1813 5 3 0.053 8.147678185125878 20.76398443568608 1.7325360305424775 1 1 0
1814 5 1 -0.159 6.0173903534787465 20.5223169392402 1.4582521908407295 1 1 0
1821 5 3 0.053 9.911371929555225 21.100648757733317 0.1658293581586926 1 1 0
2741 7 3 0.053 0.512773947282128 2.2458296351583638 8.392746245263595 0 0 0
2736 7 2 0.012 1.8682124150110586 2.3092990969398537 10.107402524480115 0 0 0
2738 7 1 -0.159 1.3905249856651483 1.7042784542111458 8.78007226297751 0 0 0
2735 7 3 0.053 3.2515025822817827 3.696648708319391 9.235958827750807 0 0 0
1636 5 3 0.053 5.627716893486326 1.9073218381914787 11.122176631437513 1 1 0
2737 7 3 0.053 2.7316433679687067 1.7238112268657713 10.475714600082123 0 0 0
2733 7 1 -0.041 2.3823862743012145 3.745767837827024 9.916352782427799 0 0 0
2734 7 3 0.053 2.748659782631035 4.147720133913399 10.875476441336714 0 0 0
2739 7 3 0.053 2.191554961497962 1.7715408482082429 8.025257079859927 0 0 0
2732 7 6 -0.13 1.1757185793642735 4.901970653037455 9.1921083420679 0 0 0
2742 7 6 -0.13 0.5718426104434355 2.1867491850064527 11.399698831946315 0 0 0
2740 7 3 0.053 1.1139946261692877 0.6441032270609891 8.879781782279629 0 0 0
403 2 1 -0.159 9.438996131864604 4.860399038109414 6.223951872574221 0 0 0
405 2 3 0.053 8.345451929571428 4.809816268098533 6.1165759225155645 0 0 0
404 2 3 0.053 9.767314702885518 3.944291342283398 6.7414880964179105 0 0 0
644 2 3 0.053 8.655896188566956 1.4226598317166856 6.042119733047294 -1 0 0
650 2 3 0.053 6.533583191334374 0.265207101906611 7.782322024064001 -1 0 0
803 2 3 0.053 9.681018682924856 5.718422354066161 6.871328550926692 0 0 0
643 2 1 -0.041 9.103616695279536 0.8332946866396137 6.861690124221932 -1 0 0
648 2 1 -0.159 6.90658852657623 1.2720721743619805 8.023500880611337 -1 0 0
649 2 3 0.053 6.400278787516599 1.617985227350416 8.93726590849113 -1 0 0
975 3 1 -0.041 7.893519231287195 4.826778742818539 9.99574232923228 0 0 0
976 3 3 0.053 7.420509390158307 3.830494174664833 10.052576314333084 0 0 0
977 3 3 0.053 8.049846816515188 5.033631806301846 8.924761223638608 0 0 0
647 2 3 0.053 8.759567230983926 2.3186748459047157 8.39475889309342 -1 0 0
978 3 2 0.012 9.23032291635404 4.763072519100657 10.761625754834913 0 0 0
979 3 3 0.053 9.747526586657232 3.857972732139589 10.39095729155611 0 0 0
651 2 3 0.053 6.6060933793846655 1.9460557367261373 7.20350998966461 -1 0 0
646 2 2 0.012 8.436800723340026 1.2866937573683146 8.170178188039996 -1 0 0
652 2 6 -0.13 8.996712549097932 0.36558736277773296 9.670206075201856 -1 0 0
642 2 6 -0.13 10.901483767684988 1.0620669515477632 6.825530120415149 -1 0 0
1720 5 3 0.053 12.692219998405749 1.437159779829432 10.037337550478867 1 1 0
1729 5 1 -0.041 16.33579050743066 2.1963567365314782 9.52741077497393 1 1 0
1730 5 3 0.053 16.61567913321699 1.7573459243662413 8.555206611903582 1 1 0
1732 5 2 0.012 15.399762675114339 3.391216446327182 9.360534318272617 1 1 0
1733 5 3 0.053 14.476131484696536 3.065699550452661 8.851286579774083 1 1 0
1734 5 1 -0.159 15.05612395791843 4.036575275539258 10.708422738664355 1 1 0
1736 5 3 0.053 14.408737732835107 4.917331225347893 10.595223725761434 1 1 0
1738 5 6 -0.13 16.231054401496483 4.595305666262723 8.261925411363144 1 1 0
1739 5 1 -0.041 14.79845039969197 5.543303590239726 7.670057613735683 1 1 0
1740 5 3 0.053 14.19506917269862 4.919146085209667 6.990225468178044 1 1 0
1728 5 6 -0.13 15.646816003546252 0.8767837577443418 10.596177563640467 1 1 0
1735 5 3 0.053 15.971321260399682 4.35597324132758 11.23235202969363 1 1 0
1737 5 3 0.053 14.525594100133262 3.318121288048634 11.353342215946993 1 1 0
1722 5 2 0.012 14.366081460263471 0.13721054702805852 9.46744925978927 1 1 0
1723 5 3 0.053 14.47411918899881 0.6796027512650712 8.51032451336553 1 1 0
1719 5 1 -0.041 12.918273629154537 0.3653843365975534 9.92249438158622 1 1 0
2717 7 3 0.053 0.006744781879142181 8.478227632919774 5.9052109925239655 0 0 0
1731 5 3 0.053 17.267402759674727 2.51540489714708 10.024058446154482 1 1 0
2722 7 6 -0.13 1.2914667217935634 6.454458560556852 6.0686653242079265 0 0 0
2729 7 3 0.053 3.3250135568383583 6.424975647825122 10.642929226198394 0 0 0
2726 7 2 0.012 2.3123140007948484 6.244015862132919 8.689874919758346 0 0 0
2727 7 3 0.053 3.1936204253173988 5.783659558910437 8.208023346093494 0 0 0
768 2 1 -0.159 0.08017514908567322 10.443253980663542 9.382728900504095 -1 -1 0
766 2 2 0.012 1.0385876781654053 11.446096170351435 10.040275417592964 -1 -1 0
2730 7 3 0.053 1.9150843671965643 7.4964852097098245 10.438346699843823 0 0 0
2724 7 3 0.053 2.3424560708050426 8.053150316380629 7.518946744894964 0 0 0
774 2 3 0.053 2.400140704858254 10.96243783948823 7.396437591755717 -1 -1 0
773 2 1 -0.041 3.1757536848368773 11.37794797488015 8.060498821316923 -1 -1 0
776 2 2 0.012 4.541909791698055 10.79742155334824 7.708350815085048 -1 -1 0
777 2 3 0.053 4.522819834611674 9.706907774150057 7.884687139965197 -1 -1 0
778 2 1 -0.159 5.687471973879597 11.420719198783244 8.512993775069198 -1 -1 0
779 2 3 0.053 5.542674304716577 11.227047904075418 9.588284372576666 -1 -1 0
782 2 6 -0.13 4.854422504011731 10.889572206372433 5.893035860996667 -1 -1 0
772 2 6 -0.13 2.7906650723709183 10.939780046005616 9.781103523504639 -1 -1 0
2728 7 1 -0.159 2.774203744341382 7.043829204853327 9.918539443854328 0 0 0
2731 7 3 0.053 3.4476450097306945 7.857036550421322 9.602575202415883 0 0 0
966 3 3 0.053 5.384135494726851 8.702386129704221 10.597507018697952 0 0 0
2723 7 1 -0.041 1.6532247923561474 7.2053263629982816 7.678095801545524 0 0 0
2725 7 3 0.053 0.723599505469776 7.61291360276371 8.109752685478261 0 0 0
767 2 3 0.053 0.9143650632638783 11.38638745221618 11.136207513427452 -1 -1 0
770 2 3 0.053 0.24475697306125407 9.418948762458065 9.752239057304271 -1 -1 0
771 2 3 0.053 0.1998111034816464 10.437363867851754 8.288550650492951 -1 -1 0
1755 5 3 0.053 11.3358517465483 9.190849964103462 6.0333450533077295 1 1 0
974 3 6 -0.13 6.581498412330293 5.918993641434792 10.674496360674736 0 0 0
984 3 6 -0.13 10.28385366662629 6.200113702522698 10.318684023851882 0 0 0
780 2 3 0.053 6.6637110452387125 10.99876421051742 8.227057286871933 -1 -1 0
970 3 1 -0.159 7.567401473081176 8.016156394111244 9.150940994227584 0 0 0
972 3 3 0.053 6.639862435500972 8.029651577513103 8.556594683207507 0 0 0
971 3 3 0.053 8.281633463056194 7.348551753150152 8.64692634071838 0 0 0
973 3 3 0.053 8.001548867957222 9.029967843166077 9.131472438312324 0 0 0
1768 5 6 -0.13 9.990402266069609 11.354047469608085 9.860586586925837 1 1 0
968 3 2 0.012 7.276296699619975 7.604470114344681 10.605990785306718 0 0 0
969 3 3 0.053 8.215676854311676 7.626178984432204 11.179832797987682 0 0 0
992 3 3 0.053 11.07536417206338 8.758582818293856 11.493834682993421 0 0 0
965 3 1 -0.041 6.311061086053811 8.660948551251979 11.192364858465634 0 0 0
967 3 3 0.053 6.790186692643267 9.650583654198783 11.095998413484285 0 0 0
1754 5 1 -0.159 10.95735355395969 9.21845025386671 7.067266582853246 1 1 0
1756 5 3 0.053 10.436896821578653 8.26638244409608 7.2633430560129275 1 1 0
1757 5 3 0.053 10.211526302660966 10.024669939048225 7.136269135054398 1 1 0
985 3 1 -0.041 11.715794901199969 6.08040763058605 11.469501431854905 0 0 0
1741 5 3 0.053 14.171823723298207 5.789601971627982 8.540179469065178 1 1 0
987 3 3 0.053 12.607106843917164 6.3483197613867555 10.88196363286481 0 0 0
1747 5 3 0.053 16.971475329628408 5.929503128305609 5.940340366419548 1 1 0
1742 5 2 0.012 15.248944922456866 6.815441194140565 6.951588214262195 1 1 0
1748 5 6 -0.13 13.799314928316955 7.8096820922758985 6.457432853178624 1 1 0
1751 5 3 0.053 12.52945044396681 7.334718805860596 8.455592856798438 1 1 0
1752 5 2 0.012 12.099514603921058 9.401917668255575 8.076008201656595 1 1 0
1753 5 3 0.053 11.671158703288125 9.43989605563851 9.093538868259662 1 1 0
1766 5 3 0.053 12.882856310436159 11.433122676118863 10.622490134013534 1 1 0
1743 5 3 0.053 15.866478373950732 7.424639625760175 7.635932405470272 1 1 0
1749 5 1 -0.041 13.07589533668525 8.217153767698544 8.081139120884977 1 1 0
1750 5 3 0.053 13.89676553153003 8.4151153244994 8.791718853991323 1 1 0
1758 5 6 -0.13 13.029580457636856 10.9499719499399 7.790419054678039 1 1 0
292 1 3 0.053 0.06868207097274169 14.326576727553679 6.163259553123853 1 1 1
763 2 1 -0.041 0.7036794027390569 12.873381131879363 9.565280981186145 -1 -1 0
775 2 3 0.053 3.1816886062571794 12.472214443001459 7.934764959417391 -1 -1 0
784 2 3 0.053 5.477134776723594 13.204250385380814 6.341140398058407 -1 -1 0
781 2 3 0.053 5.733092201147826 12.511706409433486 8.379731660164234 -1 -1 0
756 2 2 0.012 0.7077763881061169 15.616166068115989 9.585509587564653 -1 -1 0
758 2 1 -0.159 1.523410506946193 16.24964607828141 8.446414261779337 -1 -1 0
759 2 3 0.053 0.9249166464762042 17.026009588351876 7.94098509449463 -1 -1 0
760 2 3 0.053 2.4398290064394654 16.72119636299464 8.834247905262709 -1 -1 0
761 2 3 0.053 1.8202800576396008 15.510948312930095 7.685610482676048 -1 -1 0
764 2 3 0.053 0.829690785529872 12.945495544492491 8.472240372013086 -1 -1 0
1783 5 3 0.053 4.791470739418212 14.799714521787141 10.264984295253251 1 1 0
1784 5 1 -0.159 4.894038627340947 16.71693907992455 11.24062950170135 1 1 0
762 2 6 -0.13 1.6339202846081236 14.213853624396963 10.358988146083021 -1 -1 0
753 2 1 -0.041 0.27334189069277515 16.746682920772553 10.543488201134736 -1 -1 0
1782 5 2 0.012 5.569192639825339 15.546802089788724 10.506713636699612 1 1 0
1786 5 3 0.053 4.093479629888658 17.1712796420745 10.636299903493965 1 1 0
1800 5 3 0.053 7.3542459571410435 15.929680673304299 6.055559754302575 1 1 0
1799 5 1 -0.041 7.442282078808033 16.98826874229652 5.756095987207602 1 1 0
1761 5 3 0.053 11.005493158150452 12.263059485917074 7.355442347807868 1 1 0
1778 5 6 -0.13 7.279989115360096 13.310691838147141 10.791005616922268 1 1 0
1779 5 1 -0.041 6.634739540951311 14.891265575391522 11.409051166757953 1 1 0
1773 5 3 0.053 9.510683982395246 13.918410359980205 11.510894727104423 1 1 0
1788 5 6 -0.13 6.20392604822164 16.069137258271088 8.853362371880449 1 1 0
1791 5 3 0.053 8.547835090040122 16.435324802585455 9.382926375172076 1 1 0
1762 5 2 0.012 11.342659073045972 12.531591519838047 9.510845994096886 1 1 0
1763 5 3 0.053 10.91267259185618 13.55043966559511 9.536418832777299 1 1 0
1789 5 1 -0.041 7.668321705607829 17.09185339877213 9.275128465859693 1 1 0
1764 5 1 -0.159 12.464099001868819 12.449585042182056 10.557996922675713 1 1 0
1767 5 3 0.053 13.282218909127252 13.135521371088114 10.280926052188544 1 1 0
1759 5 1 -0.041 11.84316110781297 12.321574948478702 8.070068706559525 1 1 0
1760 5 3 0.053 12.437891637407596 13.206177598605265 7.779777288466451 1 1 0
804 2 4 0.1392 4.091888739619309 17.686615269747858 6.157053581867414 -1 -1 0
755 2 3 0.053 1.1469878021244269 17.255585836715607 10.976018055045834 -1 -1 0
802 2 5 -0.2042 2.8868891289209446 18.162279284813017 5.862032424465691 -1 -1 0
212 1 3 0.053 1.6474847695267991 20.781367481640387 6.09651211316738 1 1 1
222 1 3 0.053 0.36995988564409193 20.788629237453083 10.304991498190258 1 1 1
211 1 1 -0.041 0.5904834778779134 20.870728736584102 5.796887139152551 1 1 1
1801 5 3 0.053 6.479896417189702 17.46689162115622 5.991948776425029 1 1 0
1798 5 6 -0.13 8.768105121273654 17.778437014400065 6.739678969745657 1 1 0
1790 5 3 0.053 7.482315021716163 17.52966385641581 10.270440763280329 1 1 0
1795 5 3 0.053 6.502713773644097 19.628490616906465 9.14064957243591 1 1 0
1797 5 3 0.053 5.953385299396942 18.776815713479774 7.68178043972322 1 1 0
1792 5 2 0.012 7.990184960525727 18.26648864309441 8.338094910458622 1 1 0
1793 5 3 0.053 8.819423797293892 18.816009418929237 8.82420037105732 1 1 0
1794 5 1 -0.159 6.825457963445562 19.249504597788626 8.156322648225109 1 1 0
1796 5 3 0.053 7.1223124617514655 20.11674391104612 7.5451552692725565 1 1 0
1634 5 1 -0.159 5.5632610926083625 2.146773177622196 12.195272125689634 1 1 0
1635 5 3 0.053 4.533424048152731 1.943791765072251 12.525815844171978 1 1 0
1637 5 3 0.053 5.753275838756931 3.225113922699114 12.311863128707566 1 1 0
2200 6 6 -0.13 1.0994057481799675 0.201226776401999 16.721338283177875 0 1 0
2187 6 3 0.053 4.743056204245849 5.402691976877823 13.828833915213767 0 1 0
2189 6 3 0.053 5.000143947992145 4.000147595245093 14.892893949832624 0 1 0
2185 6 3 0.053 2.9150488879698115 3.7059811517133476 13.516517062975174 0 1 0
2186 6 1 -0.159 4.3296476514052795 4.846685196720864 14.686417077941163 0 1 0
2188 6 3 0.053 4.346354434763856 5.508256727485979 15.566223701478268 0 1 0
2191 6 1 -0.041 2.805037975217128 1.7759113474622992 15.195453869285336 0 1 0
2197 6 3 0.053 4.718097755183469 1.1781043720973268 17.06116746190684 0 1 0
2194 6 2 0.012 2.7993731212125588 0.6220207235953595 16.209421151981598 0 1 0
2193 6 3 0.053 3.847779489153807 1.9084968997267495 14.86196045023171 0 1 0
2190 6 6 -0.13 2.214565475287246 3.398820629226957 15.779159191867812 0 1 0
2184 6 2 0.012 2.897104882164527 4.39240399422181 14.383518446156588 0 1 0
2183 6 3 0.053 0.9966254585471507 5.236004387907476 13.713805287110972 0 1 0
2192 6 3 0.053 2.223221735994405 1.4907598138583127 14.304620410362656 0 1 0
2181 6 1 -0.041 2.019506892061361 5.577302137016192 13.94367349223023 0 1 0
2745 7 3 0.053 1.8693449536153692 0.34029132499824793 12.18368530764419 0 0 0
2743 7 1 -0.041 0.8177595564830911 0.45118435367267967 11.863766353614691 0 0 0
1638 5 6 -0.13 6.577896002829613 1.72075068406575 14.773078699093707 1 1 0
981 3 3 0.053 8.333133565159837 3.7757972636457917 12.470003653729167 0 0 0
1644 5 1 -0.159 8.521449953952642 3.136397567200885 17.03170238902824 1 1 0
1646 5 3 0.053 7.441238437628864 3.349672764186492 17.065083979494844 1 1 0
1647 5 3 0.053 8.990459337191309 3.862048384858056 16.34689776197922 1 1 0
1642 5 2 0.012 8.789395646572281 1.7064696896192353 16.54398697877672 1 1 0
980 3 1 -0.159 9.026003201246038 4.609821646835975 12.276470820769836 0 0 0
982 3 3 0.053 8.588261524536197 5.515567057771983 12.71529815218536 0 0 0
983 3 3 0.053 9.960442161869334 4.387670055121794 12.810067033712757 0 0 0
997 3 3 0.053 10.716268243841302 5.484064045405917 14.923195633975665 0 0 0
1715 5 3 0.053 10.491783124814152 1.3101185023161264 12.894962451335074 1 1 0
1640 5 3 0.053 8.90681336844819 2.2466833328772466 14.47338723904447 1 1 0
1643 5 3 0.053 9.882305096802298 1.5382383885345594 16.554593717638326 1 1 0
1639 5 1 -0.041 8.352914869229691 1.51315282494705 15.084998480502245 1 1 0
1632 5 2 0.012 6.5781953809153535 1.303141082373549 12.980936376988154 1 1 0
1714 5 1 -0.159 11.457718457439823 1.7998235006537207 12.698789119479247 1 1 0
1716 5 3 0.053 11.38544324390655 2.3135334011827053 11.728323170473203 1 1 0
1633 5 3 0.053 7.587480373616815 1.5650728290875051 12.612608189841422 1 1 0
1641 5 3 0.053 8.65115082718379 0.5108363436725142 14.736772873221398 1 1 0
986 3 3 0.053 11.827406214071146 5.022826404203047 11.75674853454884 0 0 0
1003 3 3 0.053 11.975429849341825 3.631281332465439 16.021782897597788 0 0 0
1717 5 3 0.053 11.620271006643822 2.5668602952582806 13.473692042423162 1 1 0
1001 3 3 0.053 13.566105110337418 4.438807634869764 15.986714435907134 0 0 0
2051 6 1 -0.041 17.166658722300614 1.8405121210105846 15.77148483375657 0 1 0