units real
atom_style full
boundary p p p

# --- Force Field Styles ---
pair_style lj/class2/coul/long 9.5 9.5
kspace_style pppm 1e-6
dielectric 1.000000
bond_style class2
angle_style class2
dihedral_style class2
improper_style class2
special_bonds lj/coul 0 0 1
pair_modify mix sixthpower tail yes
neighbor 2.0 bin
neigh_modify delay 0 every 1 check yes
neigh_modify one 4000
# KOKKOS: package loaded via -pk kokkos on the command line

read_data /home/arz2/PolyJarvis/data/PLA1/lammps/equil/npt_prod300/npt_prod300_out.data
Reading data file ...
  orthogonal box = (4.585882 4.585882 4.585882) to (41.047241 41.047241 41.047241)
  1 by 1 by 1 MPI processor grid
  reading atoms ...
  4520 atoms
  reading velocities ...
  4520 velocities
  scanning bonds ...
  4 = max bonds/atom
  scanning angles ...
  12 = max angles/atom
  scanning dihedrals ...
  21 = max dihedrals/atom
  scanning impropers ...
  8 = max impropers/atom
  orthogonal box = (4.585882 4.585882 4.585882) to (41.047241 41.047241 41.047241)
  1 by 1 by 1 MPI processor grid
  reading bonds ...
  4510 bonds
  reading angles ...
  8000 angles
  reading dihedrals ...
  9970 dihedrals
  reading impropers ...
  4500 impropers
Finding 1-2 1-3 1-4 neighbors ...
  special bond factors lj:    0        0        1       
  special bond factors coul:  0        0        1       
     4 = max # of 1-2 neighbors
     6 = max # of 1-3 neighbors
    10 = max # of special neighbors
  special bonds CPU = 0.003 seconds
  read_data CPU = 0.237 seconds


# --- Thermo Output ---
thermo_style custom step time temp press enthalpy etotal ke pe ebond eangle edihed eimp evdwl ecoul elong etail vol lx ly lz density pxx pyy pzz
thermo_modify flush yes
thermo 100

# --- Trajectory ---
dump dump_npt all custom 1000 /home/arz2/PolyJarvis/data/PLA1/lammps/mechanical/bm_series/bm_P1500/bm_P1500.dump id type mol x y z ix iy iz vx vy vz

# --- Restart Checkpointing ---
restart 10000 npt_1.rst npt_2.rst

# --- Initial Velocities (optional) ---
# Velocities read from data file

# --- SHAKE Constraints ---
fix shake_fix all shake 1e-4 1000 0 m 1.008
Finding SHAKE clusters ...
     500 = # of size 2 clusters
      10 = # of size 3 clusters
     500 = # of size 4 clusters
       0 = # of frozen angles
  find clusters CPU = 0.002 seconds

# --- NPT Thermostat + Barostat (Nose-Hoover) ---
# T_damp = 100.0 fs  (heat bath coupling)
# P_damp = 1000.0 fs  (pressure bath coupling, ~10x T_damp typical)
# Ramp: T=300.0->300.0K  P=1500.0->1500.0atm
timestep 1.0
fix npt_fix all npt temp 300.0 300.0 100.0 iso 1500.0 1500.0 1000.0

run 500000
PPPM Kokkos initialization ...
  using 12-bit tables for long-range coulomb
  G vector (1/distance) = 0.33469742
  grid = 40 40 40
  stencil order = 5
  estimated absolute RMS force accuracy = 0.00041952969
  estimated relative force accuracy = 1.2634012e-06
  using double precision cuFFT
  3d grid and FFT values/proc = 103823 64000
Generated 21 of 21 mixed pair_coeff terms from sixthpower/sixthpower mixing rule
Neighbor list info ...
  update: every = 1 steps, delay = 0 steps, check = yes
  max neighbors/atom: 4000, page size: 100000
  master list distance cutoff = 11.5
  ghost atom cutoff = 11.5
  binsize = 11.5, bins = 4 4 4
  1 neighbor lists, perpetual/occasional/extra = 1 0 0
  (1) pair lj/class2/coul/long/kk, perpetual
      attributes: full, newton off, kokkos_device
      pair build: full/bin/kk/device
      stencil: full/bin/3d
      bin: kk/device
Per MPI rank memory allocation (min/avg/max) = 34.72 | 34.72 | 34.72 Mbytes
   Step          Time           Temp          Press         Enthalpy        TotEng         KinEng         PotEng         E_bond        E_angle        E_dihed        E_impro         E_vdwl         E_coul         E_long         E_tail         Volume           Lx             Ly             Lz          Density          Pxx            Pyy            Pzz      
         0   0              346.62322     -482.15871      15386.398      15727.249      3973.412       11753.837      1496.6443      3713.6708     -3993.9481      139.98551     -2478.0238      44134.187     -31258.679     -390.16362      48472.852      36.46136       36.46136       36.46136       1.2350444     -1791.1431      437.32152     -92.654577    
       100   100            302.48278      439.00039      15440.132      15130.797      3467.4212      11663.376      1498.4178      3730.3162     -4030.6746      154.11859     -2550.5136      44117.522     -31255.81      -391.43381      48315.559      36.421878      36.421878      36.421878      1.2390651     -897.60645      1498.3198      716.28778    
       200   200            295.18514      537.18019      15406.474      15032.137      3383.7668      11648.371      1451.6357      3693.0055     -3979.1644      135.45031     -2517.475       44125.449     -31260.531     -395.80301      47782.212      36.287364      36.287364      36.287364      1.2528956      873.66225      9.6998997      728.17843    
       300   300            297.4947       2530.4823      16736.865      14989.685      3410.2418      11579.443      1469.2047      3724.9591     -4024.7755      119.4209      -2527.7685      44083.185     -31264.783     -399.47246      47343.298      36.175913      36.175913      36.175913      1.264511       3708.997       3064.2862      818.16367    
       400   400            296.89731      531.75955      15373.157      15007.195      3403.3938      11603.802      1421.3497      3729.6695     -3939.5691      157.13446     -2598.2203      44102.17      -31268.733     -400.77523      47189.402      36.136672      36.136672      36.136672      1.2686349      1722.1604     -1719.6695      1592.7877    
       500   500            297.48413      1839.7722      16320.772      15055.291      3410.1206      11645.171      1470.2665      3689.5298     -3943.5846      148.12953     -2568.0856      44112.024     -31263.109     -400.98659      47164.529      36.130322      36.130322      36.130322      1.2693039      2046.393       481.66263      2991.2609    
       600   600            302.05944      2123.753       16566.386      15103.829      3462.5683      11641.261      1463.7817      3722.1613     -3917.1712      133.51418     -2614.1611      44118.522     -31265.386     -400.50913      47220.755      36.144674      36.144674      36.144674      1.2677926      1853.7411      2365.414       2152.1038    
       700   700            302.38435      338.03884      15385.196      15151.86       3466.2929      11685.567      1484.8099      3718.5972     -3925.9605      141.45977     -2576.276       44110.155     -31267.218     -399.58168      47330.356      36.172617      36.172617      36.172617      1.2648568      1894.2001     -474.12731     -405.95629    
       800   800            312.94064      1670.6503      16313.605      15158.868      3587.3017      11571.567      1437.7275      3708.8758     -3977.178       135.41028     -2605.6344      44138.304     -31265.939     -399.04699      47393.775      36.188765      36.188765      36.188765      1.2631642      1109.2497      1524.1962      2378.5049    
       900   900            299.10629      971.12699      15730.751      15059.422      3428.7157      11630.706      1478.9841      3759.4938     -3993.0388      139.78735     -2566.8705      44075.886     -31263.536     -398.98989      47400.558      36.190492      36.190492      36.190492      1.2629835      2133.2715      276.597        503.51245    
      1000   1000           298.26199      1811.9795      16244.848      14994.797      3419.0374      11575.759      1495.9093      3672.1969     -3979.8559      138.44793     -2581.3626      44096.629     -31266.206     -399.80379      47304.062      36.165917      36.165917      36.165917      1.2655599      1175.8361      1589.1872      2670.9152    
      1100   1100           294.44725      1634.079       16127.111      15003.85       3375.3082      11628.542      1429.6888      3686.5148     -3972.2948      152.96618     -2539.7834      44136.4       -31264.95      -401.2488       47133.707      36.12245       36.12245       36.12245       1.270134       1072.745       2763.1504      1066.3416    
      1200   1200           305.01155      627.09645      15513.141      15082.236      3496.409       11585.827      1504.7722      3696.214      -3956.0427      140.1747      -2628.9225      44090.74      -31261.109     -401.39656      47116.357      36.118017      36.118017      36.118017      1.2706017      1425.7684     -165.37495      620.89585    
      1300   1300           301.73197      2400.5437      16792.702      15141.861      3458.8145      11683.047      1492.8011      3719.8127     -3950.8374      137.07501     -2543.1643      44087.947     -31260.587     -401.07515      47154.114      36.127663      36.127663      36.127663      1.2695843      1874.2664      2949.9423      2377.4223    
      1400   1400           301.86056      2808.3155      17034.809      15099.007      3460.2886      11638.718      1428.0646      3716.3949     -3920.0018      142.1008      -2562.938       44099.603     -31264.505     -400.13462      47264.952      36.155947      36.155947      36.155947      1.2666071      2876.6251      2801.5469      2746.7744    
      1500   1500           296.18246     -330.73479      14729.878      14958.364      3395.1994      11563.165      1488.3026      3693.9109     -3967.6924      134.33287     -2615.0923      44094.945     -31265.543     -399.24748      47369.976      36.182707      36.182707      36.182707      1.2637989     -263.52485     -1069.7081      341.02855    
      1600   1600           300.86525      830.46616      15536.615      14963.383      3448.879       11514.504      1417.0824      3574.3953     -3914.3861      148.93122     -2558.445       44115.96      -31269.034     -399.58807      47329.6        36.172424      36.172424      36.172424      1.264877       1277.4327      1069.4769      144.48888    
      1700   1700           301.39226      2882.3243      17023.963      15034.476      3454.9204      11579.555      1491.7904      3669.7887     -3998.8862      135.39664     -2544.1222      44093.785     -31268.197     -399.59752      47328.481      36.172139      36.172139      36.172139      1.2649069      4251.4832      2279.3942      2116.0956    
      1800   1800           304.66752      1039.2479      15823.162      15104.936      3492.4653      11612.471      1477.6605      3684.5674     -3996.6454      158.57632     -2529.8844      44085.79      -31267.593     -399.09812      47387.704      36.18722       36.18722       36.18722       1.2633261      1917.1771      1856.9442     -656.37763    
      1900   1900           304.06407      1510.2944      16119.114      15072.231      3485.5478      11586.683      1426.5538      3703.2224     -3983.3042      130.43426     -2533.0604      44106.427     -31263.59      -397.90996      47529.204      36.223203      36.223203      36.223203      1.259565       1513.5308      509.95492      2507.3976    
      2000   2000           297.42895      1551.9895      16095.798      15017.822      3409.4881      11608.334      1409.7411      3709.7491     -3967.1836      139.55291     -2539.9999      44117.061     -31260.586     -397.10119      47626.005      36.247778      36.247778      36.247778      1.2570049      3482.4009     -29.96367       1203.5312    
      2100   2100           292.34609      1022.5195      15734.197      15024.726      3351.2222      11673.504      1485.368       3725.481      -3976.7218      145.45618     -2561.07        44121.682     -31266.692     -397.51898      47575.95       36.235074      36.235074      36.235074      1.2583274      188.40203      533.09282      2346.0638    
      2200   2200           294.33538      2147.4115      16520.966      15038.019      3374.0259      11663.993      1446.8597      3797.7283     -3963.8426      141.93785     -2597.4239      44108.516     -31269.782     -399.40269      47351.568      36.178019      36.178019      36.178019      1.2642902      3512.6593      2683.9809      245.5944     
      2300   2300           299.42557      1165.6364      15842.076      15041.67       3432.3757      11609.294      1467.6586      3659.049      -3981.0331      155.5701      -2549.7061      44125.544     -31267.789     -401.67406      47083.806      36.109698      36.109698      36.109698      1.2714801      1819.5533     -78.465431      1755.8215    
      2400   2400           300.52756      2219.923       16552.069      15025.907      3445.0081      11580.899      1463.6523      3705.4933     -3967.0989      137.12026     -2568.1354      44075.701     -31265.834     -401.19771      47139.71       36.123983      36.123983      36.123983      1.2699722      642.96653      3054.6287      2962.1738    
      2500   2500           301.60742      1615.0735      16114.164      15001.401      3457.3867      11544.015      1456.853       3618.5454     -3962.4112      153.44771     -2607.302       44146.858     -31261.976     -400.3232       47242.686      36.150269      36.150269      36.150269      1.267204       1942.9261      928.49207      1973.8022    
      2600   2600           299.41147      1925.5968      16282.432      14953.369      3432.2141      11521.155      1480.1473      3582.1661     -4023.9403      167.89983     -2536.4245      44113.677     -31262.37      -399.61437      47326.485      36.17163       36.17163       36.17163       1.2649603      1612.1901      1478.3635      2686.237     
      2700   2700           293.37681      733.05822      15478.497      14971.399      3363.0376      11608.362      1525.9539      3640.6389     -3984.2632      145.57325     -2490.5696      44032.097     -31261.069     -398.71999      47432.645      36.198656      36.198656      36.198656      1.2621291      1387.0115      766.51406      45.649142    
      2800   2800           305.23753      2203.545       16597.81       15074.468      3498.9994      11575.469      1453.8081      3597.5557     -3978.5772      133.58338     -2529.32        44155.207     -31256.788     -398.9752       47402.304      36.190936      36.190936      36.190936      1.262937       3045.9107      3235.1636      329.56065    
      2900   2900           301.59673      1706.078       16293.138      15113.255      3457.2642      11655.991      1462.7014      3669.2882     -3965.713       168.80621     -2521.4982      44103.199     -31260.792     -398.82422      47420.248      36.195502      36.195502      36.195502      1.2624591      2054.7119      1461.9665      1601.5556    
      3000   3000           302.74161      1346.0943      16012.967      15081.539      3470.3882      11611.151      1490.541       3643.9471     -3958.6212      143.71748     -2549.792       44105.355     -31263.997     -398.60933      47445.813      36.202005      36.202005      36.202005      1.2617788      1124.6253      3121.2086     -207.55106    
      3100   3100           297.17236      1110.3709      15767.229      14997.945      3406.5467      11591.398      1478.8875      3641.7089     -3962.4548      147.21079     -2566.1161      44109.652     -31257.49      -398.10924      47505.412      36.217158      36.217158      36.217158      1.2601958      1973.0203      597.31223      760.78014    
      3200   3200           293.37476      1629.3672      16075.622      14946.831      3363.0141      11583.817      1473.4222      3652.5388     -3987.3507      141.41873     -2558.3964      44127.781     -31265.597     -398.13174      47502.727      36.216475      36.216475      36.216475      1.2602671      1767.9877      1416.8424      1703.2715    
      3300   3300           296.71876      1466.2737      15977.542      14964.653      3401.3471      11563.305      1463.0066      3695.2715     -4022.6165      145.83276     -2606.0402      44146.821     -31258.97      -399.27707      47366.465      36.181813      36.181813      36.181813      1.2638925      1473.8149      1788.871       1136.1353    
      3400   3400           297.81258      1957.5221      16412.339      15065.02       3413.8857      11651.134      1437.6477      3673.5451     -3936.1777      145.17524     -2579.9637      44167.188     -31256.281     -400.73511      47194.127      36.137878      36.137878      36.137878      1.2685079      3793.8276      70.578621      2008.16      
      3500   3500           302.98448      1058.3121      15861.507      15134.493      3473.1722      11661.32       1458.7039      3749.5768     -3927.0071      143.10751     -2638.6322      44129.711     -31254.139     -401.50599      47103.515      36.114735      36.114735      36.114735      1.2709481      2185.5289      766.65686      222.75055    
      3600   3600           305.73655      1668.2548      16253.275      15109.356      3504.7198      11604.636      1485.8421      3671.4696     -3967.5458      162.39308     -2628.169       44145.031     -31264.385     -402.24281      47017.232      36.092671      36.092671      36.092671      1.2732805     -149.37195      2994.1828      2159.9534    
      3700   3700           298.53179      890.10781      15622.646      15013.288      3422.1302      11591.157      1405.6076      3656.4061     -3915.8289      145.11414     -2581.3341      44145.508     -31264.315     -402.89418      46941.217      36.073209      36.073209      36.073209      1.2753423      1683.8901      1062.1313     -75.698028    
      3800   3800           299.61377      2498.7981      16702.691      14991.219      3434.5331      11556.686      1456.1307      3702.5225     -3941.8484      135.78401     -2657.9668      44122.897     -31260.833     -402.70084      46963.754      36.078982      36.078982      36.078982      1.2747303      1629.3824      2880.4928      2986.519     
      3900   3900           300.83613      1796.3223      16226.202      14993.879      3448.5452      11545.334      1445.0002      3677.3866     -4008.7712      143.49156     -2578.1763      44129.94      -31263.537     -402.05095      47039.669      36.098411      36.098411      36.098411      1.2726731      2860.1698      1381.4924      1147.3047    
      4000   4000           303.55917      1520.4395      16143.533      15095.838      3479.76        11616.078      1398.7701      3770.2028     -3964.3989      134.17433     -2579.3826      44115.13      -31258.417     -400.27238      47248.684      36.151798      36.151798      36.151798      1.2670432      8.7963111      1731.3029      2821.2192    
      4100   4100           300.52533      1540.5366      16214.973      15147.859      3444.9826      11702.876      1497.5206      3700.7339     -3992.9983      158.19044     -2551.0522      44147.972     -31257.49      -398.18262      47496.658      36.214933      36.214933      36.214933      1.2604281      3134.5361      391.42593      1095.6477    
      4200   4200           302.78781      1634.0089      16249.358      15112.898      3470.9178      11641.98       1412.8671      3724.6774     -3997.3899      166.39135     -2542.0142      44138.98      -31261.532     -396.57131      47689.641      36.263915      36.263915      36.263915      1.2553276      1035.9224      377.3481       3488.7561    
      4300   4300           299.72242      316.89484      15258.66       15038.402      3435.7786      11602.623      1487.2397      3714.4745     -3999.7093      135.67322     -2562.006       44092.854     -31265.903     -396.83009      47658.542      36.25603       36.25603       36.25603       1.2561467      299.93611      1159.4476     -508.69918    
      4400   4400           297.59517      546.56966      15385.272      15007.304      3411.3935      11595.911      1415.6779      3730.4742     -3934.4496      136.52421     -2585.0134      44098.634     -31265.936     -398.8518       47416.969      36.194668      36.194668      36.194668      1.2625464     -657.52121     -203.60859      2500.8388    
      4500   4500           298.32118      2730.1215      16889.63       15011.386      3419.7159      11591.67       1476.4023      3671.9218     -3992.7199      153.89949     -2551.7162      44105.759     -31271.877     -400.91388      47173.082      36.132506      36.132506      36.132506      1.2690738      3960.3527      1230.0066      3000.0053    
      4600   4600           297.78071      1769.3465      16242.154      15026.092      3413.5204      11612.572      1488.825       3699.873      -4002.1041      159.23842     -2551.7885      44083.069     -31264.542     -401.30856      47126.689      36.120657      36.120657      36.120657      1.2703231      978.29527      3746.1003      583.64397    
      4700   4700           299.36073      1402.2806      15999.679      15031.977      3431.6325      11600.345      1414.6008      3696.7748     -3961.9246      144.60204     -2577.6748      44147.757     -31263.791     -399.68198      47318.479      36.169591      36.169591      36.169591      1.2651743      2619.302       1184.1209      403.41875    
      4800   4800           298.18251      2208.6398      16576.59       15047.44       3418.1263      11629.314      1452.553       3674.7569     -3955.8164      148.69413     -2534.4434      44109.441     -31265.871     -398.37875      47473.274      36.208989      36.208989      36.208989      1.2610489      2844.2459      2523.0886      1258.585     
      4900   4900           304.48088      1623.8719      16215.516      15090.195      3490.3258      11599.869      1444.5497      3693.6471     -3951.4109      136.59326     -2563.2251      44107.966     -31268.251     -398.01225      47516.989      36.220099      36.220099      36.220099      1.2598888      3636.2391      760.57649      474.80003    
      5000   5000           306.42726      587.36314      15582.785      15175.903      3512.6375      11663.266      1488.5337      3725.9504     -3981.6582      144.68038     -2590.0146      44136.615     -31260.841     -398.16145      47499.182      36.215574      36.215574      36.215574      1.2603611      1815.3166     -395.45636      342.22914    
      5100   5100           304.88133      753.21604      15724.449      15202.983      3494.9162      11708.066      1494.5643      3764.9622     -3938.224       142.9618      -2566.0747      44076.697     -31266.821     -398.39546      47471.283      36.208482      36.208482      36.208482      1.2611018      2450.1955     -1219.6696      1029.1222    
      5200   5200           301.82446      1521.8717      16124.298      15072.204      3459.8747      11612.329      1417.9803      3726.1439     -3962.6124      141.5844      -2578.3986      44131.861     -31264.229     -398.97435      47402.404      36.190962      36.190962      36.190962      1.2629343      1115.3266      2947.4215      502.86689    
      5300   5300           300.53369      539.88189      15398.576      15025.823      3445.0784      11580.745      1489.595       3733.6264     -4005.1721      130.05725     -2610.1195      44101.922     -31259.165     -399.48375      47341.959      36.175572      36.175572      36.175572      1.2645468      2446.2416      542.03665     -1368.6326    
      5400   5400           298.63328      1516.1115      16030.504      14985.742      3423.2936      11562.448      1414.5888      3702.0927     -3951.0937      138.69326     -2617.2174      44138.438     -31263.054     -400.25351      47250.912      36.152366      36.152366      36.152366      1.2669834      1542.4869      771.74405      2234.1035    
      5500   5500           295.70865      2300.8595      16571.065      14984.755      3389.7679      11594.987      1448.8212      3719.2295     -3973.3615      141.78504     -2560.6619      44097.381     -31278.206     -400.05827      47273.972      36.158247      36.158247      36.158247      1.2663654      2221.1804      1368.0291      3313.369     
      5600   5600           300.62588      686.57485      15552.616      15078.197      3446.1352      11632.062      1474.2164      3672.875      -3946.0148      152.73316     -2534.8909      44077.865     -31264.722     -399.16004      47380.352      36.185349      36.185349      36.185349      1.2635221      1813.9904     -120.03427      365.76845    
      5700   5700           300.80517      2599.0402      16921.678      15123.48       3448.1904      11675.289      1464.6982      3709.5709     -3966.9281      139.17154     -2529.8742      44120.621     -31261.97      -398.65453      47440.433      36.200637      36.200637      36.200637      1.2619219      2329.2015      2200.2663      3267.6529    
      5800   5800           301.17963      1731.4322      16289.04       15088.982      3452.4829      11636.499      1490.9297      3696.2942     -3982.6815      125.74019     -2557.3983      44125.474     -31261.859     -397.94644      47524.847      36.222096      36.222096      36.222096      1.2596805      1715.1881      1622.3541      1856.7543    
      5900   5900           295.15768     -240.96014      14884.219      15051.073      3383.4521      11667.621      1440.7073      3736.0372     -3964.4255      148.66343     -2568.3265      44134.047     -31259.082     -398.3185       47480.454      36.210814      36.210814      36.210814      1.2608582     -556.02198      222.00645     -388.86491    
      6000   6000           299.299        2450.2441      16745.677      15052.478      3430.9248      11621.553      1477.0828      3681.7931     -4024.7521      136.9391      -2528.9913      44141.546     -31262.064     -399.1377       47383.005      36.186024      36.186024      36.186024      1.2634514      2347.4097      2260.0223      2743.3004    
      6100   6100           298.06758      791.30213      15577.384      15031.679      3416.8089      11614.87       1464.5043      3698.3948     -3970.202       148.68892     -2616.213       44148.679     -31258.982     -399.94995      47286.775      36.161511      36.161511      36.161511      1.2660225      801.49337      381.18829      1191.2247    
      6200   6200           297.71519      1365.3417      15890.86       14953.264      3412.7693      11540.494      1402.081       3683.0918     -3959.1645      142.49066     -2589.939       44124.588     -31262.654     -401.64889      47086.757      36.110452      36.110452      36.110452      1.2714004      1307.0269      1171.8026      1617.1957    
      6300   6300           290.12429      2658.863       16692.969      14870.653      3325.7533      11544.9        1477.2609      3621.931      -3981.9966      142.07343     -2573.5148      44123.535     -31264.388     -402.43309      46995          36.086981      36.086981      36.086981      1.2738828      1844.7381      2825.1366      3306.7144    
      6400   6400           291.40726      1191.3953      15720.178      14902.952      3340.4602      11562.492      1462.5658      3652.8363     -3968.2554      160.40767     -2586.7802      44105.95      -31264.232     -402.10083      47033.834      36.096918      36.096918      36.096918      1.272831       1754.1048      1222.3044      597.77662    
      6500   6500           298.54702      893.6583       15649.273      15034.084      3422.3047      11611.779      1469.4157      3670.4871     -3935.4083      144.09296     -2561.6992      44087.425     -31262.534     -400.66696      47202.154      36.139927      36.139927      36.139927      1.2682922      1318.9325      625.57291      736.46947    
      6600   6600           306.15843      1950.1736      16437.608      15090.382      3509.5559      11580.826      1406.1111      3699.4679     -3938.4197      149.32107     -2623.1162      44151.205     -31263.744     -399.25824      47368.699      36.182382      36.182382      36.182382      1.2638329      1803.9043      1690.7071      2355.9095    
      6700   6700           299.91118      1129.5345      15864.881      15084.259      3437.9424      11646.316      1498.6756      3685.541      -3950.5318      149.91278     -2609.834       44135.416     -31262.864     -399.09836      47387.675      36.187213      36.187213      36.187213      1.2633268      2039.5693      1492.9451     -143.91087    
      6800   6800           303.47145      508.60049      15369.952      15018.963      3478.7545      11540.208      1423.6836      3763.5446     -3951.8418      134.97546     -2624.5963      44058.173     -31263.731     -399.67244      47319.608      36.169878      36.169878      36.169878      1.2651441      190.75684     -3.3983794      1338.443     
      6900   6900           296.62033      1711.6085      16147.974      14971.289      3400.2188      11571.07       1421.6407      3729.788      -3985.7843      137.91502     -2587.6033      44120.118     -31265.003     -401.20429      47138.936      36.123786      36.123786      36.123786      1.2699931      1974.4816      1501.2107      1659.1332    
      7000   7000           292.52826      1639.2273      16071.272      14947.63       3353.3105      11594.32       1484.4759      3736.7186     -3986.7672      146.52747     -2587.8775      44070.473     -31269.231     -402.37662      47001.596      36.088669      36.088669      36.088669      1.273704       1423.1924      2971.5835      522.90597    
      7100   7100           296.58245      2614.4968      16806.471      15016.299      3399.7845      11616.515      1419.7201      3735.2486     -3967.8243      153.64786     -2540.3132      44085.579     -31269.543     -402.82348      46949.456      36.07532       36.07532       36.07532       1.2751185      3547.8072      2989.5348      1306.1485    
      7200   7200           304.97483      250.85182      15275.925      15103.686      3495.988       11607.698      1497.3928      3705.0987     -3949.1131      147.72219     -2592.0746      44068.123     -31269.451     -401.70379      47080.321      36.108807      36.108807      36.108807      1.2715742     -666.92544      464.76043      954.72047    
      7300   7300           302.5905       2043.0007      16485.705      15078.057      3468.656       11609.401      1486.3994      3762.7911     -4004.8712      140.70153     -2603.903       44094.593     -31266.31      -400.30933      47244.324      36.150686      36.150686      36.150686      1.2671601      851.59292      3388.2174      1889.1917    
      7400   7400           296.24862      942.83714      15661.235      15010.025      3395.9577      11614.067      1479.088       3720.4366     -3962.163       150.35521     -2609.1889      44099.016     -31263.476     -399.33424      47359.684      36.180086      36.180086      36.180086      1.2640735      979.75417      1499.6454      349.11184    
      7500   7500           297.47135      301.69986      15173.685      14965.39       3409.9741      11555.416      1424.6536      3683.5792     -3927.041       135.35037     -2625.3333      44123.113     -31258.905     -399.5019       47339.808      36.175024      36.175024      36.175024      1.2646042      899.79309     -186.669        191.97549    
      7600   7600           293.73206      2115.0032      16425.207      14969.212      3367.1099      11602.102      1418.4239      3627.8222     -3943.3194      157.0588      -2492.8166      44100.152     -31265.219     -400.65662      47203.372      36.140238      36.140238      36.140238      1.2682594      1651.5888      2165.1465      2528.2744    
      7700   7700           301.06794      1704.7356      16247.072      15072.205      3451.2025      11621.003      1461.4778      3705.7013     -3958.861       150.92407     -2513.2099      44043.491     -31268.52      -400.21157      47255.864      36.15363       36.15363       36.15363       1.2668506      2190.4973      2626.1395      297.57018    
      7800   7800           299.74939      2887.556       17101.161      15110.814      3436.0878      11674.726      1407.8581      3712.9055     -3945.2686      149.48781     -2507.7722      44117.298     -31259.782     -400.14987      47263.15       36.155488      36.155488      36.155488      1.2666554      2893.8121      3014.3126      2754.5432    
      7900   7900           301.75972      684.40449      15543.497      15070.663      3459.1325      11611.53       1448.5023      3673.8999     -3944.1394      153.74367     -2583.7209      44129.325     -31266.081     -399.23135      47371.89       36.183194      36.183194      36.183194      1.2637478      1265.6006      127.69959      659.91325    
      8000   8000           296.99938      1877.8521      16275.271      14976.823      3404.5638      11572.259      1444.5552      3656.1434     -3926.9525      137.3092      -2558.5933      44093.078     -31273.281     -398.89448      47411.895      36.193377      36.193377      36.193377      1.2626815      1925.6239      2003.5407      1704.3916    
      8100   8100           292.49341      2723.1713      16842.717      14960.519      3352.911       11607.608      1412.7443      3732.2823     -3945.7119      159.76513     -2542.9875      44063.128     -31271.612     -399.0533       47393.026      36.188575      36.188575      36.188575      1.2631842      2696.2649      3054.2908      2418.9582    
      8200   8200           298.9754       866.00243      15599.26       15000.917      3427.2153      11573.702      1388.5761      3737.772      -3958.1998      134.68045     -2530.2959      44070.215     -31269.046     -399.20018      47375.589      36.184136      36.184136      36.184136      1.2636491      1442.3493      815.47905      340.17895    
      8300   8300           290.77125      1673.0199      16187.059      15030.805      3333.1696      11697.635      1514.0447      3716.6516     -3982.2551      157.41551     -2530.1291      44084.817     -31262.91      -399.0882       47388.881      36.18752       36.18752       36.18752       1.2632947      1436.5617      1748.0638      1834.4341    
      8400   8400           302.649        1716.4128      16253.98       15066.614      3469.3266      11597.288      1386.4278      3758.3553     -3959.2797      138.39802     -2590.92        44131.748     -31267.441     -398.71124      47433.685      36.198921      36.198921      36.198921      1.2621014      451.55687      1536.3499      3161.3316    
      8500   8500           300.9619       1223.6102      15905.655      15060.39       3449.987       11610.403      1470.0607      3671.5744     -3982.733       149.92406     -2545.5665      44106.382     -31259.239     -399.27448      47366.772      36.181891      36.181891      36.181891      1.2638843      1761.9255      1564.4334      344.47183    
      8600   8600           295.44673      2232.9999      16537.116      14999.328      3386.7655      11612.563      1391.5557      3723.1453     -3942.5575      150.21784     -2567.3967      44123.378     -31265.78      -400.51007      47220.643      36.144645      36.144645      36.144645      1.2677956      2542.9697      2071.4633      2084.5668    
      8700   8700           297.57741      1268.2979      15788.091      14915.38       3411.1899      11504.19       1383.5837      3708.6371     -3985.8074      144.97067     -2629.3144      44147.686     -31265.566     -400.84087      47181.675      36.1347        36.1347        36.1347        1.2688427     -357.8388       1100.8418      3061.8908    
      8800   8800           295.48068      1895.4683      16255.559      14953.177      3387.1547      11566.022      1423.6898      3728.1815     -3975.1406      141.28789     -2621.1706      44140.802     -31271.628     -401.4204       47113.559      36.117302      36.117302      36.117302      1.2706772      2552.4354      2673.3955      460.57414    
      8900   8900           300.57992      1472.7658      16048.392      15037.746      3445.6083      11592.138      1438.6777      3728.0415     -3961.9137      137.8793      -2628.099       44146.14      -31268.588     -401.9351       47053.227      36.101879      36.101879      36.101879      1.2723064      1637.2999      1456.4556      1324.5421    
      9000   9000           297.74159      1560.7024      16118.625      15047.559      3413.0719      11634.487      1463.4086      3744.0942     -3953.6434      145.83318     -2612.951       44114.227     -31266.481     -401.90647      47056.579      36.102736      36.102736      36.102736      1.2722158     -617.59023      2586.6388      2713.0588    
      9100   9100           298.25263      1742.937       16255.937      15057.32       3418.9302      11638.389      1485.4853      3747.1811     -4035.4718      136.04052     -2548.4412      44117.965     -31264.37      -401.07209      47154.474      36.127755      36.127755      36.127755      1.2695746      1976.2062      792.48579      2460.1189    
      9200   9200           299.32963      1001.5791      15754.798      15063.169      3431.276       11631.893      1478.1447      3743.4563     -3969.7546      131.70332     -2589.8606      44103.991     -31265.786     -399.42355      47349.094      36.177389      36.177389      36.177389      1.2643562      426.22776      1803.1709      775.33874    
      9300   9300           296.35602      996.04657      15751.85       15062.356      3397.1889      11665.168      1463.9304      3750.1665     -3919.5608      141.27241     -2602.8214      44097.814     -31265.634     -398.44702      47465.14       36.206921      36.206921      36.206921      1.2612651     -1120.4983      2884.3667      1224.2712    
      9400   9400           300.33259      887.08308      15666.518      15052.899      3442.7731      11610.125      1476.2626      3683.5573     -3956.6481      146.49264     -2591.1147      44113.441     -31261.865     -398.73722      47430.595      36.198135      36.198135      36.198135      1.2621837      1122.5195      475.39839      1063.3314    
      9500   9500           302.50125      1111.2366      15802.23       15034.926      3467.6329      11567.294      1427.9546      3714.4953     -3981.4724      140.24062     -2579.8272      44120.651     -31274.748     -399.44832      47346.158      36.176642      36.176642      36.176642      1.2644346      36.414291      1078.4365      2218.8589    
      9600   9600           296.55497      989.50864      15668.572      14985.339      3399.4694      11585.869      1442.8476      3687.9728     -3941.686       146.19073     -2603.9168      44123.576     -31269.115     -399.45845      47344.958      36.176336      36.176336      36.176336      1.2644667      1376.1035      1902.1826     -309.7602     
      9700   9700           295.8477       1517.9679      16013.655      14965.442      3391.3619      11574.08       1410.2942      3686.9636     -3958.0308      143.68634     -2576.8444      44134.797     -31266.786     -399.42424      47349.013      36.177369      36.177369      36.177369      1.2643584      298.14574      2445.3083      1810.4496    
      9800   9800           300.81244      2653.4685      16906.473      15074.426      3448.2737      11626.152      1455.0554      3710.2333     -3970.4921      147.61459     -2587.7505      44133.08      -31261.589     -399.48314      47342.032      36.175591      36.175591      36.175591      1.2645448      2884.5687      2929.7851      2146.0518    
      9900   9900           305.27106      1256.7326      15987.579      15120.406      3499.3838      11621.023      1456.8137      3695.6589     -3967.4024      126.07575     -2539.285       44112.564     -31263.402     -399.72248      47313.685      36.168369      36.168369      36.168369      1.2653025      2562.6391      419.9673       787.5913     
     10000   10000          295.06383      1811.7837      16330.143      15079.374      3382.3762      11696.998      1485.6634      3815.4484     -3971.9137      146.61361     -2620.371       44101.852     -31260.295     -399.53101      47336.359      36.174146      36.174146      36.174146      1.2646964      1439.476       2182.1379      1813.7371    
     10100   10100          294.99222      1175.9571      15821.798      15010.896      3381.5554      11629.34       1438.4486      3706.8362     -3949.0234      157.36165     -2584.1628      44126.839     -31266.959     -399.98525      47282.602      36.160447      36.160447      36.160447      1.2661343      2142.1592      390.57628      995.13587    
     10200   10200          300.17825      1486.1733      16010.303      14986.42       3441.0039      11545.416      1448.7521      3700.6206     -3984.1186      126.72137     -2604.8991      44124.298     -31265.958     -400.35043      47239.474      36.149449      36.149449      36.149449      1.2672902      1503.1423     -56.591936      3011.9697    
     10300   10300          299.97069      2160.5211      16517.746      15028.308      3438.6246      11589.683      1442.8191      3690.4771     -3960.9446      129.26971     -2582.9789      44136.418     -31265.377     -400.08954      47270.277      36.157305      36.157305      36.157305      1.2664644      1419.6443      3430.5875      1631.3314    
     10400   10400          301.29032      245.7624       15337.731      15168.141      3453.7517      11714.389      1499.893       3720.3074     -3939.6108      150.78775     -2583.3135      44126.61      -31260.285     -399.70213      47316.093      36.168983      36.168983      36.168983      1.2652381     -469.80417      836.10182      370.98956    
     10500   10500          302.68615      897.7981       15772.934      15153.189      3469.7524      11683.437      1509.6755      3745.731      -3962.7306      148.39819     -2614.4521      44122.977     -31266.162     -399.56493      47332.341      36.173122      36.173122      36.173122      1.2648037      1849.4244      51.363047      792.60685    
     10600   10600          299.91369      1099.5885      15804.339      15045.64       3437.9712      11607.669      1440.7361      3757.9209     -3978.8162      158.3175      -2614.9126      44111.055     -31266.632     -399.74388      47311.152      36.167724      36.167724      36.167724      1.2653702      1723.077       522.68294      1053.0056    
     10700   10700          294.99637      1009.474       15693.089      14997.893      3381.603       11616.29       1489.9086      3746.5101     -4001.1536      145.78753     -2616.0068      44116.397     -31265.153     -400.50568      47221.162      36.144778      36.144778      36.144778      1.2677816      1250.0272      793.21577      985.17908    
     10800   10800          295.92673      784.14778      15542.906      15003.54       3392.2678      11611.273      1448.9077      3723.9579     -3954.9689      153.25167     -2600.4877      44105.858     -31265.247     -400.99241      47163.844      36.130147      36.130147      36.130147      1.2693224      1695.8194     -762.16534      1418.7893    
     10900   10900          299.82065      2513.7631      16809.2        15077.918      3436.9046      11641.013      1499.4879      3690.7651     -3942.1401      133.14026     -2601.3318      44125.265     -31264.173     -400.47712      47224.53       36.145637      36.145637      36.145637      1.2676912      1936.2629      2740.7835      2864.2429    
     11000   11000          310.62893     -291.18216      14955.015      15155.781      3560.8021      11594.979      1520.5755      3662.4813     -3991.0103      165.74454     -2604.5545      44103.24      -31261.498     -400.03262      47277.003      36.15902       36.15902       36.15902       1.2662842      835.82343     -1126.9273     -582.44258    
     11100   11100          300.20875      1893.7042      16410.556      15106.447      3441.3535      11665.094      1421.3759      3753.0794     -3951.5375      150.84297     -2584.3033      44141.872     -31266.236     -400.5158       47219.968      36.144473      36.144473      36.144473      1.2678137      1340.8884      963.38221      3376.842     
     11200   11200          294.57869      1305.8812      15973.999      15074.58       3376.815       11697.765      1514.4487      3705.7458     -3974.8856      166.69351     -2566.6535      44115.908     -31263.492     -400.46344      47226.142      36.146048      36.146048      36.146048      1.267648       1698.7545      1597.1244      621.76469    
     11300   11300          302.08683      2413.655       16718.953      15053.593      3462.8824      11590.71       1459.1624      3644.9829     -3988.3935      152.08332     -2555.3799      44144.145     -31265.89      -399.74972      47310.461      36.167547      36.167547      36.167547      1.2653887      2435.8171      3012.5568      1792.591     
     11400   11400          299.44752      2640.901       16814.44       14990.501      3432.6273      11557.874      1390.3203      3704.1413     -3997.8195      148.82176     -2581.2452      44157.725     -31264.069     -399.35869      47356.784      36.179348      36.179348      36.179348      1.2641509      2200.1082      3680.5502      2042.0447    
     11500   11500          293.42563      719.52269      15428.371      14931.485      3363.5972      11567.888      1489.9967      3663.23       -3995.6757      151.08869     -2599.5521      44121.091     -31262.29      -399.40064      47351.811      36.178081      36.178081      36.178081      1.2642837      1327.9588     -244.17126      1074.7805    
     11600   11600          298.19114      1927.017       16319.778      14993.128      3418.2253      11574.903      1444.5349      3691.7728     -4020.2913      149.43243     -2553.2401      44125.363     -31262.668     -400.63661      47205.73       36.14084       36.14084       36.14084       1.2681961      2351.7879      2072.5874      1356.6758    
     11700   11700          298.23867      1444.6913      16105.962      15113.162      3418.77        11694.392      1532.9655      3784.7234     -3989.9353      154.4954      -2601.1152      44070.509     -31257.251     -401.3607       47120.566      36.119093      36.119093      36.119093      1.2704882      2088.4439      1406.7685      838.86159    
     11800   11800          306.61182      2701.7983      16960.535      15106.899      3514.7531      11592.146      1444.347       3711.0567     -4001.2135      154.81506     -2549.0963      44099.791     -31267.554     -402.02186      47043.072      36.099282      36.099282      36.099282      1.2725811      2561.1513      3102.8508      2441.3929    
     11900   11900          295.04547      361.66816      15267.284      15018.532      3382.1658      11636.366      1507.6008      3723.7549     -3969.9446      151.5005      -2609.3908      44100.448     -31267.603     -401.01829      47160.8        36.12937       36.12937       36.12937       1.2694043      1258.4604     -452.94396      279.48804    
     12000   12000          299.34202      1795.7818      16226.599      14986.182      3431.4179      11554.764      1451.8379      3705.6214     -3968.2112      142.9161      -2614.4482      44107.43      -31270.382     -399.30719      47362.892      36.180903      36.180903      36.180903      1.2639879     -210.39706      3173.9343      2423.8081    
     12100   12100          296.36882      329.80796      15251.635      15023.271      3397.3356      11625.935      1473.0609      3729.3577     -3951.5469      158.90458     -2635.9534      44113.015     -31260.902     -398.34056      47477.825      36.210146      36.210146      36.210146      1.2609281      666.78928      1284.5427     -961.90812    
     12200   12200          307.20937      2373.3253      16795.564      15155.229      3521.603       11633.626      1458.3732      3722.6246     -3997.9118      165.36732     -2582.4329      44129.936     -31262.33      -399.06722      47391.373      36.188154      36.188154      36.188154      1.2632283      1580.3991      3260.7818      2278.7949    
     12300   12300          306.85639      579.8749       15546.088      15146.784      3517.5567      11629.227      1479.4318      3696.8238     -3977.2068      164.6359      -2575.9087      44101.314     -31259.863     -400.54533      47216.487      36.143585      36.143585      36.143585      1.2679072      133.14235      910.11769      696.36467    
     12400   12400          301.34806      3555.2189      17506.925      15066.97       3454.4136      11612.556      1422.767       3679.4683     -3959.4835      154.1743      -2518.8913      44099.825     -31265.304     -401.88861      47058.669      36.103271      36.103271      36.103271      1.2721593      2993.5182      4089.2372      3582.9013    
     12500   12500          301.00132      1777.6078      16218.582      14997.121      3450.4389      11546.682      1506.2394      3646.9481     -4001.2851      145.65994     -2568.2044      44083.526     -31266.202     -401.4002       47115.929      36.117908      36.117908      36.117908      1.2706132      1931.1974      2180.157       1221.4689    
     12600   12600          299.64448      688.99643      15452.082      14977.425      3434.8852      11542.54       1439.2193      3642.8323     -3941.4604      138.8175      -2580.3955      44110.064     -31266.537     -400.36704      47237.513      36.148949      36.148949      36.148949      1.2673428      1304.586       68.104814      694.29852    
     12700   12700          301.1717       2687.0967      16885.679      15028.371      3452.3919      11575.98       1493.7624      3667.9772     -4018.0918      161.26015     -2591.2843      44128.583     -31266.227     -399.04387      47394.146      36.18886       36.18886       36.18886       1.2631544      1840.6587      2796.7181      3423.9132    
     12800   12800          303.70658      941.46048      15791.838      15140.049      3481.4499      11658.599      1454.7726      3695.7173     -3960.7537      159.71225     -2569.1268      44139.875     -31261.598     -398.3972       47471.075      36.20843       36.20843       36.20843       1.2611074     -310.18034     -420.72538      3555.2872    
     12900   12900          303.64879      1177.7171      15946.583      15131.697      3480.7874      11650.909      1487.3944      3733.915      -3979.2887      138.52924     -2580.4386      44112.079     -31261.281     -398.62569      47443.865      36.20151       36.20151       36.20151       1.2618306      1278.3333      1329.7363      925.08161    
     13000   13000          305.74302      1534.0871      16132.235      15074.061      3504.794       11569.267      1501.7975      3622.0423     -3959.7037      125.22933     -2594.4306      44141.315     -31266.982     -399.86574      47296.733      36.164049      36.164049      36.164049      1.265756       1366.6913      1395.9377      1839.6323    
     13100   13100          296.89107      1010.5557      15727.192      15030.679      3403.3222      11627.357      1494.2437      3741.248      -3997.8437      158.60253     -2618.5124      44116.91      -31267.291     -400.17692      47259.956      36.154673      36.154673      36.154673      1.266741       931.83838      1426.1592      673.66958    
     13200   13200          300.24331      2069.9853      16453.892      15026.095      3441.7496      11584.346      1444.0234      3713.1998     -3988.8057      139.33641     -2581.4148      44121.553     -31263.547     -399.87304      47295.87       36.163829      36.163829      36.163829      1.2657791      3516.6468      1318.4153      1374.8938    
     13300   13300          297.27405      661.34064      15491.956      15035.162      3407.7124      11627.449      1443.9388      3755.6025     -3941.2626      161.44743     -2651.2965      44124.097     -31265.078     -399.32449      47360.841      36.180381      36.180381      36.180381      1.2640426      246.16012      321.65645      1416.2053    
     13400   13400          302.28184      1600.8665      16216.588      15113.227      3465.1177      11648.109      1490.702       3737.021      -3975.4188      133.2031      -2633.5629      44159.435     -31263.27      -400.18316      47259.218      36.154485      36.154485      36.154485      1.2667607      1909.6038      2723.6992      169.29656    
     13500   13500          305.93806      2694.9604      17026.16       15172.065      3507.0297      11665.035      1467.4396      3717.4974     -3984.3702      141.55654     -2560.1748      44151.301     -31268.215     -400.90516      47174.109      36.132768      36.132768      36.132768      1.2690462      2690.3018      2821.6686      2572.9108    
     13600   13600          305.28911      383.88628      15381.872      15117.435      3499.5907      11617.844      1422.6136      3797.6584     -3949.0007      135.27821     -2637.9784      44117.118     -31267.845     -400.40757      47232.732      36.147729      36.147729      36.147729      1.2674711      393.27895      35.345372      723.0345     
     13700   13700          299.13973      1246.9095      15879.626      15020.548      3429.0991      11591.449      1419.8548      3682.5276     -4012.3954      162.44698     -2561.8024      44160.827     -31260.01      -400.33483      47241.314      36.149919      36.149919      36.149919      1.2672408      1759.8427     -119.57804      2100.4639    
     13800   13800          298.40469      1271.4446      15873.359      14996.651      3420.6732      11575.978      1449.4311      3646.4534     -3953.0974      171.14485     -2610.6403      44136.999     -31264.313     -400.00322      47280.478      36.159905      36.159905      36.159905      1.2661911      1814.7593      1912.8092      86.765346    
     13900   13900          300.85404      882.35491      15617.727      15009.754      3448.7506      11561.004      1455.7222      3682.4895     -3920.4312      135.53519     -2625.3974      44108.282     -31275.197     -400.29543      47245.964      36.151104      36.151104      36.151104      1.2671161      2141.7136      1359.9306     -854.57946    
     14000   14000          303.09967      3087.9874      17228.677      15106.441      3474.4927      11631.948      1441.2292      3668.4464     -3957.6964      157.76367     -2538.1431      44129.178     -31268.829     -401.33123      47124.026      36.119977      36.119977      36.119977      1.2703949      2350.1969      2632.9178      4280.8475    
     14100   14100          308.17366      371.19919      15418.207      15162.822      3532.6569      11630.165      1519.0962      3680.1388     -3961.1523      150.50631     -2591.4715      44095.69      -31262.643     -400.8963       47175.151      36.133034      36.133034      36.133034      1.2690181      224.9426       1874.6788     -986.0238     
     14200   14200          299.17228      582.32957      15468.141      15066.974      3429.4723      11637.502      1477.1467      3687.8505     -3970.9711      162.73344     -2574.3331      44121.441     -31266.366     -400.37289      47236.824      36.148773      36.148773      36.148773      1.2673613      709.55519     -63.401446      1100.835     
     14300   14300          294.08436      1358.181       15927.101      14989.155      3371.1483      11618.006      1408.0697      3727.5019     -3961.6528      162.64164     -2580.3118      44132.65      -31270.892     -399.39344      47352.665      36.178299      36.178299      36.178299      1.2642609      704.04677      1744.2505      1626.2456    
     14400   14400          297.90362      1273.6073      15900.514      15019.198      3414.9293      11604.268      1493.8558      3692.4947     -3959.0235      129.14307     -2611.7921      44125.961     -31266.37      -398.58856      47448.284      36.202634      36.202634      36.202634      1.2617131      1745.8823      1626.5903      448.3495     
     14500   14500          299.83531      943.25733      15743.33       15090.732      3437.0726      11653.66       1427.7617      3794.6481     -3989.81        152.74563     -2569.357       44101.735     -31264.064     -398.66292      47439.435      36.200383      36.200383      36.200383      1.2619485      1752.128       2257.2348     -1179.5908    
     14600   14600          292.72803      930.22632      15724.565      15081.814      3355.6005      11726.214      1485.2473      3805.8759     -3968.9697      147.27605     -2541.2229      44062.13      -31264.123     -399.17847      47378.165      36.184792      36.184792      36.184792      1.2635804      236.59969     -67.404021      2621.4833    
     14700   14700          298.88121      2153.6002      16494.018      15009.24       3426.1357      11583.104      1473.1285      3719.7582     -3979.1622      132.5378      -2591.0657      44099.28      -31271.372     -400.05976      47273.796      36.158202      36.158202      36.158202      1.2663701      3365.9619      2461.1746      633.66408    
     14800   14800          292.59239      908.24752      15555.85       14930.43       3354.0456      11576.385      1440.0045      3738.578      -3984.6928      136.71717     -2594.8852      44108.064     -31267.401     -400.54727      47216.259      36.143527      36.143527      36.143527      1.2679133      1557.9205     -388.87468      1555.6967    
     14900   14900          293.95671      115.13474      15047.597      14968.448      3369.6851      11598.763      1513.528       3653.8919     -3971.9205      152.33191     -2577.8257      44095.331     -31266.574     -401.21988      47137.105      36.123318      36.123318      36.123318      1.2700424      662.07702      453.52566     -770.19847    
     15000   15000          300.02016      3902.1463      17705.318      15027.028      3439.1917      11587.836      1386.9291      3694.3077     -3959.7572      128.42789     -2513.9826      44122.851     -31270.94      -401.85296      47062.845      36.104338      36.104338      36.104338      1.2720464      2027.5221      4132.384       5546.5328    
     15100   15100          294.2534       1467.9618      16057.095      15049.739      3373.0862      11676.653      1531.2273      3747.5256     -4019.2387      152.9409      -2603.5382      44136.134     -31268.398     -401.93253      47053.528      36.101956      36.101956      36.101956      1.2722983      911.35708      1934.795       1557.7334    
     15200   15200          305.33586      2283.5514      16637.105      15069.373      3500.1266      11569.247      1422.4742      3701.6029     -4013.2464      146.84108     -2559.2506      44133.512     -31262.687     -401.75406      47074.43       36.107301      36.107301      36.107301      1.2717333      3304.5671      1824.049       1722.0381    
     15300   15300          304.52759      1106.4947      15821.428      15059.409      3490.8612      11568.547      1461.7846      3679.7554     -3965.2866      142.26924     -2601.186       44112.405     -31261.194     -400.50191      47221.606      36.144891      36.144891      36.144891      1.2677697     -883.28018      72.523875      4130.2405    
     15400   15400          301.11395      2853.1351      16938.374      14968.99       3451.73        11517.26       1476.5616      3635.6049     -3983.326       141.44826     -2589.8286      44103.709     -31266.909     -399.58867      47329.528      36.172406      36.172406      36.172406      1.2648789      2053.0321      3346.4644      3159.9088    
     15500   15500          291.89315      645.43217      15366.619      14920.335      3346.0301      11574.305      1418.9538      3755.468      -3981.962       157.15597     -2605.4959      44095.657     -31265.472     -398.89643      47411.664      36.193318      36.193318      36.193318      1.2626876      1081.1162      1210.1182     -354.93786    
     15600   15600          302.32157      921.5651       15635.886      14998.301      3465.5732      11532.728      1422.94        3681.3039     -3958.0061      157.12144     -2606.1177      44093.942     -31258.455     -398.66632      47439.03       36.20028       36.20028       36.20028       1.2619592      1006.4257      508.63282      1249.6368    
     15700   15700          303.17127      2145.0333      16548.793      15067.406      3475.3134      11592.092      1461.8336      3699.2751     -3943.7454      145.86292     -2574.7742      44065.377     -31261.736     -399.38033      47354.218      36.178694      36.178694      36.178694      1.2642194      1820.1991      4246.6112      368.28954    
     15800   15800          296.79388      2156.7763      16558.682      15074.031      3402.2081      11671.823      1511.9729      3697.7967     -3968.2027      142.576       -2531.2716      44086.225     -31267.274     -400.68403      47200.143      36.139414      36.139414      36.139414      1.2683462      2082.9415      3154.3122      1233.0752    
     15900   15900          302.47168      1098.9706      15815.49       15058.963      3467.2939      11591.669      1488.7116      3758.4373     -3976.1881      151.21797     -2596.2639      44039.401     -31273.647     -400.66627      47202.235      36.139948      36.139948      36.139948      1.26829        335.14008      682.5072       2279.2645    
     16000   16000          297.41693      3285.5955      17249.716      14991.712      3409.3502      11582.361      1395.7295      3682.8242     -3930.1108      139.71968     -2575.7954      44140.391     -31270.397     -401.33833      47123.193      36.119764      36.119764      36.119764      1.2704174      3426.3562      3321.5395      3108.8906    
     16100   16100          291.30546      1414.6296      15880.931      14908.638      3339.2933      11569.344      1465.2854      3687.2803     -3965.615       141.44818     -2604.4494      44111.358     -31265.963     -401.29788      47127.943      36.120978      36.120978      36.120978      1.2702893      521.93223      618.5093       3103.4473    
     16200   16200          289.60051      2419.5335      16619.129      14956.671      3319.7491      11636.922      1496.4101      3731.5789     -3992.0175      152.36205     -2621.0454      44137.12      -31267.486     -401.42295      47113.26       36.117226      36.117226      36.117226      1.2706852      412.88746      4974.2756      1871.4375    
     16300   16300          297.64854      813.91674      15617.262      15058.226      3412.0053      11646.221      1397.4428      3838.2961     -3962.3267      137.09323     -2639.9119      44142.82      -31267.192     -401.57019      47095.984      36.112811      36.112811      36.112811      1.2711513      1444.4607      1014.6696     -17.380053    
     16400   16400          304.25568      2397.4204      16718.583      15072.139      3487.7443      11584.395      1488.257       3653.8976     -3958.2016      143.09131     -2641.8803      44167.418     -31268.187     -401.62289      47089.805      36.111231      36.111231      36.111231      1.2713181      2352.0786      3275.3245      1564.8583    
     16500   16500          300.35587      847.61543      15612.825      15030.082      3443.04        11587.042      1425.0735      3747.6653     -3982.382       137.92666     -2604.7384      44123.738     -31260.242     -401.18307      47141.43       36.124423      36.124423      36.124423      1.2699259      566.91379      846.35017      1129.5823    
     16600   16600          296.61648      1865.2628      16264.78       14979.807      3400.1746      11579.632      1461.8361      3672.853      -3979.2098      130.84367     -2579.7624      44136.596     -31263.524     -400.37514      47236.558      36.148705      36.148705      36.148705      1.2673684      2623.1666      1660.2793      1312.3425    
     16700   16700          296.07604      1322.5766      15863.462      14951.024      3393.9794      11557.045      1445.2585      3705.1652     -3963.4197      140.6861      -2607.603       44106.359     -31269.402     -399.79635      47304.942      36.166141      36.166141      36.166141      1.2655363      2132.835       1498.6532      336.24156    
     16800   16800          297.94913      1165.8967      15804.715      15001.562      3415.451       11586.111      1455.6662      3673.3422     -3982.082       146.46853     -2547.8704      44103.158     -31262.572     -400.38977      47234.831      36.148265      36.148265      36.148265      1.2674148      73.703999      2004.6262      1419.3598    
     16900   16900          303.20752      2001.505       16475.302      15098.231      3475.729       11622.502      1512.5557      3658.7308     -3972.4559      165.22938     -2555.2557      44078.422     -31264.724     -400.88646      47176.308      36.13333       36.13333       36.13333       1.268987       2898.2902      2173.7408      932.48403    
     17000   17000          302.60585      1643.7304      16234.502      15104.107      3468.8319      11635.275      1465.1684      3712.0003     -3975.2113      126.26338     -2547.7447      44128.203     -31273.404     -401.07117      47154.582      36.127782      36.127782      36.127782      1.2695717      2077.9345      2037.3983      815.8585     
     17100   17100          298.48076      1615.5814      16139.644      15025.688      3421.5452      11604.143      1436.3069      3708.1844     -3968.2692      141.43696     -2541.1189      44096.256     -31268.653     -400.02035      47278.454      36.159389      36.159389      36.159389      1.2662454      1807.2404      1680.7174      1358.7863    
     17200   17200          296.32663      799.06493      15507.786      14956.466      3396.852       11559.614      1430.0151      3699.306      -3950.4784      156.34306     -2619.3494      44108.442     -31264.664     -399.76044      47309.192      36.167224      36.167224      36.167224      1.2654226     -167.52152      490.12831      2074.588     
     17300   17300          291.75756      2374.9166      16613.928      14975.918      3344.4758      11631.442      1452.009       3677.7606     -3959.8226      134.96332     -2508.5353      44110.647     -31275.58      -399.90146      47292.509      36.162972      36.162972      36.162972      1.265869       2997.679       1384.1816      2742.8892    
     17400   17400          299.27086     -168.87282      14898.866      15015.742      3430.6023      11585.139      1495.1827      3660.7409     -3974.053       136.64573     -2565.8005      44100.406     -31267.983     -398.52689      47455.627      36.204501      36.204501      36.204501      1.2615179      308.94916     -514.14426     -301.42335    
     17500   17500          301.28769      1361.9057      15982.979      15038.273      3453.7216      11584.551      1411.2531      3751.197      -3976.0263      138.93343     -2625.1851      44150.283     -31265.904     -397.62308      47563.495      36.231912      36.231912      36.231912      1.2586569      1504.5086      1432.2473      1148.9612    
     17600   17600          307.18217      588.17448      15490.792      15083.867      3521.2912      11562.576      1493.6575      3684.6964     -4013.2586      154.02065     -2595.3078      44111.716     -31272.949     -398.66927      47438.678      36.200191      36.200191      36.200191      1.2619686      2009.5373     -1268.3817      1023.3679    
     17700   17700          306.57925      2429.3652      16808.369      15138.941      3514.3799      11624.561      1410.0882      3682.5758     -3962.9198      149.99802     -2547.6301      44156.543     -31264.094     -401.37133      47119.318      36.118774      36.118774      36.118774      1.2705218      3527.8977      1543.6429      2216.5552    
     17800   17800          308.82933      870.77744      15752.458      15155.832      3540.1729      11615.659      1452.5056      3751.4605     -3988.4979      143.96186     -2602.5249      44120.83      -31262.076     -402.5557       46980.687      36.083317      36.083317      36.083317      1.2742709     -794.01483      1278.775       2127.5722    
     17900   17900          301.76569      3643.8437      17532.295      15036.573      3459.201       11577.372      1449.7951      3623.3355     -3946.4356      145.19103     -2536.5001      44105.486     -31263.5       -402.70298      46963.505      36.078918      36.078918      36.078918      1.2747371      3314.9509      5143.778       2472.8022    
     18000   18000          301.02292      564.15094      15369.569      14981.637      3450.6865      11530.951      1415.383       3756.7375     -3998.5467      164.08089     -2637.5484      44098.499     -31267.654     -401.10817      47150.233      36.126671      36.126671      36.126671      1.2696888     -1406.4332      1845.0464      1253.8396    
     18100   18100          294.45198      1160.6033      15775.779      14975.386      3375.3624      11600.024      1446.2636      3736.4229     -4003.7951      147.3404      -2591.9287      44137.585     -31271.864     -399.94637      47287.199      36.161619      36.161619      36.161619      1.2660112     -1934.2707      1936.3677      3479.7128    
     18200   18200          302.30175      1643.0191      16183.766      15048.652      3465.3459      11583.306      1444.3715      3698.9688     -3965.004       128.4627      -2598.36        44148.093     -31273.225     -399.23134      47371.891      36.183195      36.183195      36.183195      1.2637478      2084.433       2517.5377      327.08662    
     18300   18300          299.18496      1395.3874      16099.973      15134.956      3429.6176      11705.339      1433.0206      3803.9472     -3939.8111      145.49086     -2590.1194      44122.093     -31269.282     -398.82388      47420.289      36.195513      36.195513      36.195513      1.262458       1099.9828      2106.4368      979.74254    
     18400   18400          303.95136      293.85933      15346.693      15143.82       3484.2558      11659.564      1498.1797      3698.4299     -3986.7946      149.15826     -2570.1008      44135.454     -31264.762     -399.51711      47338.006      36.174565      36.174565      36.174565      1.2646524      1366.5757      366.63482     -851.63255    
     18500   18500          308.38064      2694.6437      16949.976      15095.145      3535.0295      11560.116      1416.2421      3685.6843     -3950.535       151.14901     -2603.8449      44125.757     -31264.337     -400.69908      47198.37       36.138961      36.138961      36.138961      1.2683938      2900.5288      3743.8803      1439.522     
     18600   18600          300.97879      2225.9891      16581.227      15052.651      3450.1807      11602.471      1496.1961      3727.5908     -3998.1433      149.51893     -2580.7837      44075.228     -31267.136     -401.65889      47085.584      36.110152      36.110152      36.110152      1.2714321      3042.0499      2047.2429      1588.6745    
     18700   18700          299.38021      1172.5331      15828.874      15023.919      3431.8557      11592.063      1425.8563      3676.0978     -3954.7766      150.40671     -2546.1639      44103.152     -31262.509     -401.76752      47072.853      36.106898      36.106898      36.106898      1.2717759      2342.2132      445.17258      730.21355    
     18800   18800          296.81727      2933.8786      17034.29       15014.044      3402.4763      11611.568      1437.0622      3726.7936     -3987.748       150.5445      -2542.6495      44096.515     -31268.95      -400.55224      47215.672      36.143377      36.143377      36.143377      1.267929       2183.6516      3357.823       3260.1613    
     18900   18900          294.53792      1027.6715      15727.059      15016.935      3376.3476      11640.588      1522.1176      3714.5413     -3973.7464      152.56937     -2591.7263      44084.549     -31267.717     -399.15497      47380.954      36.185502      36.185502      36.185502      1.2635061      941.73328      504.98727      1636.294     
     19000   19000          298.48902      38.824709      15085.534      15058.676      3421.6399      11637.036      1448.9404      3770.021      -3950.6934      155.26427     -2610.1329      44086.951     -31263.315     -398.70609      47434.298      36.199077      36.199077      36.199077      1.2620851      889.80584     -1783.394       1010.0622    
     19100   19100          303.34825      1775.1046      16324.88       15097.779      3477.3422      11620.437      1436.3272      3705.2125     -3952.4557      162.9679      -2570.1953      44102.825     -31264.245     -398.99274      47400.219      36.190406      36.190406      36.190406      1.2629925      2229.834       1438.1032      1657.3766    
     19200   19200          298.11468      1117.3637      15848.814      15077.898      3417.3488      11660.55       1493.1423      3708.0192     -3972.1441      149.37988     -2552.8842      44106.795     -31271.759     -399.76875      47308.208      36.166973      36.166973      36.166973      1.2654489     -336.80257      2025.7552      1663.1384    
     19300   19300          300.41473      974.93473      15681.943      15010.993      3443.7147      11567.278      1434.6624      3712.2961     -3999.465       153.92256     -2570.8909      44103.421     -31266.668     -400.7805       47188.781      36.136514      36.136514      36.136514      1.2686516      495.55198      525.45688      1903.7953    
     19400   19400          299.4185       2242.7898      16484.087      14941.502      3432.2947      11509.207      1438.7449      3641.3471     -3960.3275      149.65569     -2617.2761      44119.043     -31261.98      -401.01503      47161.184      36.129468      36.129468      36.129468      1.269394       2623.405       3516.4869      588.47756    
     19500   19500          294.31466      1659.7126      16091.23       14951.028      3373.7884      11577.24       1438.5384      3612.6472     -3957.3654      149.36438     -2514.5623      44112.105     -31263.488     -401.48778      47105.652      36.115282      36.115282      36.115282      1.2708904      2101.094       1406.5706      1471.4731    
     19600   19600          297.05943      1295.0184      15976.605      15085.175      3405.2522      11679.922      1526.8841      3761.4934     -4004.9327      163.80398     -2588.1017      44083.655     -31262.88      -400.6911       47199.309      36.139201      36.139201      36.139201      1.2683686      1064.312       1205.8491      1614.894     
     19700   19700          304.18212      2219.5082      16621.776      15093.081      3486.901       11606.18       1425.374       3687.3395     -3938.1193      140.83732     -2554.2822      44112.418     -31267.387     -400.45817      47226.764      36.146207      36.146207      36.146207      1.2676313      2537.0421      3307.9212      813.56116    
     19800   19800          304.31688      757.0212       15574.261      15052.592      3488.4458      11564.146      1482.2661      3654.0338     -3964.1078      139.57398     -2575.9829      44093.253     -31264.89      -400.25313      47250.957      36.152378      36.152378      36.152378      1.2669822      180.32139      2757.5615     -666.81932    
     19900   19900          300.77911      266.3215       15162.58       14978.989      3447.8916      11531.097      1468.1514      3643.5799     -3980.568       160.12963     -2607.2922      44111.263     -31264.167     -400.10532      47268.413      36.156829      36.156829      36.156829      1.2665143      1607.7108     -1669.0565      860.31015    
     20000   20000          296.48241      3335.3117      17266.073      14965.35       3398.6378      11566.712      1401.0688      3694.9432     -3995.8951      153.29342     -2553.0861      44125.983     -31259.595     -399.84657      47299.002      36.164627      36.164627      36.164627      1.2656953      2795.1653      4985.1995      2225.5702    
     20100   20100          298.24292      1385.1328      16054.119      15096.499      3418.8187      11677.681      1478.1389      3762.3476     -4029.4497      158.0686      -2563.0382      44130.668     -31259.054     -398.95108      47405.17       36.191665      36.191665      36.191665      1.2628606      213.37475      3209.7266      732.29702    
     20200   20200          303.52621      1985.9605      16499.815      15122.262      3479.3822      11642.88       1433.8419      3690.5259     -3961.0743      143.3515      -2555.7555      44145.879     -31253.888     -397.63404      47562.184      36.231579      36.231579      36.231579      1.2586916      2624.6045      1627.0437      1706.2334    
     20300   20300          302.41217      755.84601      15622.78       15097.669      3466.6118      11631.057      1472.6197      3716.8779     -4001.7745      153.77509     -2568.1743      44117.096     -31259.363     -397.01137      47636.78       36.250511      36.250511      36.250511      1.2567206      602.2523       101.48123      1563.8045    
     20400   20400          296.53102      1512.4208      16102.804      15052.004      3399.195       11652.809      1458.6924      3736.8933     -3971.7908      160.70408     -2570.0184      44106.806     -31268.478     -396.98495      47639.951      36.251315      36.251315      36.251315      1.2566369      2960.3113      579.49705      997.4541     
     20500   20500          296.15249      1924.0132      16306.244      14973.529      3394.8557      11578.673      1425.8798      3710.8031     -3959.2356      145.31447     -2603.2203      44126.561     -31267.429     -398.19132      47495.619      36.214669      36.214669      36.214669      1.2604557      1305.6385      2678.8144      1787.5868    
     20600   20600          299.47671      946.27095      15582.613      14930.785      3432.9619      11497.823      1395.6952      3619.1861     -3923.2524      149.07584     -2611.386       44133.951     -31265.447     -400.40876      47232.591      36.147694      36.147694      36.147694      1.2674749      1890.7026      1903.9856     -955.87531    
     20700   20700          297.66227      3718.0239      17449.53       14899.849      3412.1627      11487.687      1413.1548      3615.2627     -3953.9601      139.19904     -2582.4117      44124.108     -31267.666     -402.20508      47021.643      36.093799      36.093799      36.093799      1.273161       4446.0326      2626.1491      4081.8898    
     20800   20800          302.39686      1138.0725      15771.49       14992.576      3466.4362      11526.14       1410.0912      3715.3757     -3966.2084      131.83005     -2600.99        44098.065     -31262.023     -402.99711      46929.228      36.070138      36.070138      36.070138      1.2756682      1260.9617      1750.4189      402.837      
     20900   20900          301.47455      2507.9251      16785.547      15070.886      3455.8636      11615.022      1497.4899      3677.6309     -4001.5836      151.77489     -2556.6848      44110.187     -31263.792     -403.41991      46880.045      36.057533      36.057533      36.057533      1.2770065      1615.8516      3203.5912      2704.3324    
     21000   21000          307.25482      1723.0112      16255.723      15074.344      3522.124       11552.22       1370.6218      3764.0064     -3983.1292      138.467       -2627.2093      44151.629     -31262.166     -402.27228      47013.787      36.091789      36.091789      36.091789      1.2733738     -375.85438      4679.9132      864.97468    
     21100   21100          297.13932      1582.394       16116.504      15025.758      3406.168       11619.59       1425.9468      3749.7266     -3946.8746      139.95106     -2597.2554      44110.561     -31262.466     -400.14012      47264.302      36.155781      36.155781      36.155781      1.2666245      3414.9115     -510.33778      1842.6083    
     21200   21200          290.4115       329.08265      15166.731      14938.801      3329.0457      11609.755      1488.8002      3693.7955     -4013.7972      144.31088     -2577.6557      44131.117     -31256.815     -398.22069      47492.116      36.213778      36.213778      36.213778      1.2605486      659.75273     -452.3333       779.82851    
[...]
    495200   495200         299.00757      2763.5294      16888.65       14980.726      3427.5841      11553.142      1448.8988      3639.2458     -3983.6686      158.40607     -2573.0523      44132.732     -31269.42      -399.5068       47339.228      36.174877      36.174877      36.174877      1.2646197      1918.5563      2919.5612      3452.4706    
    495300   495300         303.15821     -750.48678      14501.561      15020.859      3475.1637      11545.695      1474.4288      3684.0273     -3965.8229      146.53069     -2627.2396      44102.596     -31268.825     -398.60977      47445.759      36.201992      36.201992      36.201992      1.2617803     -1181.7088     -739.31849     -330.43308    
    495400   495400         300.76347      1603.8417      16178.913      15070.247      3447.7124      11622.535      1395.0575      3714.7796     -3922.3201      158.7797      -2580.9396      44121.782     -31264.604     -399.00862      47398.333      36.189925      36.189925      36.189925      1.2630428      1659.8808      1756.2863      1395.3581    
    495500   495500         302.83378      2594.4003      16892.638      15104.031      3471.4447      11632.587      1443.2793      3699.9596     -3925.1385      155.63283     -2564.3087      44095.101     -31271.938     -400.07684      47271.778      36.157687      36.157687      36.157687      1.2664242      2728.1405      2171.6995      2883.361     
    495600   495600         299.5449       1214.68        15890.681      15054.999      3433.7436      11621.255      1413.3065      3750.3883     -3929.1452      144.84317     -2587.4579      44094.693     -31265.372     -400.90545      47174.074      36.132759      36.132759      36.132759      1.2690471      1752.512       1314.3987      577.12934    
    495700   495700         295.15394      2861.0818      16925.62       14958.628      3383.4091      11575.219      1431.302       3656.1858     -3933.3238      149.78574     -2539.5912      44081.225     -31270.364     -401.18893      47140.741      36.124247      36.124247      36.124247      1.2699445      1683.4967      4551.1674      2348.5812    
    495800   495800         295.17992      1718.7402      16153.67       14971.254      3383.707       11587.547      1469.2177      3646.0308     -3924.6298      136.486       -2600.2905      44131.257     -31270.524     -400.92321      47171.984      36.132226      36.132226      36.132226      1.2691033      2126.2703      1941.3957      1088.5548    
    495900   495900         297.52907      1029.3329      15764.094      15054.831      3410.6358      11644.196      1432.9149      3765.3616     -3936.9385      146.61528     -2600.1404      44108.72      -31272.337     -400.28556      47247.129      36.151402      36.151402      36.151402      1.2670849      1174.1188      1118.6008      795.27904    
    496000   496000         302.00687      1066.6802      15826.288      15091.074      3461.9657      11629.108      1522.7045      3709.1253     -3957.899       133.27226     -2587.8125      44083.479     -31273.761     -400.16716      47261.108      36.154967      36.154967      36.154967      1.2667101      170.69356      1973.5264      1055.8208    
    496100   496100         299.75879      1765.023       16273.462      15057.114      3436.1955      11620.919      1428.0475      3752.2804     -3938.9348      137.46878     -2571.7156      44082.194     -31268.421     -400.23399      47253.216      36.152954      36.152954      36.152954      1.2669216      784.9578       2365.515       2144.5961    
    496200   496200         301.36763      1857.7104      16297.637      15016.366      3454.638       11561.728      1482.952       3683.6745     -3997.7892      150.77345     -2559.0226      44063.426     -31262.286     -399.90645      47291.918      36.162822      36.162822      36.162822      1.2658848      3229.1993      2566.0271     -222.09502    
    496300   496300         303.12856      1095.0915      15744.827      14988.946      3474.8239      11514.122      1424.8752      3687.617      -3968.6131      151.18468     -2597.8467      44081.997     -31265.092     -399.59361      47328.943      36.172257      36.172257      36.172257      1.2648945      1769.1848      567.19831      948.89149    
    496400   496400         299.93663      1314.9264      15872.303      14965.236      3438.2342      11527.002      1465.0346      3683.2431     -3999.6768      140.48787     -2598.9212      44102.385     -31265.55      -399.83708      47300.124      36.164913      36.164913      36.164913      1.2656652      1724.7855     -33.129218      2253.1228    
    496500   496500         299.74459      1652.5972      16120.228      14980.581      3436.0327      11544.548      1428.1748      3701.3527     -3952.3935      153.90922     -2624.1111      44105.277     -31267.661     -399.961        47285.469      36.161178      36.161178      36.161178      1.2660575      2043.9218      1029.9141      1883.9556    
    496600   496600         296.13621      743.5516       15558.737      15045.802      3394.6691      11651.133      1507.6985      3786.9186     -4005.7748      129.35726     -2560.371       44060.771     -31267.467     -399.82531      47301.516      36.165268      36.165268      36.165268      1.265628      -191.72935      2104.8216      317.56254    
    496700   496700         303.47298      1540.9618      16157.584      15095.454      3478.7721      11616.682      1470.1468      3760.3555     -3976.8534      119.9257      -2589.3602      44098.082     -31265.614     -400.16177      47261.745      36.155129      36.155129      36.155129      1.266693       988.48895      936.48604      2697.9105    
    496800   496800         300.25443      1087.7996      15834.378      15084.272      3441.8771      11642.395      1453.1636      3746.1841     -3952.0777      148.6214      -2607.6236      44118.866     -31264.739     -399.98853      47282.214      36.160348      36.160348      36.160348      1.2661447      1781.9234      663.97863      817.4968     
    496900   496900         301.01797      2358.473       16624.465      14997.61       3450.6297      11546.981      1450.8697      3677.8906     -3981.3078      139.77251     -2579.8874      44105.646     -31266.003     -399.85583      47297.906      36.164348      36.164348      36.164348      1.2657246      1515.6648      3640.614       1919.1403    
    497000   497000         296.8258       1157.1044      15731.464      14933.133      3402.574       11530.559      1473.4322      3706.0443     -3976.0415      138.74951     -2673.867       44125.751     -31263.509     -399.77067      47307.981      36.166916      36.166916      36.166916      1.265455       576.48068      787.65494      2107.1777    
    497100   497100         301.81951      1659.0517      16104.019      14962.412      3459.818       11502.594      1419.0838      3709.1918     -3975.4877      141.30822     -2624.5051      44103.122     -31270.119     -400.8339       47182.495      36.134909      36.134909      36.134909      1.2688206      842.90276      2106.3442      2027.9081    
    497200   497200         304.49232      2239.86        16617.222      15077.984      3490.457       11587.527      1428.7093      3749.3549     -3979.661       134.15673     -2549.3645      44075.331     -31270.999     -401.3621       47120.402      36.119051      36.119051      36.119051      1.2704926      1336.0074      3500.0182      1883.5546    
    497300   497300         301.77246      148.96488      15208.831      15106.37       3459.2786      11647.091      1458.7664      3764.4298     -3916.0801      144.81247     -2664.5403      44120.93      -31261.227     -400.99997      47162.954      36.12992       36.12992       36.12992       1.2693463      527.9069       598.565       -679.57726    
    497400   497400         298.99245      3025.0125      17162.269      15080.861      3427.4108      11653.45       1460.8018      3729.8195     -3944.5594      138.35104     -2612.5376      44145.979     -31264.405     -400.85853      47179.595      36.134169      36.134169      36.134169      1.2688986      2582.4406      3349.1054      3143.4917    
    497500   497500         299.93617      1233.6369      15873.53       15022.062      3438.2288      11583.833      1386.4479      3792.9756     -3922.612       128.58414     -2632.567       44093.435     -31262.431     -399.61372      47326.561      36.17165       36.17165       36.17165       1.2649582      1817.0405     -97.47403       1981.3441    
    497600   497600         295.5962       833.48028      15559.497      14983.022      3388.4789      11594.543      1491.4522      3720.8357     -3972.5236      141.36721     -2613.9684      44094.026     -31266.646     -398.78272      47425.183      36.196758      36.196758      36.196758      1.2623277      93.22296       1293.2827      1113.9351    
    497700   497700         295.55115      553.46971      15434.932      15052.278      3387.9625      11664.315      1406.9747      3831.1938     -3945.0171      160.99593     -2599.3943      44078.494     -31268.932     -398.9408       47406.391      36.191976      36.191976      36.191976      1.2628281      577.49793      1339.1195     -256.20834    
    497800   497800         306.04993      3102.2699      17296.547      15156.089      3508.3121      11647.777      1484.1697      3711.7299     -3960.278       134.36815     -2562.6112      44103.942     -31263.544     -399.75524      47309.808      36.167381      36.167381      36.167381      1.2654062      4264.1202      2825.4067      2217.2829    
    497900   497900         309.97118      723.35265      15637.719      15139.212      3553.2623      11585.95       1449.5877      3721.2706     -3949.5574      145.26442     -2575.4629      44059.963     -31265.115     -400.2211       47254.738      36.153342      36.153342      36.153342      1.2668808      1582.7243      1186.2878     -598.95419    
    498000   498000         298.9571       2169.5813      16532.259      15039.662      3427.0056      11612.657      1451.0839      3664.9972     -3941.353       131.49728     -2534.3416      44100.166     -31259.393     -400.91727      47172.683      36.132404      36.132404      36.132404      1.2690845      1514.084       1279.1899      3715.4702    
    498100   498100         298.7182       2015.9148      16404.736      15017.158      3424.267       11592.891      1410.1043      3743.9807     -3930.8278      155.57005     -2607.0784      44082.333     -31261.191     -400.71529      47196.461      36.138474      36.138474      36.138474      1.2684452      2733.4086      1619.3207      1695.0152    
    498200   498200         299.96454      1845.8388      16296.333      15024.051      3438.554       11585.497      1485.7019      3671.4034     -3944.9484      129.09825     -2592.9202      44100.034     -31262.871     -400.15829      47262.156      36.155234      36.155234      36.155234      1.266682       2994.2897      1911.7221      631.50459    
    498300   498300         305.70369      1282.8952      15946.24       15059.128      3504.3432      11554.785      1402.9989      3658.0674     -3918.9027      150.53982     -2575.9403      44104.325     -31266.302     -398.87236      47414.524      36.194046      36.194046      36.194046      1.2626115      1761.4897      378.66459      1708.5313    
    498400   498400         300.59394      1253.5897      15974.156      15104.054      3445.769       11658.285      1551.7874      3707.6441     -3955.2203      137.77701     -2584.5983      44066.587     -31265.692     -397.38074      47592.502      36.239276      36.239276      36.239276      1.2578898      1721.8288      2280.4377     -241.49737    
    498500   498500         302.32582      2747.9209      17044.885      15135.446      3465.6219      11669.824      1366.2771      3742.9033     -3969.2492      150.26975     -2502.1451      44144.147     -31262.379     -396.93524      47645.917      36.252829      36.252829      36.252829      1.2564796      4170.9352      2326.473       1746.3544    
    498600   498600         296.85804      121.12801      15153.74       15069.373      3402.9436      11666.429      1475.5814      3696.9806     -3979.5935      157.42827     -2547.6661      44131.685     -31267.986     -395.9956       47758.974      36.28148       36.28148       36.28148       1.2535052     -339.82662      835.54991     -132.33925    
    498700   498700         292.80967      556.10626      15393.394      15006.516      3356.5363      11649.98       1423.9449      3741.1408     -3946.6976      153.6512      -2571.3954      44108.037     -31258.701     -396.4649       47702.441      36.267159      36.267159      36.267159      1.2549908      932.18651      446.69191      289.44037    
    498800   498800         297.79477      2841.7776      16966.373      14997.255      3413.6816      11583.574      1463.5816      3684.3981     -3980.5879      138.56527     -2547.4271      44084.169     -31259.125     -398.05172      47512.277      36.218902      36.218902      36.218902      1.2600138      1952.4883      3545.2479      3027.5967    
    498900   498900         301.86137      627.61006      15506.917      15074.587      3460.2978      11614.289      1431.409       3774.7072     -3970.8207      147.1618      -2604.8876      44097.796     -31261.076     -400.40146      47233.452      36.147913      36.147913      36.147913      1.2674518      1089.5375     -533.7677       1327.0604    
    499000   499000         304.87757      2881.639       17131.863      15161.665      3494.8732      11666.792      1455.5837      3741.7316     -3944.7161      146.95637     -2563.7424      44097.365     -31266.386     -403.41416      46880.713      36.057704      36.057704      36.057704      1.2769883      2060.3981      3658.8984      2925.6206    
    499100   499100         296.21888      1713.6564      16271.783      15102.261      3395.6168      11706.644      1497.781       3762.6331     -3947.2159      142.36551     -2581.1301      44094.947     -31262.736     -404.14449      46795.994      36.035971      36.035971      36.035971      1.2793001      666.94666      3651.3833      822.63914    
    499200   499200         297.61839      1588.1254      16105.767      15017.413      3411.6597      11605.753      1442.2927      3762.4754     -3933.6193      152.11162     -2608.6656      44055.883     -31264.725     -402.47199      46990.459      36.085819      36.085819      36.085819      1.2740059      1079.0713      1589.852       2095.4528    
    499300   499300         299.76147      484.22829      15330.991      14997.02       3436.2262      11560.794      1418.5224      3727.1719     -3952.3301      148.9929      -2616.569       44097.285     -31262.28      -399.91002      47291.496      36.162714      36.162714      36.162714      1.2658961     -642.46012      1140.0909      955.05411    
    499400   499400         299.01071      948.29844      15662.212      15004.031      3427.6201      11576.41       1474.8912      3720.5173     -4014.0863      135.70458     -2568.3772      44090.656     -31262.895     -397.39314      47591.017      36.238899      36.238899      36.238899      1.2579291      914.03909      1990.6775     -59.821276    
    499500   499500         302.17402      1682.9095      16260.5        15089.429      3463.8818      11625.547      1462.3348      3669.3123     -4022.4762      154.41541     -2521.7906      44145.415     -31261.664     -396.36785      47714.12       36.270118      36.270118      36.270118      1.2546836      2373.3858      2513.7682      161.57457    
    499600   499600         306.52829      1859.7237      16468.342      15175.201      3513.7956      11661.405      1420.1423      3779.3619     -3993.3532      141.45339     -2574.4472      44143.766     -31255.518     -396.66502      47678.374      36.261059      36.261059      36.261059      1.2556242      1707.6131      3440.8457      430.71239    
    499700   499700         306.76253      1111.29        15920.418      15149.767      3516.4808      11633.287      1515.6589      3673.964      -3995.6142      148.66932     -2581.6195      44136.308     -31264.08      -397.73271      47550.385      36.228583      36.228583      36.228583      1.2590039      486.87652      1469.3242      1377.6692    
    499800   499800         303.37364      1538.3052      16157.577      15096.032      3477.6333      11618.399      1425.437       3742.77       -3940.2556      139.21726     -2577.3893      44098.132     -31269.513     -399.6918       47317.317      36.169294      36.169294      36.169294      1.2652054      1644.7659      1510.129       1460.0207    
    499900   499900         299.52268      2100.2006      16489.86       15049.53       3433.4889      11616.041      1471.7749      3725.5204     -3958.4612      143.7607      -2574.9767      44075.544     -31267.121     -402.17959      47024.622      36.094562      36.094562      36.094562      1.2730803      1893.5182      2828.6382      1578.4453    
    500000   500000         299.47292      2726.0647      16865.371      14999.949      3432.9185      11567.03       1463.6964      3646.8502     -3986.9423      139.85829     -2518.0005      44089.679     -31268.111     -403.06985      46920.759      36.067968      36.067968      36.067968      1.2758984      3466.5095      3339.3875      1372.2971    
Loop time of 1831.82 on 1 procs for 500000 steps with 4520 atoms

Performance: 23.583 ns/day, 1.018 hours/ns, 272.952 timesteps/s, 1.234 Matom-step/s
100.0% CPU use with 1 MPI tasks x 1 OpenMP threads

MPI task timing breakdown:
Section |  min time  |  avg time  |  max time  |%varavg| %total
---------------------------------------------------------------
Pair    | 551.72     | 551.72     | 551.72     |   0.0 | 30.12
Bond    | 294.69     | 294.69     | 294.69     |   0.0 | 16.09
Kspace  | 503.4      | 503.4      | 503.4      |   0.0 | 27.48
Neigh   | 105.31     | 105.31     | 105.31     |   0.0 |  5.75
Comm    | 14.939     | 14.939     | 14.939     |   0.0 |  0.82
Output  | 5.2851     | 5.2851     | 5.2851     |   0.0 |  0.29
Modify  | 259        | 259        | 259        |   0.0 | 14.14
Other   |            | 97.47      |            |       |  5.32

Nlocal:           4520 ave        4520 max        4520 min
Histogram: 1 0 0 0 0 0 0 0 0 0
Nghost:          15401 ave       15401 max       15401 min
Histogram: 1 0 0 0 0 0 0 0 0 0
Neighs:              0 ave           0 max           0 min
Histogram: 1 0 0 0 0 0 0 0 0 0
FullNghs:  2.77272e+06 ave 2.77272e+06 max 2.77272e+06 min
Histogram: 1 0 0 0 0 0 0 0 0 0

Total # of neighbors = 2772720
Ave neighs/atom = 613.43363
Ave special neighs/atom = 5.5353982
Neighbor list builds = 16833
Dangerous builds = 0

# --- Cleanup ---
unfix npt_fix
unfix shake_fix
undump dump_npt

# --- Write Output ---
write_dump all custom /home/arz2/PolyJarvis/data/PLA1/lammps/mechanical/bm_series/bm_P1500/bm_P1500_last.dump id type mol x y z xu yu zu vx vy vz modify sort id
write_data /home/arz2/PolyJarvis/data/PLA1/lammps/mechanical/bm_series/bm_P1500/bm_P1500_out.data
System init for write_data ...
PPPM Kokkos initialization ...
  using 12-bit tables for long-range coulomb
  G vector (1/distance) = 0.33545178
  grid = 40 40 40
  stencil order = 5
  estimated absolute RMS force accuracy = 0.00040665915
  estimated relative force accuracy = 1.224642e-06
  using double precision cuFFT
  3d grid and FFT values/proc = 103823 64000
Generated 21 of 21 mixed pair_coeff terms from sixthpower/sixthpower mixing rule

print "STAGE COMPLETE: NPT T=300.0->300.0K P=1500.0->1500.0atm steps=500000"
STAGE COMPLETE: NPT T=300.0->300.0K P=1500.0->1500.0atm steps=500000
quit
