units real
atom_style full
boundary p p p

# --- Force Field (injected via PAIR_STYLE_BLOCK) ---
pair_style lj/cut 14.0
dielectric 1.000000
bond_style harmonic
angle_style harmonic
dihedral_style multi/harmonic
improper_style none
special_bonds lj 0 0 0
pair_modify mix arithmetic tail yes
neighbor 2.0 bin
neigh_modify delay 0 every 1 check yes
neigh_modify one 4000
package gpu 1 neigh yes

read_data /home/arz2/PolyJarvis/data/cis-PBD3/lammps/nvt_softheat/nvt_softheat_out.data
Reading data file ...
  orthogonal box = (0 0 0) to (68.178378 68.178378 68.178378)
  1 by 1 by 1 MPI processor grid
  reading atoms ...
  8040 atoms
  reading velocities ...
  8040 velocities
  scanning bonds ...
  2 = max bonds/atom
  scanning angles ...
  1 = max angles/atom
  scanning dihedrals ...
  2 = max dihedrals/atom
  orthogonal box = (0 0 0) to (68.178378 68.178378 68.178378)
  1 by 1 by 1 MPI processor grid
  reading bonds ...
  8020 bonds
  reading angles ...
  8000 angles
  reading dihedrals ...
  7980 dihedrals
Finding 1-2 1-3 1-4 neighbors ...
  special bond factors lj:    0        0        0       
  special bond factors coul:  0        0        0       
     2 = max # of 1-2 neighbors
     2 = max # of 1-3 neighbors
     4 = max # of 1-4 neighbors
     6 = max # of special neighbors
  special bonds CPU = 0.002 seconds
  read_data CPU = 0.122 seconds
include /home/arz2/PolyJarvis/data/cis-PBD3/lammps/cell/emc_build.params
# LAMMPS parameters created by EMC v9.4.4, build Jul 31 2025 20:33:44

# Variables

variable	seed		index	986450
variable	ntotal		index	8040
variable	fshape		index	1
variable	output		index	emc_build
variable	field		index	trappe/2014/trappe-ua
variable	location1	index	/home/arz2/emc/field/
variable	nav		index	0.6022141179
variable	temperature	index	300
variable	radius		index	5
variable	nrelax		index	100
variable	weight_nonbond	index	0.0001
variable	weight_bond	index	0.0001
variable	weight_focus	index	1
variable	cutoff		index	14
variable	charge_cutoff	index	14
variable	kappa		index	4
variable	density1	index	0.57
variable	lprevious	index	0
variable	lphase		index	68.1783775471
variable	f_poly		index	20
variable	chem_repeat	index	*C/C=C\C*
variable	chem_cap	index	*C
variable	lg_repeat	index	4
variable	lg_cap		index	1
variable	norm_poly	index	100
variable	l_poly		index	402
variable	mg_repeat	index	54.0914
variable	mg_cap		index	15.0347
variable	m_poly		index	5439.2094
variable	n_poly		index	20
variable	mtotal		index	108784.188
variable	nphase1		index	8040
variable	mphase1		index	108784.188
variable	vphase1		index	316912.949994
variable	lbox		index	68.1783775471
variable	lphase1		index	68.1783775471
variable	lxx		index	68.1783775471
variable	lyy		index	68.1783775471
variable	lzz		index	68.1783775471
variable	lzy		index	0
variable	lzx		index	0
variable	lyx		index	0
variable	vtotal		index	316912.949994
variable	nl_poly		index	20

# Types

variable	type_c3h	index	1
variable	type_c4h2	index	2
variable	type_c4h3	index	3

variable	type_bond_c3h_c3h index	1
variable	type_bond_c3h_c4h2 index	2
variable	type_bond_c4h2_c4h2 index	3
variable	type_bond_c4h2_c4h3 index	4

variable	type_angle_c3h_c3h_c4h2 index	1
variable	type_angle_c3h_c4h2_c4h2 index	2
variable	type_angle_c3h_c4h2_c4h3 index	3

# Clusters

variable	n0_poly		index	1
variable	n1_poly		index	20
variable	nl_poly		index	20

# Flags

variable	flag_charged	index	0

# Masses

mass		1    13.01890  # c3h
mass		2    14.02680  # c4h2
mass		3    15.03470  # c4h3

# Potentials

pair_modify	mix arithmetic tail yes
special_bonds	lj 0 0 0 coul 0 0 0.5
Finding 1-2 1-3 1-4 neighbors ...
  special bond factors lj:    0        0        0       
  special bond factors coul:  0        0        0.5     
     2 = max # of 1-2 neighbors
     2 = max # of 1-3 neighbors
     4 = max # of 1-4 neighbors
     6 = max # of special neighbors
  special bonds CPU = 0.002 seconds

# Pair Coeffs

pair_coeff	1 1    0.09340    3.71000  # c3h,c3h
pair_coeff	2 2    0.09141    3.95000  # c4h2,c4h2
pair_coeff	3 3    0.19475    3.75000  # c4h3,c4h3

# Bond Coeffs

bond_coeff	1  529.99987    1.33000  # c3h,c3h
bond_coeff	2  260.00013    1.54000  # c3h,c4h2
bond_coeff	3  260.00013    1.54000  # c4h2,c4h2
bond_coeff	4  260.00013    1.54000  # c4h2,c4h3

# Angle Coeffs

angle_coeff	1   69.96954  119.70000  # c3h,c3h,c4h2
angle_coeff	2   62.10020  114.00000  # c3h,c4h2,c4h2
angle_coeff	3   62.10020  114.00000  # c3h,c4h2,c4h3

# Dihedral Coeffs

dihedral_coeff	1    1.91086    1.85422    0.43627   -2.24348    0.00000  # c3h,c3h,c4h2,c4h2
dihedral_coeff	2    1.91086    1.85422    0.43627   -2.24348    0.00000  # c3h,c3h,c4h2,c4h3
dihedral_coeff	3    2.00702   -4.01203    0.27102    6.29006    0.00000  # c3h,c4h2,c4h2,c3h
dihedral_coeff	4   25.63496    0.99360  -25.63496   -0.99360    0.00000  # c4h2,c3h,c3h,c4h2


# --- Thermo Output ---
thermo_style custom step time temp press enthalpy etotal ke pe ebond eangle edihed eimp evdwl ecoul vol lx ly lz density pxx pyy pzz
thermo_modify flush yes
thermo 1000

# --- Trajectory ---
dump dump_comp all custom 2000 npt_compress.dump id type mol x y z ix iy iz vx vy vz

restart 10000 compress_1.rst compress_2.rst
velocity all create 600.0 672302 mom yes rot yes dist gaussian
# SHAKE disabled (TraPPE-UA united-atom)

# --- NPT Compression ---
# High pressure compresses the cell from low to target density
# P ramp: 1.0 -> 50000.0 atm
timestep 0.5
fix npt_comp all npt temp 480.0 480.0 100.0 iso 1.0 50000.0 1000.0

run 500000

CITE-CITE-CITE-CITE-CITE-CITE-CITE-CITE-CITE-CITE-CITE-CITE-CITE

Your simulation uses code contributions which should be cited:

- GPU package (short-range, long-range and three-body potentials): doi:10.1016/j.cpc.2010.12.021, doi:10.1016/j.cpc.2011.10.012, doi:10.1016/j.cpc.2013.08.002, doi:10.1016/j.commatsci.2014.10.068, doi:10.1016/j.cpc.2016.10.020, doi:10.3233/APC200086

@Article{Brown11,
 author = {W. M. Brown and P. Wang and S. J. Plimpton and A. N. Tharrington},
 title = {Implementing Molecular Dynamics on Hybrid High Performance Computers---Short Range Forces},
 journal = {Comput.\ Phys.\ Commun.},
 year =    2011,
 volume =  182,
 pages =   {898--911},
 doi =     {10.1016/j.cpc.2010.12.021}
}

@Article{Brown12,
 author = {W. M. Brown and A. Kohlmeyer and S. J. Plimpton and A. N. Tharrington},
 title = {Implementing Molecular Dynamics on Hybrid High Performance Computers - Particle-Particle Particle-Mesh},
 journal = {Comput.\ Phys.\ Commun.},
 year =    2012,
 volume =  183,
 doi =     {10.1016/j.cpc.2011.10.012},
 pages =   {449--459}
}

@Article{Brown13,
 author = {W. M. Brown and Y. Masako},
 title = {Implementing Molecular Dynamics on Hybrid High Performance Computers---Three-Body Potentials},
 journal = {Comput.\ Phys.\ Commun.},
 year =    2013,
 volume =  184,
 pages =   {2785--2793},
 doi =     {10.1016/j.cpc.2013.08.002},
}

@Article{Trung15,
 author = {T. D. Nguyen and S. J. Plimpton},
 title = {Accelerating Dissipative Particle Dynamics Simulations for Soft Matter Systems},
 journal = {Comput.\ Mater.\ Sci.},
 year =    2015,
 doi =     {10.1016/j.commatsci.2014.10.068},
 volume =  100,
 pages =   {173--180}
}

@Article{Trung17,
 author = {T. D. Nguyen},
 title = {{GPU}-Accelerated {T}ersoff Potentials for Massively Parallel
    Molecular Dynamics Simulations},
 journal = {Comput.\ Phys.\ Commun.},
 year =    2017,
 doi =     {10.1016/j.cpc.2016.10.020},
 volume =  212,
 pages =   {113--122}
}

@inproceedings{Nikolskiy19,
 author = {V. Nikolskiy and V. Stegailov},
 title = {{GPU} Acceleration of Four-Site Water Models in {LAMMPS}},
 booktitle = {Proceedings of the International Conference on Parallel
    Computing (ParCo 2019), Prague, Czech Republic},
 doi =     {10.3233/APC200086},
 year =    2019
}

CITE-CITE-CITE-CITE-CITE-CITE-CITE-CITE-CITE-CITE-CITE-CITE-CITE

Generated 3 of 3 mixed pair_coeff terms from arithmetic mixing rule
Per MPI rank memory allocation (min/avg/max) = 15.42 | 15.42 | 15.42 Mbytes
   Step          Time           Temp          Press         Enthalpy        TotEng         KinEng         PotEng         E_bond        E_angle        E_dihed        E_impro         E_vdwl         E_coul         Volume           Lx             Ly             Lz          Density          Pxx            Pyy            Pzz      
         0   0              600            164.44257      26472.87       25712.841      14377.639      11335.202      3853.9994      3762.3839      10090.939      0             -6372.1204      0              316912.95      68.178378      68.178378      68.178378      0.56999999    -47.546518     -169.9858       710.86002    
      1000   500            474.01279     -167.53116      21760.728      22515.122      11358.642      11156.48       3747.2791      3744.2063      10116.959      0             -6451.9635      0              308764.23      67.588944      67.588944      67.588944      0.58504308    -551.12555      27.157934      21.374141    
      2000   1000           481.90046      454.63428      24601.451      22613.322      11547.651      11065.67       3736.8987      3855.2246      10104.524      0             -6630.9775      0              299851.77      66.932267      66.932267      66.932267      0.60243226     392.96214      298.17763      672.76308    
      3000   1500           481.42734      234.53714      23376.405      22384.784      11536.314      10848.47       3763.6559      3702.0136      10139.045      0             -6756.2449      0              289906.62      66.183954      66.183954      66.183954      0.62309849     531.68319     -104.93609      276.86432    
      4000   2000           485.95845      419.13675      24149.858      22424.144      11644.892      10779.252      3824.044       3778.1275      10090.974      0             -6913.8931      0              282317.17      65.601297      65.601297      65.601297      0.63984908     250.67432      623.32199      383.41393    
      5000   2500           475.5314       775.16197      24955.397      21866.485      11395.031      10471.454      3794.0687      3693.1403      9981.399       0             -6997.1543      0              273235.48      64.890188      64.890188      64.890188      0.66111611     722.35516      747.85125      855.27951    
      6000   3000           479.33067      250.16842      22862.687      21895.365      11486.072      10409.293      3672.7491      3683.152       10185.994      0             -7132.6019      0              265132.25      64.242266      64.242266      64.242266      0.68132178     165.35808     -147.77333      732.92053    
      7000   3500           476.64729      57.621658      22045.671      21829.935      11421.771      10408.163      3742.1173      3703.7219      10159.319      0             -7196.9949      0              256720.76      63.555577      63.555577      63.555577      0.70364539    -233.10578      325.4054       80.565357    
      8000   4000           483.40071      42.547031      22037.847      21883.907      11583.602      10300.305      3675.9646      3710.1779      10153.391      0             -7239.2277      0              248088.73      62.835105      62.835105      62.835105      0.72812812     23.862649     -14.347784      118.12623    
      9000   4500           488.22717      346.13637      23152.097      21942.221      11699.257      10242.964      3703.6931      3735.978       10189.587      0             -7386.2944      0              239672.25      62.116348      62.116348      62.116348      0.75369752    -30.209085      617.18864      451.42955    
     10000   5000           476.00358      849.50016      24328.116      21448.26       11406.346      10041.914      3661.4706      3777.1552      10119.928      0             -7516.6394      0              232450.96      61.486124      61.486124      61.486124      0.77711178     283.11671      1156.9311      1108.4527    
     11000   5500           486.13146      1195.6461      25402.517      21472.438      11649.038      9823.4005      3633.3184      3663.6629      10107.96       0             -7581.5406      0              225383.77      60.856581      60.856581      60.856581      0.80147907     1109.3508      941.79734      1535.7901    
     12000   6000           485.70416      524.50643      23210.237      21520.88       11638.799      9882.0812      3576.6486      3773.7033      10241.843      0             -7710.1135      0              220848.65      60.445631      60.445631      60.445631      0.81793743     626.59202      639.79423      307.13303    
     13000   6500           479.5016       822.30472      23939.021      21356.242      11490.168      9866.0737      3673.9159      3835.5891      10252.49       0             -7895.9212      0              215366.71      59.941304      59.941304      59.941304      0.83875721     787.06899      829.44097      850.40419    
     14000   7000           478.68478      1178.2938      24768.138      21124.073      11470.595      9653.4781      3661.9441      3798.6094      10144.665      0             -7951.7403      0              212058.95      59.632846      59.632846      59.632846      0.85184037     945.55954      1575.8794      1013.4425    
     15000   7500           480.06223      1375.1611      25377.324      21167.449      11503.602      9663.8467      3594.7339      3822.5364      10200.021      0             -7953.4448      0              209913.21      59.43103       59.43103       59.43103       0.86054794     1573.0745      1441.8496      1110.5591    
     16000   8000           478.17795      1461.0613      25707.712      21249.113      11458.45       9790.6632      3664.4506      3878.4868      10305.411      0             -8057.6854      0              209244.48      59.367852      59.367852      59.367852      0.86329819     1623.0478      1001.2245      1758.9117    
     17000   8500           482.45375      1641.2428      26057.548      21105.329      11560.91       9544.4188      3612.7636      3765.5165      10308.841      0             -8142.702       0              206895.53      59.144864      59.144864      59.144864      0.87309946     1763.5788      1866.8413      1293.3083    
     18000   9000           485.89282      1918.9295      26839.92       21099.26       11643.319      9455.9405      3582.6396      3850.136       10165.598      0             -8142.4328      0              205128.92      58.976043      58.976043      58.976043      0.88061876     1707.0236      2247.4788      1802.2861    
     19000   9500           481.94268      2404.7428      28091.131      20931.541      11548.663      9382.878       3569.2654      3802.0628      10259.245      0             -8247.6956      0              204147.3       58.881818      58.881818      58.881818      0.88485316     2263.2009      2454.3001      2496.7273    
     20000   10000          481.15508      1679.4031      25833.696      20855.802      11529.79       9326.0113      3578.5696      3837.7137      10189.38       0             -8279.6515      0              203242.64      58.794714      58.794714      58.794714      0.88879171     915.37285      2084.7374      2038.0991    
     21000   10500          479.68955      2074.5017      27103.978      21010.263      11494.672      9515.591       3633.5868      3903.8662      10252.256      0             -8274.1177      0              201415.29      58.617975      58.617975      58.617975      0.89685534     1688.7238      2768.1426      1766.6387    
     22000   11000          481.77963      2189.1304      27456.187      21031.713      11544.756      9486.9566      3684.7794      3900.691       10220.485      0             -8318.999       0              201228.76      58.599874      58.599874      58.599874      0.89768668     1616.7341      2673.0434      2277.6137    
     23000   11500          493.35327      2568.7237      28730.93       21248.981      11822.092      9426.8883      3636.195       3920.7935      10291.836      0             -8421.9362      0              199719.96      58.453047      58.453047      58.453047      0.90446835     2115.4544      2310.4144      3280.3023    
     24000   12000          480.55862      2830.7574      28939.058      20761.746      11515.497      9246.2491      3673.9609      3714.0504      10251.262      0             -8393.0239      0              198076.08      58.292231      58.292231      58.292231      0.91197474     2739.9997      3212.8648      2539.4075    
     25000   12500          479.10225      2899.2688      29158.499      20752.529      11480.599      9271.9308      3687.1089      3760.6498      10213.673      0             -8389.5011      0              198803.23      58.363476      58.363476      58.363476      0.90863903     3009.0122      2851.5734      2837.2208    
     26000   13000          484.13547      2676.2347      28555.305      20858.748      11601.209      9257.5391      3655.421       3849.4413      10186.539      0             -8433.8623      0              197195.23      58.205694      58.205694      58.205694      0.91604842     2807.4957      2472.8334      2748.375     
     27000   13500          484.56472      3589.3651      31039.314      20776.362      11611.494      9164.8673      3631.8371      3817.2087      10231.198      0             -8515.3769      0              196055.39      58.093329      58.093329      58.093329      0.92137419     3900.6132      3025.4253      3842.0568    
     28000   14000          480.5099       2951.2594      29019.068      20567.361      11514.33       9053.0311      3593.7465      3735.9747      10285.997      0             -8562.6869      0              196363.69      58.123764      58.123764      58.123764      0.9199276      2720.3562      3122.1377      3011.2843    
     29000   14500          481.07546      3104.1155      29581.588      20788.08       11527.882      9260.1975      3704.3124      3833.173       10283.709      0             -8560.9965      0              194244.36      57.9139        57.9139        57.9139        0.92996458     2955.6648      2901.8992      3454.7826    
     30000   15000          481.89643      2660.114       28307.192      20816.784      11547.555      9269.2286      3796.5918      3776.4901      10329.046      0             -8632.8997      0              193076.47      57.797597      57.797597      57.797597      0.93558982     2139.8262      3069.8596      2770.6562    
     31000   15500          476.70436      2996.4697      28888.59       20447.224      11423.139      9024.0848      3699.3584      3731.0135      10216.999      0             -8623.2862      0              193164.35      57.806365      57.806365      57.806365      0.93516417     2892.5739      2899.1861      3197.6492    
     32000   16000          476.67434      2692.7875      28012.04       20448.148      11422.419      9025.729       3665.1319      3834.3807      10270.281      0             -8744.0643      0              192604.89      57.750503      57.750503      57.750503      0.93788053     2363.3289      2542.4827      3172.551     
     33000   16500          474.76092      2697.8042      27843.357      20333          11376.569      8956.4318      3699.7139      3771.8444      10204.754      0             -8719.8808      0              190886.06      57.578199      57.578199      57.578199      0.94632566     2679.4734      2491.7612      2922.1781    
     34000   17000          477.67127      3692.4183      30779.937      20472.777      11446.309      9026.4685      3743.7543      3857.8864      10195.348      0             -8770.5205      0              191404.53      57.630281      57.630281      57.630281      0.94376229     3199.5203      4350.7577      3526.977     
     35000   17500          481.07282      3478.6061      30221.064      20546.58       11527.819      9018.7614      3765.1108      3744.7592      10285.838      0             -8776.9467      0              190698.22      57.559305      57.559305      57.559305      0.94725782     3778.4611      3797.9066      2859.4504    
     36000   18000          484.12817      3845.1297      31336.406      20705.392      11601.034      9104.358       3732.4757      3932.8721      10217.046      0             -8778.0356      0              189577.95      57.446372      57.446372      57.446372      0.95285542     3854.2541      4414.5403      3266.5946    
     37000   18500          483.66581      4226.0379      32305.355      20611.908      11589.954      9021.9535      3779.2641      3789.1425      10241.347      0             -8787.8         0              189728.81      57.461606      57.461606      57.461606      0.95209776     4824.8163      3935.1075      3918.19      
     38000   19000          480.18937      4472.4667      32988.123      20713.481      11506.649      9206.8314      3812.1478      3925.9436      10237.138      0             -8768.3981      0              188185.37      57.305365      57.305365      57.305365      0.95990659     4264.5953      4670.0188      4482.7858    
     39000   19500          482.85101      3915.7778      31345.387      20603.445      11570.429      9033.015       3800.6079      3779.5376      10278.293      0             -8825.4234      0              188100.05      57.296703      57.296703      57.296703      0.96034201     3954.7266      4575.6693      3216.9375    
     40000   20000          482.48585      4081.5977      31728.561      20559.319      11561.679      8997.6403      3765.7335      3840.7284      10263.379      0             -8872.201       0              187636.61      57.24961       57.24961       57.24961       0.96271391     4174.1518      4420.6781      3649.9631    
     41000   20500          478.62437      4080.9822      31704.259      20531.1        11469.148      9061.952       3844.8715      3892.7961      10215.854      0             -8891.5697      0              187730.75      57.259182      57.259182      57.259182      0.96223117     4109.7286      4088.5171      4044.7008    
     42000   21000          483.49515      4435.0573      32393.241      20393.848      11585.865      8807.9829      3790.8678      3713.0447      10198.953      0             -8894.883       0              185517.19      57.033241      57.033241      57.033241      0.97371233     4510.0563      4846.2066      3948.909     
     43000   21500          478.42414      4333.1053      32110.452      20331.824      11464.349      8867.4749      3776.0717      3789.6953      10185.59       0             -8883.8819      0              186388.7       57.12241       57.12241       57.12241       0.96915952     5143.683       3629.4208      4226.212     
     44000   22000          481.6619       4325.3582      32114.345      20399.169      11541.935      8857.2342      3750.9461      3827.7419      10222.554      0             -8944.0076      0              185716.66      57.053675      57.053675      57.053675      0.97266653     4224.2754      4113.9954      4637.8037    
     45000   22500          484.12965      5125.4578      34486.2        20665.911      11601.069      9064.8423      3854.689       3822.6604      10282.938      0             -8895.4449      0              184887.94      56.968685      56.968685      56.968685      0.9770263      4342.0671      5016.602       6017.7042    
     46000   23000          481.14615      4433.799       32392.182      20476.35       11529.576      8946.7739      3741.1627      3832.3134      10209.642      0             -8836.3438      0              184277.57      56.905926      56.905926      56.905926      0.9802624      4981.812       3878.9788      4440.6061    
     47000   23500          478.83619      4741.116       33175.888      20425.292      11474.223      8951.0687      3803.8993      3867.4536      10188.553      0             -8908.8377      0              184405.56      56.919098      56.919098      56.919098      0.97958204     5441.0199      4454.058       4328.2701    
     48000   24000          475.30788      4921.9852      33485.396      20323.13       11389.675      8933.4543      3743.1769      3848.4723      10312.607      0             -8970.8021      0              183364.17      56.811749      56.811749      56.811749      0.98514547     5510.5347      4524.8795      4730.5414    
     49000   24500          473.20517      5349.7765      34649.417      20245.201      11339.289      8905.9122      3815.6969      3772.2899      10218.365      0             -8900.44        0              184619.72      56.941123      56.941123      56.941123      0.97844574     5287.7786      5524.6343      5236.9165    
     50000   25000          476.76372      4848.892       33336.276      20325.367      11424.561      8900.8058      3834.2974      3709.4886      10287.363      0             -8930.3433      0              183987.89      56.876092      56.876092      56.876092      0.98180581     4936.4568      4711.8172      4898.402     
     51000   25500          482.80044      5467.7709      35027.965      20428.016      11569.218      8858.7983      3831.184       3773.7086      10176.225      0             -8922.319       0              183090.22      56.783443      56.783443      56.783443      0.98661946     5345.1705      5122.097       5936.0451    
     52000   26000          476.61964      5463.5496      34938.596      20430.827      11421.109      9009.7185      3878.3485      3783.2996      10263.287      0             -8915.217       0              182074.8       56.678273      56.678273      56.678273      0.99212181     5166.4197      4627.7117      6596.5175    
     53000   26500          475.51963      5655.3254      35217.13       20222.004      11394.749      8827.2543      3816.3455      3781.5941      10184.579      0             -8955.2639      0              181809.53      56.650735      56.650735      56.650735      0.99356938     6251.5383      5084.5482      5629.8898    
     54000   27000          477.27743      5712.1165      35419.702      20281.949      11436.871      8845.0781      3782.4221      3769.6148      10219.79       0             -8926.7491      0              181714.03      56.640815      56.640815      56.640815      0.99409151     5386.6657      5126.0898      6623.5941    
     55000   27500          467.75261      5486.0888      34598.316      20135.181      11208.63       8926.551       3804.3828      3917.4486      10180.294      0             -8975.5748      0              180768.9       56.542443      56.542443      56.542443      0.99928904     4906.7303      6213.1762      5338.3597    
     56000   28000          481.45762      5963.7423      36164.805      20402.93       11537.04       8865.8903      3860.8336      3810.3232      10185.731      0             -8990.9973      0              181222.91      56.58974       56.58974       56.58974       0.99678555     6588.9633      5924.9727      5377.2909    
     57000   28500          478.35827      5993.1537      36049.694      20285.398      11462.771      8822.6267      3781.3325      3794.187       10224.232      0             -8977.1251      0              180361.26      56.49991       56.49991       56.49991       1.0015475      6019.835       5667.968       6291.6582    
     58000   29000          480.92841      6452.1454      37310.528      20325.132      11524.359      8800.7732      3834.7584      3705.8059      10242.748      0             -8982.5392      0              180507.66      56.515193      56.515193      56.515193      1.0007352      6464.1359      7122.8611      5769.4392    
     59000   29500          476.53771      5875.5757      35676.936      20243.69       11419.145      8824.5449      3790.3599      3854.9085      10172.712      0             -8993.4354      0              180107.14      56.473362      56.473362      56.473362      1.0029606      5447.7464      6048.5454      6130.4353    
     60000   30000          478.06539      6036.7929      36227.887      20364.773      11455.753      8909.0202      3839.1652      3838.8848      10154.065      0             -8923.0945      0              180179.87      56.480963      56.480963      56.480963      1.0025558      6494.6698      6388.01        5227.6989    
     61000   30500          480.6781       6772.2647      38141.406      20507.239      11518.36       8988.8791      3894.5718      3774.7138      10267.152      0             -8947.558       0              178543.94      56.309505      56.309505      56.309505      1.0117418      6722.1794      6626.6727      6967.9419    
     62000   31000          485.41585      6509.4777      37476.231      20475.62       11631.89       8843.7299      3748.3007      3870.141       10188.203      0             -8962.9149      0              179078.12      56.365605      56.365605      56.365605      1.0087239      6723.9935      6686.1875      6118.252     
     63000   31500          472.27255      6734.7344      37524.609      19923.141      11316.941      8606.2001      3713.957       3771.7587      10147.204      0             -9026.7197      0              179206         56.379019      56.379019      56.379019      1.0080041      6271.0427      7086.1586      6847.0019    
     64000   32000          484.13178      5726.983       35198.264      20279.453      11601.12       8678.3324      3720.1755      3797.0407      10170.539      0             -9009.4231      0              178620.97      56.317601      56.317601      56.317601      1.0113056      5583.6117      5933.7806      5663.5567    
     65000   32500          480.00074      6855.1773      38129.973      20346.932      11502.129      8844.8031      3820.9513      3799.4844      10166.876      0             -8942.509       0              177873.58      56.238942      56.238942      56.238942      1.0155549      6812.9302      6936.2379      6816.3638    
     66000   33000          470.95566      6262.5025      36296.83       20083.314      11285.384      8797.9298      3895.4621      3742.015       10152.656      0             -8992.2036      0              177522.5       56.201918      56.201918      56.201918      1.0175633      5928.8078      6222.7049      6635.9948    
     67000   33500          479.26459      5686.2452      35056.42       20282.84       11484.489      8798.3508      3845.7319      3700.343       10245.902      0             -8993.6263      0              178149.36      56.267993      56.267993      56.267993      1.0139827      5366.2025      5752.2211      5940.3121    
     68000   34000          478.90937      7167.5327      38855.876      20322.58       11475.977      8846.6029      3848.9799      3795.9233      10235.078      0             -9033.3787      0              177299.33      56.178357      56.178357      56.178357      1.0188441      7139.7982      6297.8519      8064.9481    
     69000   34500          482.88044      6900.6404      38255.554      20410.245      11571.134      8839.1108      3834.1743      3732.5564      10271.114      0             -8998.7334      0              177320.43      56.180585      56.180585      56.180585      1.0187229      7462.5763      6532.4652      6706.8796    
     70000   35000          482.86991      7113.7953      38705.273      20412.3        11570.882      8841.4181      3761.2611      3845.9797      10216.239      0             -8982.0618      0              176322.22      56.074965      56.074965      56.074965      1.0244902      6640.5188      6709.9393      7990.9277    
     71000   35500          482.44581      7701.1993      40311.244      20520.471      11560.72       8959.7516      3837.5004      3837.0347      10296.703      0             -9011.4867      0              176209.17      56.062978      56.062978      56.062978      1.0251475      7717.2915      7109.748       8276.5584    
     72000   36000          478.49655      7523.8562      39580.763      20314.965      11466.085      8848.8803      3782.1537      3812.5747      10226.673      0             -8972.5208      0              175578.21      55.995983      55.995983      55.995983      1.0288314      7297.1752      7918.9952      7355.3981    
     73000   36500          486.61588      7967.2192      40909.553      20518.268      11660.646      8857.6222      3777.5273      3771.8424      10201.813      0             -8893.5601      0              175493.87      55.987015      55.987015      55.987015      1.0293259      8328.4535      8268.3111      7304.8929    
     74000   37000          485.61224      7291.3364      39165.842      20511.396      11636.596      8874.8         3768.3264      3835.6597      10207.928      0             -8937.1142      0              175428.17      55.980028      55.980028      55.980028      1.0297114      7546.4134      7192.5247      7135.071     
     75000   37500          481.89065      6976.0172      38261.388      20485.326      11547.416      8937.9094      3865.0918      3858.8117      10224.362      0             -9010.356       0              174723.83      55.905008      55.905008      55.905008      1.0338623      6815.5909      7477.2756      6635.1851    
     76000   38000          481.93921      8003.5582      40815.154      20449.087      11548.58       8900.507       3841.549       3933.6062      10150.923      0             -9025.571       0              174481.01      55.879098      55.879098      55.879098      1.0353011      8508.4752      7368.4023      8133.7973    
     77000   38500          485.5727       7437.3351      39435.583      20473.94       11635.648      8838.2919      3825.0118      3887.526       10148.507      0             -9022.7526      0              174816.62      55.914903      55.914903      55.914903      1.0333135      6643.4996      7889.7966      7778.7092    
     78000   39000          480.82837      7358.3126      39091.233      20384.978      11521.961      8863.0164      3871.7034      3883.0489      10190.212      0             -9081.948       0              174314.18      55.861283      55.861283      55.861283      1.0362919      7463.6978      7187.629       7423.6111    
     79000   39500          477.00021      7152.3596      38522.441      20285.331      11430.228      8855.103       3903.613       3736.7399      10231.872      0             -9017.1223      0              174835.97      55.916966      55.916966      55.916966      1.0331992      7206.237       7332.2848      6918.557     
     80000   40000          482.54689      7916.9932      40566.319      20453.296      11563.142      8890.1539      3798.4637      3858.9038      10273.771      0             -9040.9841      0              174197.21      55.848786      55.848786      55.848786      1.0369878      7665.9826      8197.5263      7887.4707    
     81000   40500          476.56733      7924.378       40398.866      20353.91       11419.855      8934.0551      3757.5268      3912.5723      10278.004      0             -9014.0481      0              173445.89      55.768377      55.768377      55.768377      1.0414797      7812.1414      7695.1793      8265.8132    
     82000   41000          473.33931      8346.9829      41405.377      20267.812      11342.503      8925.3092      3829.246       3867.7177      10222.177      0             -8993.8311      0              173639.91      55.789163      55.789163      55.789163      1.040316       8884.927       8427.1521      7728.8696    
     83000   41500          483.29748      8413.0422      41558.411      20364.293      11581.128      8783.1645      3801.9536      3871.4097      10187.231      0             -9077.43        0              172737.41      55.69234       55.69234       55.69234       1.0457513      8299.0605      8077.4023      8862.6638    
     84000   42000          476.94137      7830.1026      40002.042      20284.091      11428.818      8855.273       3862.2954      3847.3617      10111.049      0             -8965.4327      0              172670.61      55.685161      55.685161      55.685161      1.0461559      7876.0193      8379.6663      7234.6222    
     85000   42500          476.05268      8887.9815      42773.077      20364.453      11407.523      8956.9299      3808.9127      3870.5432      10269.733      0             -8992.2595      0              172876.58      55.707293      55.707293      55.707293      1.0449095      9179.0909      8974.7384      8510.1151    
     86000   43000          478.61771      8037.9567      40600.681      20472.918      11468.988      9003.9302      3851.5751      3902.6919      10272.968      0             -9023.3053      0              171701.45      55.580782      55.580782      55.580782      1.0520609      8058.668       7541.6925      8513.5096    
     87000   43500          481.69622      8692.7246      42483.281      20701.8        11542.757      9159.0428      3853.4186      4008.0679      10357.65       0             -9060.0933      0              171812.83      55.592798      55.592798      55.592798      1.0513789      8254.6289      9193.1411      8630.4039    
     88000   44000          483.09141      8945.6624      42974.974      20591.07       11576.19       9014.8798      3879.5187      3916.3158      10299.533      0             -9080.4876      0              171572.41      55.566855      55.566855      55.566855      1.0528521      9386.8131      8861.2847      8588.8892    
     89000   44500          480.20374      9126.2648      43252.509      20451.826      11506.994      8944.8324      3927.2479      3801.8157      10213.642      0             -8997.8733      0              171308.5       55.538349      55.538349      55.538349      1.0544741      9292.6307      9175.2987      8910.865     
     90000   45000          480.38316      9413.4889      43932.126      20423.114      11511.293      8911.8207      3816.9013      3899.3537      10222.818      0             -9027.2521      0              171241.05      55.531059      55.531059      55.531059      1.0548895      8776.9482      9767.0234      9696.4949    
     91000   45500          474.71348      9241.6847      43252.837      20229.727      11375.432      8854.295       3825.0485      3771.8406      10231.584      0             -8974.1779      0              170819.3       55.485433      55.485433      55.485433      1.0574939      9926.2725      9499.7123      8299.0692    
     92000   46000          486.47116      8608.4388      42018.091      20473.843      11657.178      8816.6646      3820.2666      3806.9824      10193.871      0             -9004.4557      0              171605.45      55.570421      55.570421      55.570421      1.0526495      8331.8074      8680.0517      8813.4574    
     93000   46500          476.60032      8981.6887      42582.75       20151.605      11420.646      8730.9592      3872.312       3783.9475      10149.456      0             -9074.7565      0              171244.86      55.531472      55.531472      55.531472      1.054866       9187.2349      8036.1697      9721.6615    
     94000   47000          473.88777      9010.9995      42711.476      20227.976      11355.646      8872.3303      3769.189       3908.8808      10265.026      0             -9070.766       0              171086.23      55.51432       55.51432       55.51432       1.055844       10098.401      8640.4051      8294.1927    
     95000   47500          476.58878      9072.8641      42873.058      20340.266      11420.369      8919.897       3706.1265      3965.2057      10258.92       0             -9010.3549      0              170292.18      55.428301      55.428301      55.428301      1.0607673      8721.4881      8834.5777      9662.5266    
     96000   48000          482.12208      9626.007       44293.901      20428.487      11552.962      8875.525       3745.3967      3920.394       10218.537      0             -9008.8023      0              169999.21      55.396497      55.396497      55.396497      1.0625954      9265.3744      10360.755      9251.8915    
     97000   48500          478.85821      9253.6944      43264.314      20297.374      11474.751      8822.6229      3735.3466      3888.5502      10223.407      0             -9024.6808      0              170181.41      55.41628       55.41628       55.41628       1.0614578      8918.347       9500.7062      9342.03      
     98000   49000          480.2011       10038.389      45162.508      20291.653      11506.93       8784.723       3795.1857      3805.3286      10238.909      0             -9054.7005      0              169883.34      55.383908      55.383908      55.383908      1.0633202      9333.2462      10118.102      10663.82     
     99000   49500          475.83326      9255.7427      43334.64       20403.198      11402.265      9000.933       3870.1314      3804.2768      10297.666      0             -8971.1412      0              169880.76      55.383628      55.383628      55.383628      1.0633363      9956.6625      8931.5864      8878.9791    
    100000   50000          491.4495       9704.7899      44946.811      20968.193      11776.473      9191.7205      3912.7531      3881.9546      10367.772      0             -8970.7589      0              169419         55.333402      55.333402      55.333402      1.0662345      9809.7954      8604.268       10700.306    
    101000   50500          485.8598       10557.319      46438.688      20436.985      11642.528      8794.4565      3740.8816      3803.6214      10192.1        0             -8942.1461      0              168877.69      55.274407      55.274407      55.274407      1.0696521      10734.453      10141.716      10795.788    
    102000   51000          476.57747      10820.093      47139.308      20390.732      11420.098      8970.6334      3776.5064      3848.2485      10285.291      0             -8939.4126      0              169509.4       55.343242      55.343242      55.343242      1.0656658      11372.757      10396.302      10691.22     
    103000   51500          478.13048      10439.195      45790.662      20144.097      11457.313      8686.7846      3722.7226      3772.574       10205.214      0             -9013.7261      0              168455.92      55.228354      55.228354      55.228354      1.0723302      9840.3286      10498.851      10978.406    
    104000   52000          475.58834      10121.047      45381.877      20439.532      11396.396      9043.1357      3841.7169      3867.3594      10214.406      0             -8880.3466      0              168980.25      55.285594      55.285594      55.285594      1.0690029      10469.602      9442.7175      10450.823    
    105000   52500          476.6723       10451.154      46137.804      20451.431      11422.37       9029.0609      3720.4561      3940.8271      10287.359      0             -8919.5812      0              168524.35      55.23583       55.23583       55.23583       1.0718948      10470.429      10421.615      10461.417    
    106000   53000          476.232        10220.11       45486.817      20333.527      11411.82       8921.7075      3799.1661      3810.9243      10271.081      0             -8959.4636      0              168757.6       55.261302      55.261302      55.261302      1.0704133      9564.7062      9916.9716      11178.652    
    107000   53500          479.2543       11080.036      47583.367      20465.831      11484.242      8981.5884      3775.6264      3774.383       10292.279      0             -8860.6996      0              167815.92      55.158323      55.158323      55.158323      1.0764198      11777.618      10148.989      11313.502    
    108000   54000          480.24215      10656.293      46816.181      20690.275      11507.914      9182.3612      3740.6952      3973.4352      10287.341      0             -8819.11        0              168108.36      55.190344      55.190344      55.190344      1.0745473      11235.5        10064.66       10668.72     
    109000   54500          484.43335      11164.424      47755.369      20479.809      11608.347      8871.4624      3719.4497      3813.9107      10255.915      0             -8917.813       0              167517.99      55.125662      55.125662      55.125662      1.0783342      11080.543      10897.897      11514.834    
    110000   55000          487.77478      11911.65       49946.933      20863.238      11688.416      9174.822       3868.995       3903.3603      10225.22       0             -8822.7531      0              167417.84      55.114675      55.114675      55.114675      1.0789792      12702.505      11489.097      11543.349    
    111000   55500          480.88221      11192.875      48071.103      20743.495      11523.251      9220.2436      3928.6382      3809.1361      10373.268      0             -8890.7988      0              167411.04      55.113928      55.113928      55.113928      1.0790231      11000.032      11256.48       11322.113    
    112000   56000          486.64114      10826.468      47103.55       20647.578      11661.251      8986.3264      3832.8611      3875.4102      10187.305      0             -8909.2495      0              167556.4       55.129875      55.129875      55.129875      1.078087       11222.099      10330.817      10926.489    
    113000   56500          484.93739      11247.928      48037.424      20665.956      11620.425      9045.5314      3831.7947      3883.6256      10206.004      0             -8875.8927      0              166859.01      55.053283      55.053283      55.053283      1.0825929      11225.812      10439.978      12077.994    
    114000   57000          481.70974      12294.612      50327.256      20591.385      11543.081      9048.3039      3780.4091      3844.3577      10223.676      0             -8800.1388      0              165840.25      54.941011      54.941011      54.941011      1.0892433      12198.322      12153.683      12531.83     
    115000   57500          477.48204      11623.255      48730.465      20591.082      11441.774      9149.3076      3870.4217      3836.9859      10245.473      0             -8803.5727      0              166001.08      54.958766      54.958766      54.958766      1.088188       11892.767      10797.198      12179.802    
    116000   58000          480.25194      11231.095      47846.061      20542.637      11508.149      9034.4886      3814.7809      3951.4854      10273.932      0             -9005.7095      0              166693.67      55.035093      55.035093      55.035093      1.0836667      11542.49       10408.458      11742.339    
    117000   58500          476.79197      11935.684      49327.932      20437.018      11425.238      9011.7794      3816.5689      3847.1223      10223.877      0             -8875.7885      0              165973.25      54.955694      54.955694      54.955694      1.0883705      11114.336      12926.948      11765.769    
    118000   59000          483.20394      11605.41       48909.094      20753.786      11578.886      9174.8998      3874.9706      3897.6076      10225.794      0             -8823.4726      0              166350.42      54.997291      54.997291      54.997291      1.0859028      12173.595      11217.256      11425.38     
    119000   59500          472.83143      11484.347      48302.873      20546.152      11330.333      9215.8186      3816.1862      3901.9633      10322.105      0             -8824.4362      0              165724.21      54.928194      54.928194      54.928194      1.090006       11714.4        11039.554      11699.087    
    120000   60000          481.74793      11829.96       49182.615      20606.229      11543.996      9062.2326      3850.8822      3896.3885      10193.568      0             -8878.6066      0              165633.49      54.918169      54.918169      54.918169      1.090603       11799.218      11353.347      12337.314    
    121000   60500          475.40893      12049.326      49460.061      20404.244      11392.097      9012.1476      3702.8594      3877.7177      10284.032      0             -8852.4616      0              165346.29      54.886409      54.886409      54.886409      1.0924973      12623.784      11352.758      12171.435    
    122000   61000          484.76884      12502.084      50819.747      20655.873      11616.386      9039.4869      3857.9357      3848.6378      10244.857      0             -8911.944       0              165435.54      54.896282      54.896282      54.896282      1.091908       12136.663      12811.45       12558.14     
    123000   61500          478.74788      12314.205      50219.278      20559.031      11472.107      9086.9241      3811.1951      3854.5501      10222.848      0             -8801.6688      0              165155.28      54.865266      54.865266      54.865266      1.0937608      12253.667      12469.65       12219.3      
    124000   62000          482.80876      11761.525      49052.847      20710.858      11569.417      9141.441       3865.2649      3914.5498      10307.168      0             -8945.5413      0              165230.72      54.873619      54.873619      54.873619      1.0932614      12355.434      11739.651      11189.489    
    125000   62500          485.44779      12386.494      50745.263      20917.063      11632.655      9284.4072      3889.7897      3930.7289      10183.063      0             -8719.1741      0              165121.17      54.861488      54.861488      54.861488      1.0939868      12171.103      12501.088      12487.292    
    126000   63000          478.23348      12991.433      51688.096      20571.797      11459.781      9112.0165      3791.3534      3749.3453      10315.964      0             -8744.646       0              164230.95      54.762719      54.762719      54.762719      1.0999168      12685.788      13343.942      12944.568    
    127000   63500          481.88787      13132.233      52197.365      20712.916      11547.35       9165.5656      3878.6553      3830.7491      10285.142      0             -8828.9805      0              164392.36      54.780654      54.780654      54.780654      1.0988368      12696.022      13200.23       13500.447    
    128000   64000          479.38488      13254.524      52512.652      20758.23       11487.371      9270.8583      3814.0649      3819.5627      10364.838      0             -8727.6071      0              164272.24      54.767308      54.767308      54.767308      1.0996403      12996.346      13304.528      13462.699    
    129000   64500          484.86762      13086.859      52058.724      20710.115      11618.753      9091.3619      3873.4194      3792.9386      10152.755      0             -8727.7512      0              164250.6       54.764903      54.764903      54.764903      1.0997852      12605.927      14113.902      12540.747    
    130000   65000          480.3855       13381.161      52862.409      20811.437      11511.349      9300.0882      3922.0305      3910.7603      10289.996      0             -8822.6989      0              164237.19      54.763413      54.763413      54.763413      1.099875       13573.164      12949.064      13621.256    
    131000   65500          473.05513      13440.978      52515.719      20380.016      11335.693      9044.3227      3746.058       3800.8539      10289.173      0             -8791.7621      0              163938.54      54.730198      54.730198      54.730198      1.1018787      13042.017      13221.293      14059.622    
    132000   66000          482.77189      14082.465      54387.65       20748.113      11568.533      9179.5796      3883.6724      3778.9959      10304.854      0             -8787.9426      0              163793.04      54.714002      54.714002      54.714002      1.1028575      14125.576      14345.175      13776.644    
    133000   66500          485.5327       13326.762      52642.855      20854.893      11634.69       9220.2025      3787.8374      3822.0876      10390.972      0             -8780.6939      0              163554.37      54.687414      54.687414      54.687414      1.1044668      14161.762      13433.272      12385.251    
    134000   67000          471.01729      12867.899      51034.389      20338.451      11286.861      9051.5901      3747.6286      3792.3766      10329.388      0             -8817.803       0              163567.63      54.688892      54.688892      54.688892      1.1043773      12591.185      12968.609      13043.904    
    135000   67500          481.7854       13244.681      52334.083      20730.345      11544.894      9185.4502      3916.0389      3810.9524      10213.317      0             -8754.858       0              163614.22      54.694084      54.694084      54.694084      1.1040628      13225.195      14025.086      12483.764    
    136000   68000          480.13166      14010.626      54214.683      20810.711      11505.266      9305.4445      3928.7038      3869.9839      10293.36       0             -8786.6036      0              163480.02      54.679126      54.679126      54.679126      1.1049691      13778.829      14521.921      13731.127    
    137000   68500          478.42077      13930.589      53924.292      20759.812      11464.269      9295.5433      3858.0974      3856.9129      10271.257      0             -8690.7236      0              163240.47      54.652405      54.652405      54.652405      1.1065907      13536.734      13848.414      14406.617    
    138000   69000          486.7416       14017.696      54338.72       20996.864      11663.659      9333.2059      3833.9307      3924.7738      10277.017      0             -8702.516       0              163093.72      54.636023      54.636023      54.636023      1.1075864      14567.012      13478.657      14007.419    
    139000   69500          478.40608      13794.636      53632.065      20800.46       11463.917      9336.5428      3950.461       3827.1997      10299.267      0             -8740.3848      0              163194.67      54.647294      54.647294      54.647294      1.1069012      13857.283      13036.332      14490.294    
    140000   70000          480.02086      13287.46       52294.758      20737.59       11502.611      9234.9783      3908.1802      3807.6234      10297.842      0             -8778.6672      0              162847.14      54.608475      54.608475      54.608475      1.1092634      13339.556      13890.702      12632.123    
    141000   70500          476.82914      14260.382      54686.409      20852.954      11426.129      9426.8252      3884.4473      3911.9495      10321.51       0             -8691.0813      0              162681.92      54.590001      54.590001      54.590001      1.11039        13066.49       14895.549      14819.108    
    142000   71000          482.49168      14285.092      54730.307      20824.05       11561.819      9262.2313      3856.5704      3820.9195      10327.325      0             -8742.5834      0              162749.96      54.59761       54.59761       54.59761       1.1099258      14811.074      14337.6        13706.604    
    143000   71500          476.29177      14592.516      55301.542      20764.934      11413.252      9351.6823      3921.7676      3853.0975      10322.431      0             -8745.6135      0              162283.21      54.545367      54.545367      54.545367      1.1131181      14767.319      14147.142      14863.088    
    144000   72000          485.45421      14089.758      54485.723      21140.615      11632.809      9507.8055      3881.9482      3991.443       10330.819      0             -8696.4043      0              162275.41      54.544492      54.544492      54.544492      1.1131716      14223.601      14201.207      13844.466    
    145000   72500          483.63597      13709.214      53173.876      20789.289      11589.239      9200.0496      3755.8814      3879.1544      10231.861      0             -8666.8469      0              161975.72      54.510894      54.510894      54.510894      1.1152312      14152.17       13574.727      13400.746    
    146000   73000          481.37737      14252.97       54374.842      20696.888      11535.117      9161.7709      3793.6097      3818.7873      10291.812      0             -8742.4378      0              162018.44      54.515686      54.515686      54.515686      1.1149371      13776.531      14992.029      13990.349    
    147000   73500          482.2944       14745.23       55728.449      20950.294      11557.091      9393.2027      3897.0964      3907.1942      10268.106      0             -8679.1939      0              161725.72      54.482835      54.482835      54.482835      1.1169552      15146.806      14402.958      14685.926    
    148000   74000          481.77724      14357.126      54862.961      21063.761      11544.699      9519.0621      3803.8746      4021.5411      10281.25       0             -8587.6033      0              161422.11      54.44872       54.44872       54.44872       1.119056       14057.319      14307.177      14706.881    
    149000   74500          480.95237      15027.386      56352.225      21054.341      11524.933      9529.4084      3865.2672      3923.8719      10372.686      0             -8632.4169      0              161060.61      54.408044      54.408044      54.408044      1.1215677      15343.25       14447.635      15291.273    
    150000   75000          484.91575      14493.462      55111.563      20995.738      11619.906      9375.8323      3864.9152      3892.1941      10274.616      0             -8655.8932      0              161401.6       54.446414      54.446414      54.446414      1.1191982      13802.488      14352.038      15325.86     
    151000   75500          486.50417      15337.213      57160.578      21149.986      11657.969      9492.0171      3900.5784      3916.9469      10356.67       0             -8682.1777      0              160993.34      54.400468      54.400468      54.400468      1.1220363      14482.102      15541.609      15987.929    
    152000   76000          482.43401      15408.779      57206.927      21025.535      11560.437      9465.0982      3834.6164      3918.0959      10312.543      0             -8600.1577      0              161005.67      54.401857      54.401857      54.401857      1.1219504      14862.199      15970.404      15393.733    
    153000   76500          477.9231       14785.307      55642.656      20988.626      11452.343      9536.2824      3840.8626      4016.4834      10268.784      0             -8589.8476      0              160711.71      54.368728      54.368728      54.368728      1.1240026      14401.216      15321.761      14632.944    
    154000   77000          485.98294      16500.164      59665.997      21121.536      11645.479      9476.0566      3931.1229      3857.5058      10280.287      0             -8592.8591      0              160176.14      54.308267      54.308267      54.308267      1.1277608      16624.124      16434.745      16441.623    
    155000   77500          488.2936       15475.312      57551.658      21363.098      11700.849      9662.2495      3907.1265      4019.4604      10300.327      0             -8564.6645      0              160345.21      54.327368      54.327368      54.327368      1.1265717      15317.535      15146.968      15961.433    
    156000   78000          480.31262      15738.03       57800.143      20989.127      11509.602      9479.5243      3759.8126      3931.5584      10307.826      0             -8519.6732      0              160380.49      54.331352      54.331352      54.331352      1.1263239      15922.142      15492.729      15799.22     
    157000   78500          473.67879      15842.189      57893.655      20913.301      11350.638      9562.6627      3913.8643      3945.5087      10245.132      0             -8541.8419      0              160058.96      54.29502       54.29502       54.29502       1.1285865      16258.838      15364.752      15902.977    
    158000   79000          483.04822      16251.814      59075.805      21060.33       11575.155      9485.175       3840.8157      3887.9036      10294.21       0             -8537.7546      0              160391.99      54.332651      54.332651      54.332651      1.1262431      16169.81       16156.962      16428.671    
    159000   79500          484.67586      15464.28       57269.966      21223.071      11614.158      9608.913       3945.8791      3814.1337      10387.168      0             -8538.2675      0              159831.46      54.269284      54.269284      54.269284      1.1301929      15628.115      15867.461      14897.263    
    160000   80000          476.5501       15276.846      56697.938      21031.042      11419.442      9611.5995      3910.9272      3897.443       10315.426      0             -8512.1971      0              160086.88      54.298177      54.298177      54.298177      1.1283897      15052.77       15250.207      15527.56     
    161000   80500          476.9198       16174.793      58528.198      20834.221      11428.301      9405.9197      3801.5587      3917.3745      10182.616      0             -8495.6295      0              159792.85      54.264913      54.264913      54.264913      1.130466       15870.825      16574.224      16079.33     
    162000   81000          477.70012      16656.01       59833.275      20912.511      11447          9465.5109      3925.0548      3871.0735      10270.822      0             -8601.4398      0              160226.56      54.313964      54.313964      54.313964      1.127406       16236.009      16384.247      17347.773    
    163000   81500          485.18474      15695.508      57716.328      21155.3        11626.352      9528.9478      3841.5907      3942.6914      10280.359      0             -8535.6932      0              159722.88      54.256992      54.256992      54.256992      1.1309612      16561.188      14841.359      15683.977    
    164000   82000          474.15781      17042.895      60558.165      20937.049      11362.117      9574.9322      3934.111       3887.8954      10331.647      0             -8578.7214      0              159407.02      54.221203      54.221203      54.221203      1.1332022      17820.733      16129.647      17178.306    
    165000   82500          477.38685      17357.987      61276.51       21001.437      11439.493      9561.9437      3827.4518      3980.4936      10252.859      0             -8498.8611      0              159096.66      54.185992      54.185992      54.185992      1.1354127      17894.172      17625.611      16554.179    
    166000   83000          485.27285      16794.25       60165.929      21197.737      11628.463      9569.2739      3902.3836      3870.6931      10236.627      0             -8440.4293      0              159101.31      54.186519      54.186519      54.186519      1.1353796      17265.708      16057.756      17059.285    
    167000   83500          490.81484      16961.527      60536.363      21208.884      11761.265      9447.6192      3752.4644      3812.8387      10314.953      0             -8432.6367      0              158984.68      54.173275      54.173275      54.173275      1.1362125      17137.032      16748.065      16999.483    
    168000   84000          491.60999      16378.244      59320.761      21327.004      11780.318      9546.6851      3825.8964      3889.9853      10268.575      0             -8437.7719      0              159062.95      54.182163      54.182163      54.182163      1.1356534      16455.204      16142.256      16537.271    
    169000   84500          477.56023      17353.81       61198.758      21111.625      11443.648      9667.9772      3856.1066      3930.617       10285.641      0             -8404.3873      0              158392.38      54.105917      54.105917      54.105917      1.1404613      16879.219      17523.386      17658.824    
    170000   85000          477.71937      17091.127      60832.369      21278.456      11447.461      9830.9953      3940.4023      3913.8598      10364.505      0             -8387.7718      0              158687.55      54.139506      54.139506      54.139506      1.1383399      17638.466      16451.183      17183.731    
    171000   85500          470.88599      17046.55       60162.816      20839.6        11283.715      9555.8848      3801.9748      3818.9353      10314.511      0             -8379.5358      0              158174.56      54.081104      54.081104      54.081104      1.1420318      16362.695      17095.539      17681.416    
    172000   86000          471.41997      16806.892      59829.329      21091.516      11296.51       9795.0054      3907.4966      3908.3138      10348.194      0             -8368.999       0              158041.74      54.065962      54.065962      54.065962      1.1429916      17273.888      16541.841      16604.946    
    173000   86500          485.57425      16743.024      59983.663      21314.384      11635.686      9678.698       3894.1283      3806.8655      10296.378      0             -8318.6736      0              158363.94      54.102678      54.102678      54.102678      1.1406661      17249.182      15870.403      17109.487    
    174000   87000          477.35411      18202.336      63273.345      21355.233      11438.709      9916.5247      3964.5132      3977.9197      10345.88       0             -8371.7877      0              157906.02      54.050481      54.050481      54.050481      1.143974       18362.451      18177.011      18067.546    
    175000   87500          479.96157      17169.202      60663.707      21152.302      11501.19       9651.1112      3878.0843      3880.1247      10292.22       0             -8399.3179      0              157796.18      54.037946      54.037946      54.037946      1.1447703      18120.555      16607.149      16779.901    
    176000   88000          480.18853      17905.6        62499.168      21192.191      11506.629      9685.5616      3872.4235      3920.1523      10257.965      0             -8364.9791      0              158182.57      54.082017      54.082017      54.082017      1.1419739      17331.217      18250.202      18135.382    
    177000   88500          480.28682      17738.145      62040.856      21120.613      11508.984      9611.6282      3870.1169      3866.1474      10285.015      0             -8409.6516      0              158180.92      54.081829      54.081829      54.081829      1.1419859      18387.914      17987.486      16839.036    
    178000   89000          480.30277      17780.452      62125.098      21160.969      11509.366      9651.603       3858.0563      3879.7279      10307.367      0             -8393.5484      0              157973.79      54.058212      54.058212      54.058212      1.1434832      17589.941      17808.825      17942.59     
    179000   89500          479.7861       17236.992      60907.209      21204.889      11496.986      9707.9032      3860.988       3903.7257      10352.213      0             -8409.0238      0              157935.05      54.053793      54.053793      54.053793      1.1437637      17481.792      17158.154      17071.031    
    180000   90000          479.6204       17967.066      62483.392      21165.036      11493.015      9672.0211      3855.2745      3912.1232      10305.807      0             -8401.1834      0              157684.86      54.025235      54.025235      54.025235      1.1455785      17508.627      18010.321      18382.249    
    181000   90500          487.44783      17467.762      61839.046      21666.924      11680.582      9986.3427      3916.4592      3954.3369      10373.596      0             -8258.0492      0              157692.71      54.026131      54.026131      54.026131      1.1455214      17954.341      16959.447      17489.498    
    182000   91000          480.61396      18019.594      62558.086      21207.329      11516.824      9690.5058      3799.3945      3916.6866      10333.265      0             -8358.8407      0              157348.49      53.986792      53.986792      53.986792      1.1480274      17872.658      18479.628      17706.495    
    183000   91500          483.33574      18421.353      63663.277      21309.763      11582.045      9727.7178      3882.8266      3912.9586      10304.476      0             -8372.5431      0              157649.3       54.021173      54.021173      54.021173      1.1458369      18551.697      17606.093      19106.268    
    184000   92000          474.60629      17965.536      62469.565      21253.419      11372.863      9880.556       3847.9605      3982.1235      10370.643      0             -8320.1711      0              157308.18      53.982182      53.982182      53.982182      1.1483216      18669.219      18131.546      17095.842    
    185000   92500          472.8712       18526.585      63775.984      21259.817      11331.286      9928.5313      3905.9345      3950.2376      10378.082      0             -8305.7224      0              157355.83      53.987632      53.987632      53.987632      1.1479739      18608.484      18252.356      18718.916    
    186000   93000          474.03545      17888.014      62117.399      21103.322      11359.184      9744.1374      3868.9257      3898.0881      10367.824      0             -8390.7         0              157215.34      53.97156       53.97156       53.97156       1.1489997      18115.939      17756.857      17791.248    
    187000   93500          478.10261      18567.543      63739.27       21251.336      11456.645      9794.6912      3831.1568      3898.2869      10361.417      0             -8296.1698      0              156904.46      53.935962      53.935962      53.935962      1.1512762      18546.641      18942.537      18213.45     
    188000   94000          474.84758      18699.508      64125.547      21353.714      11378.645      9975.0691      3911.6896      3910.0173      10296.21       0             -8142.8483      0              156838.18      53.928366      53.928366      53.928366      1.1517628      19230.029      18471.799      18396.695    
    189000   94500          488.38831      19126.214      65251.269      21467.992      11703.118      9764.8741      3920.1636      3886.9976      10283.519      0             -8325.806       0              156965.2       53.94292       53.94292       53.94292       1.1508308      19577.887      19110.587      18690.169    
    190000   95000          482.02265      19392.05       65654.002      21313.914      11550.579      9763.3349      3872.9753      3832.8055      10315.713      0             -8258.1586      0              156782.27      53.921957      53.921957      53.921957      1.1521735      18844.806      19251.124      20080.219    
    191000   95500          481.77187      18876.699      64443.796      21335.709      11544.57       9791.1392      3842.8803      3817.198       10327.353      0             -8196.2917      0              156587.4       53.899608      53.899608      53.899608      1.1536074      18530.448      18753.289      19346.359    
    192000   96000          478.02659      19495.292      65934.694      21421.824      11454.823      9967.0009      3913.6627      4010.5479      10295.186      0             -8252.3958      0              156559.69      53.896429      53.896429      53.896429      1.1538115      19459.146      19612.512      19414.217    
    193000   96500          477.73268      18648.852      64066          21486.667      11447.78       10038.887      4021.5629      3980.2335      10302.61       0             -8265.5197      0              156556.41      53.896051      53.896051      53.896051      1.1538357      19740.167      17828.253      18378.137    
    194000   97000          469.33721      19391.322      65505.704      21302.82       11246.602      10056.218      3972.5994      3998.9826      10236.901      0             -8152.2652      0              156303         53.866956      53.866956      53.866956      1.1557064      19108.84       19800.396      19264.729    
    195000   97500          482.86644      19239.875      65437.977      21607.524      11570.799      10036.725      4034.8655      3929.9645      10324.691      0             -8252.7967      0              156206.04      53.855816      53.855816      53.855816      1.1564237      19384.633      18735.657      19599.334    
    196000   98000          475.9934       20006.527      66985.779      21424.131      11406.102      10018.029      3927.9593      4028.8294      10271.088      0             -8209.8484      0              156153.54      53.849781      53.849781      53.849781      1.1568126      19501.605      19869.944      20648.032    
    197000   98500          485.10711      18711.212      64148.428      21520.825      11624.492      9896.3336      3886.4342      3962.6357      10310.001      0             -8262.7376      0              156211.53      53.856447      53.856447      53.856447      1.1563831      18684.831      17757.228      19691.577    
    198000   99000          484.51535      19935.401      66799.352      21599.353      11610.312      9989.0417      3926.4529      4024.9949      10256.765      0             -8219.171       0              155466.76      53.77072       53.77072       53.77072       1.1619228      20193.246      20337.25       19275.708    
    199000   99500          486.01677      19863.735      66830.314      21771.3        11646.29       10125.011      4009.5745      3919.9631      10240.145      0             -8044.6718      0              155540.99      53.779277      53.779277      53.779277      1.1613683      20731.976      18909.409      19949.822    
    200000   100000         479.82853      19144.852      65320.536      21839.057      11498.002      10341.055      4003.5449      4122.5735      10272.221      0             -8057.2851      0              155731.48      53.801222      53.801222      53.801222      1.1599477      19441.558      18211.226      19781.771    
    201000   100500         494.24131      19458.988      66012.645      21850.916      11843.372      10007.545      3862.1414      3985.8185      10274.534      0             -8114.9492      0              155614.45      53.787742      53.787742      53.787742      1.1608201      19278.819      19220.878      19877.266    
    202000   101000         479.31569      19978.651      67051.847      21781.375      11485.713      10295.661      3999.5173      3957.3547      10363.296      0             -8024.5064      0              155372.08      53.759802      53.759802      53.759802      1.1626309      20935.723      19589.636      19410.593    
    203000   101500         480.02515      20477.597      67986.287      21689.1        11502.714      10186.386      4027.0415      3962.5916      10255.406      0             -8058.6538      0              155024.28      53.719658      53.719658      53.719658      1.1652393      20022.667      20654.756      20755.368    
    204000   102000         476.80473      21127.403      69452.841      21618.428      11425.544      10192.884      4023.6016      3912.7522      10316.506      0             -8059.9762      0              155245.3       53.745175      53.745175      53.745175      1.1635804      21092.812      21437.742      20851.655    
    205000   102500         479.2183       21068.854      69314.329      21636.861      11483.38       10153.482      3906.2601      3900.7054      10326.66       0             -7980.1435      0              155165.93      53.736015      53.736015      53.736015      1.1641755      21703.657      21005.2        20497.705    
    206000   103000         474.14321      21146.07       69350.748      21528.57       11361.767      10166.803      3934.5994      4013.132       10374.023      0             -8154.9512      0              155068.58      53.724774      53.724774      53.724774      1.1649064      21039.452      21130.176      21268.582    
    207000   103500         480.61667      21002.763      69264.172      21783.772      11516.889      10266.883      3924.4433      4075.8659      10271.419      0             -8004.8453      0              155010.83      53.718105      53.718105      53.718105      1.1653404      21094.916      21035.286      20878.088    
    208000   104000         483.60111      21462.705      70434.499      22025.928      11588.404      10437.524      4000.7744      4063.1689      10316.918      0             -7943.3368      0              154654.27      53.676885      53.676885      53.676885      1.1680271      21218.996      20929.264      22239.855    
    209000   104500         474.96842      20384.775      67474.106      21515.439      11381.541      10133.899      3909.4295      3930.9645      10348.933      0             -8055.4285      0              154591.5       53.669622      53.669622      53.669622      1.1685014      20093.181      20712.95       20348.194    
    210000   105000         480.95673      21216.288      69647.301      21826.767      11525.037      10301.73       4025.7912      3960.7679      10345.918      0             -8030.7478      0              154550.04      53.664824      53.664824      53.664824      1.1688148      21670.628      20330.127      21648.108    
    211000   105500         480.28881      20735.298      68582.53       21863.836      11509.032      10354.804      3915.0705      3964.6381      10415.92       0             -7940.8252      0              154491.48      53.658045      53.658045      53.658045      1.1692579      20336.138      20519.705      21350.051    
    212000   106000         483.2338       20805.69       68622.731      21751.642      11579.602      10172.04       3891.3357      3940.7805      10300.53       0             -7960.6064      0              154471.03      53.655677      53.655677      53.655677      1.1694127      21123.675      20432.926      20860.468    
    213000   106500         477.19621      21385.433      70026.936      21854.641      11434.925      10419.716      4110.1592      3975.7471      10296.946      0             -7963.1363      0              154455.51      53.65388       53.65388       53.65388       1.1695302      20741.661      21973.91       21440.729    
    214000   107000         483.56254      21266.289      69662.925      21845.829      11587.48       10258.349      3938.0936      3816.3844      10355.779      0             -7851.9078      0              154175.58      53.621447      53.621447      53.621447      1.1716536      21667.828      20492.217      21638.822    
    215000   107500         486.76267      21640.597      70700.001      22201.3        11664.163      10537.136      3978.3573      4032.0116      10398.791      0             -7872.0237      0              153668.54      53.562601      53.562601      53.562601      1.1755196      21765.869      21428.009      21727.913    
    216000   108000         480.38597      21852.781      71009.167      21965.689      11511.36       10454.328      4004.7832      4028.5409      10351.699      0             -7930.6943      0              153885.84      53.587836      53.587836      53.587836      1.1738597      21803.479      21073.999      22680.865    
    217000   108500         477.72535      21429.694      69946.991      21938.09       11447.604      10490.485      4007.6823      3956.465       10361.394      0             -7835.0565      0              153613.68      53.556226      53.556226      53.556226      1.1759394      21791.068      20684.973      21813.042    
    218000   109000         471.66741      22098.513      71363.789      21774.399      11302.44       10471.959      4101.2636      3978.7831      10383.629      0             -7991.7167      0              153868.54      53.585827      53.585827      53.585827      1.1739917      21617.253      22276.215      22402.072    
[...]
    454000   227000         483.80565      45791.777      119387.15      26373.424      11593.305      14780.119      4373.4687      4265.1139      10463.926      0             -4322.3895      0              139278.37      51.835571      51.835571      51.835571      1.2969737      45180.465      45800.677      46394.19     
    455000   227500         480.20055      45943.791      119624.75      26357.32       11506.917      14850.403      4355.2054      4337.3289      10559.241      0             -4401.3721      0              139196.16      51.825371      51.825371      51.825371      1.2977396      46791.495      45305.8        45734.079    
    456000   228000         477.43791      46448.541      120538.97      26277.185      11440.717      14836.469      4320.2763      4265.788       10483.334      0             -4232.93        0              139151.44      51.81982       51.81982       51.81982       1.2981568      46590.398      47023.504      45731.721    
    457000   228500         478.84051      45379.981      118453.97      26215.108      11474.327      14740.781      4293.6778      4247.7152      10520.786      0             -4321.3978      0              139371.43      51.847114      51.847114      51.847114      1.2961077      45573.951      45201.56       45364.433    
    458000   229000         481.55644      46627.575      120902.53      26258.598      11539.408      14719.19       4442.7973      4224.4038      10430.332      0             -4378.343       0              139179.1       51.823254      51.823254      51.823254      1.2978987      45453.597      47377.393      47051.736    
    459000   229500         471.2654       46377.199      120303.53      26223.613      11292.806      14930.806      4437.7346      4273.7319      10574.947      0             -4355.6072      0              139096.61      51.813013      51.813013      51.813013      1.2986685      46348.827      46313.215      46469.555    
    460000   230000         475.14358      46362.554      120458.73      26548.421      11385.738      15162.683      4498.0384      4280.0284      10500.333      0             -4115.7169      0              138889.7       51.78731       51.78731       51.78731       1.3006031      46930.035      45951.069      46206.559    
    461000   230500         473.66409      46018.978      119670.29      26384.786      11350.286      15034.5        4428.4198      4280.7488      10538.45       0             -4213.1185      0              138995.68      51.800478      51.800478      51.800478      1.2996115      46276.527      46436.339      45344.069    
    462000   231000         481.33702      45848.668      119359.74      26316.547      11534.15       14782.397      4358.681       4277.3117      10491.598      0             -4345.1932      0              139149.6       51.819592      51.819592      51.819592      1.2981739      46172.696      45379.844      45993.465    
    463000   231500         481.10298      46614.374      120838.55      26490.742      11528.542      14962.2        4366.496       4242.7655      10511.456      0             -4158.5175      0              138782.94      51.774036      51.774036      51.774036      1.3016037      46061.977      46506.462      47274.683    
    464000   232000         469.7372       46438.719      120393.54      26305.454      11256.187      15049.268      4446.5074      4236.0852      10555.861      0             -4189.1863      0              138924.39      51.791621      51.791621      51.791621      1.3002784      46597.716      45597.617      47120.824    
    465000   232500         478.61372      46583.284      120885.8       26463.683      11468.892      14994.79       4445.054       4257.8496      10536.423      0             -4244.5366      0              138984.94      51.799143      51.799143      51.799143      1.2997119      47233.584      45615.893      46900.374    
    466000   233000         486.51336      46790.519      121355.29      26791.255      11658.189      15133.066      4289.4745      4291.7674      10592.905      0             -4041.081       0              138577.34      51.748458      51.748458      51.748458      1.3035347      46870.04       47056.445      46445.072    
    467000   233500         476.49618      46122.981      119565.95      26281.622      11418.15       14863.472      4187.7833      4389.3042      10522.27       0             -4235.8854      0              138680.51      51.761296      51.761296      51.761296      1.302565       46383.106      45895.436      46090.402    
    468000   234000         482.38743      48603.712      124911.24      26604.568      11559.321      15045.247      4491.3632      4234.4926      10497.84       0             -4178.4486      0              138687.61      51.762179      51.762179      51.762179      1.3024984      48642.355      48082.627      49086.154    
    469000   234500         486.89475      47023.205      121817.7       26721.828      11667.328      15054.5        4313.3651      4377.7035      10610.942      0             -4247.5105      0              138667.14      51.759633      51.759633      51.759633      1.3026906      47336.933      46407.342      47325.339    
    470000   235000         485.97909      47779.943      123406.21      26894.55       11645.387      15249.163      4388.2126      4307.7346      10571.271      0             -4018.0556      0              138502.7       51.739165      51.739165      51.739165      1.3042372      48073.573      47542.256      47724.001    
    471000   235500         479.21473      46554.701      120689.97      26569.948      11483.294      15086.653      4337.5039      4310.1079      10587.242      0             -4148.2005      0              138625.33      51.75443       51.75443       51.75443       1.3030835      47444.865      45684.764      46534.474    
    472000   236000         478.62151      47156.476      121982.84      26706.293      11469.079      15237.214      4395.4758      4369.5567      10525.485      0             -4053.304       0              138537.96      51.743554      51.743554      51.743554      1.3039053      47362.825      46581.202      47525.4      
    473000   236500         479.93784      47520.027      122629.85      26656.532      11500.622      15155.91       4468.2777      4373.0713      10443.721      0             -4129.16        0              138483.48      51.736771      51.736771      51.736771      1.3044183      47305.962      47251.503      48002.615    
    474000   237000         476.36827      47542.287      122634.9       26730.367      11415.085      15315.282      4482.3441      4440.4787      10448.12       0             -4055.6607      0              138319.42      51.716333      51.716333      51.716333      1.3059654      47844.693      46777.591      48004.577    
    475000   237500         478.68824      47881.768      123100.3       26424.789      11470.678      14954.111      4342.6198      4290.9504      10511.889      0             -4191.3482      0              138442.8       51.731705      51.731705      51.731705      1.3048015      47816.367      47909.08       47919.857    
    476000   238000         476.45616      47943.55       123195.61      26561.049      11417.191      15143.858      4349.0986      4264.1669      10536.791      0             -4006.198       0              138205.84      51.702173      51.702173      51.702173      1.3070387      48446.713      46687.159      48696.778    
    477000   238500         478.88796      47586.26       122573.76      26611.155      11475.464      15135.692      4335.8214      4293.8456      10450.447      0             -3944.4227      0              138275.29      51.710831      51.710831      51.710831      1.3063822      47272.324      47314.515      48171.942    
    478000   239000         477.03605      46726.481      121001.39      26723.564      11431.087      15292.477      4426.2396      4357.4023      10583.541      0             -4074.7062      0              138347.27      51.719803      51.719803      51.719803      1.3057025      46626.918      47135.713      46416.811    
    479000   239500         487.24053      47997.042      123434.98      26724.43       11675.614      15048.816      4339.389       4256.5621      10488.553      0             -4035.6879      0              138160.36      51.696502      51.696502      51.696502      1.3074689      48069.331      48913.386      47008.409    
    480000   240000         476.02116      47735.088      122799.37      26433.283      11406.767      15026.515      4437.9318      4273.2109      10446.005      0             -4130.6328      0              138423.74      51.729331      51.729331      51.729331      1.3049812      48266.173      47271.168      47667.924    
    481000   240500         474.74727      48393.833      124023.7       26621.381      11376.242      15245.14       4357.1194      4247.4468      10528.712      0             -3888.1383      0              138007.72      51.677457      51.677457      51.677457      1.308915       48904.902      48099.424      48177.173    
    482000   241000         485.61815      47875.935      123470.92      26891.55       11636.738      15254.813      4437.3182      4289.4317      10594.01       0             -4065.9472      0              138321.99      51.716653      51.716653      51.716653      1.3059412      47439.076      48132.643      48056.086    
    483000   241500         479.5397       48733.87       125051.71      26967.839      11491.081      15476.757      4465.4337      4417.3768      10534.707      0             -3940.7606      0              138003.73      51.676958      51.676958      51.676958      1.3089529      49512.512      48297.273      48391.825    
    484000   242000         481.79699      48743.75       125026.63      27045.385      11545.172      15500.213      4381.2717      4360.2993      10532.678      0             -3774.0366      0              137831.38      51.655437      51.655437      51.655437      1.3105896      49323.381      48933.065      47974.804    
    485000   242500         482.36328      48330.787      124202.42      26848.808      11558.742      15290.066      4393.1571      4367.9168      10567.904      0             -4038.9122      0              138118.64      51.691297      51.691297      51.691297      1.3078639      49569.051      46967.337      48455.972    
    486000   243000         477.22082      48863.594      125081.34      26846.787      11435.515      15411.273      4519.8201      4250.9514      10494.136      0             -3853.6354      0              137848.8       51.657612      51.657612      51.657612      1.310424       49383.457      48694.544      48512.782    
    487000   243500         477.03436      49854.809      127185.73      27092.964      11431.047      15661.918      4591.7912      4348.9316      10521.005      0             -3799.8098      0              137663.8       51.634493      51.634493      51.634493      1.312185       51116.811      48028.611      50419.004    
    488000   244000         485.94656      48665.925      125010.37      27086.93       11644.607      15442.323      4467.6645      4295.5113      10554.128      0             -3874.9809      0              137970.35      51.672791      51.672791      51.672791      1.3092695      49493.478      49116.875      47387.422    
    489000   244500         472.17717      48090.499      123340.64      26650.554      11314.655      15335.899      4330.007       4367.4009      10450.953      0             -3812.4613      0              137862.7       51.659349      51.659349      51.659349      1.3102919      48157.146      48086.61       48027.742    
    490000   245000         478.52007      48530.879      124451.38      26842.355      11466.648      15375.707      4406.7104      4343.3171      10524.456      0             -3898.7759      0              137910.05      51.665263      51.665263      51.665263      1.309842       48243.606      48642.089      48706.943    
    491000   245500         475.82954      49066.168      125484.12      26925.764      11402.176      15523.588      4432.2548      4402.4471      10513.398      0             -3824.5118      0              137732.17      51.64304       51.64304       51.64304       1.3115336      49503.631      47493.598      50201.276    
    492000   246000         476.28294      50115.957      127459.36      26875.353      11413.041      15462.313      4440.9708      4285.3894      10506.117      0             -3770.164       0              137618.56      51.628836      51.628836      51.628836      1.3126164      49523.91       49522.786      51301.176    
    493000   246500         476.06646      49514.093      126432.55      26950.732      11407.853      15542.879      4523.2579      4435.7297      10575.136      0             -3991.2445      0              137765.03      51.647146      51.647146      51.647146      1.3112209      49793.127      48502.914      50246.24     
    494000   247000         481.10572      50096.594      127806.24      27310.373      11528.607      15781.766      4515.566       4430.0203      10500.125      0             -3663.946       0              137551.11      51.6204        51.6204        51.6204        1.3132601      50182.659      49368.601      50738.523    
    495000   247500         482.3626       49897.171      127306.25      27131.509      11558.726      15572.784      4441.6889      4247.8728      10559.384      0             -3676.1626      0              137659.58      51.633965      51.633965      51.633965      1.3122253      49916.339      49425.862      50349.312    
    496000   248000         477.74142      50040.353      127573.29      27270.863      11447.99       15822.874      4475.7699      4468.4045      10426.565      0             -3547.8662      0              137440.65      51.606578      51.606578      51.606578      1.3143156      50679.211      49505.866      49935.981    
    497000   248500         479.44062      49900.106      127202.74      27135.785      11488.707      15647.078      4507.9726      4331.5757      10525.074      0             -3717.5441      0              137503.37      51.614428      51.614428      51.614428      1.313716       49844.966      49318.668      50536.682    
    498000   249000         468.19178      49936.081      126910.6       26888.209      11219.154      15669.054      4458.1437      4360.0952      10488.271      0             -3637.4558      0              137343.11      51.594367      51.594367      51.594367      1.3152489      50484.927      48985.462      50337.854    
    499000   249500         484.23199      49842.947      127315.11      27375.483      11603.521      15771.961      4550.3632      4341.7961      10571.141      0             -3691.3385      0              137485.89      51.61224       51.61224       51.61224       1.313883       50241.136      49745.425      49542.28     
    500000   250000         478.55293      49304.689      126180.79      27253.472      11467.436      15786.036      4553.6329      4330.8245      10567.645      0             -3666.0656      0              137578.99      51.623888      51.623888      51.623888      1.3129939      48948.125      49809.653      49156.289    
Loop time of 830.734 on 1 procs for 500000 steps with 8040 atoms

Performance: 26.001 ns/day, 0.923 hours/ns, 601.877 timesteps/s, 4.839 Matom-step/s
99.5% CPU use with 1 MPI tasks x 1 OpenMP threads

MPI task timing breakdown:
Section |  min time  |  avg time  |  max time  |%varavg| %total
---------------------------------------------------------------
Pair    | 65.65      | 65.65      | 65.65      |   0.0 |  7.90
Bond    | 604.23     | 604.23     | 604.23     |   0.0 | 72.73
Neigh   | 0.091166   | 0.091166   | 0.091166   |   0.0 |  0.01
Comm    | 55.688     | 55.688     | 55.688     |   0.0 |  6.70
Output  | 4.3105     | 4.3105     | 4.3105     |   0.0 |  0.52
Modify  | 76.972     | 76.972     | 76.972     |   0.0 |  9.27
Other   |            | 23.8       |            |       |  2.86

Nlocal:           8040 ave        8040 max        8040 min
Histogram: 1 0 0 0 0 0 0 0 0 0
Nghost:          26124 ave       26124 max       26124 min
Histogram: 1 0 0 0 0 0 0 0 0 0
Neighs:              0 ave           0 max           0 min
Histogram: 1 0 0 0 0 0 0 0 0 0

Total # of neighbors = 0
Ave neighs/atom = 0
Ave special neighs/atom = 5.9701493
Neighbor list builds = 4403
Dangerous builds = 0

unfix npt_comp

undump dump_comp

write_dump all custom npt_compress_last.dump id type mol x y z xu yu zu vx vy vz modify sort id
write_data /home/arz2/PolyJarvis/data/cis-PBD3/lammps/npt_compress/npt_compress_out.data
System init for write_data ...
Generated 3 of 3 mixed pair_coeff terms from arithmetic mixing rule

print "STAGE COMPLETE: NPT compression P=1.0->50000.0atm density target reached"
STAGE COMPLETE: NPT compression P=1.0->50000.0atm density target reached
quit
73
Neigh   | 0.091166   | 0.091166   | 0.091166   |   0.0 |  0.01
Comm    | 55.688     | 55.688     | 55.688     |   0.0 |  6.70
Output  | 4.3105     | 4.3105     | 4.3105     |   0.0 |  0.52
Modify  | 76.972     | 76.972     | 76.972     |   0.0 |  9.27
Other   |            | 23.8       |            |       |  2.86

Nlocal:           8040 ave        8040 max        8040 min
Histogram: 1 0 0 0 0 0 0 0 0 0
Nghost:          26124 ave       26124 max       26124 min
Histogram: 1 0 0 0 0 0 0 0 0 0
Neighs:              0 ave           0 max           0 min
Histogram: 1 0 0 0 0 0 0 0 0 0

Total # of neighbors = 0
Ave neighs/atom = 0
Ave special neighs/atom = 5.9701493
Neighbor list builds = 4403
Dangerous builds = 0
System init for write_data ...


---------------------------------------------------------------------
      Device Time Info (average): 
---------------------------------------------------------------------
Data Transfer:   51.8449 s.
Neighbor copy:   0.7107 s.
Neighbor build:  3.6646 s.
Force calc:      340.1135 s.
Device Overhead: 16.0144 s.
CPU Neighbor:    1.1671 s.
CPU Cast/Pack:   40.2462 s.
CPU Driver_Time: 6.9861 s.
CPU Idle_Time:   0.9901 s.
Average split:   1.0000.
Max Mem / Proc:  85.57 MB.
Prefetch mode:   None.
Vector width:    32.
Lanes / atom:    4.
Pair block:      256.
Neigh block:     128.
Neigh mode:      Hybrid (binning on host) with subgroup support.
Neigh sorting:   Unavailable or disabled.
---------------------------------------------------------------------


--------------------------------------------------------------------------
- Using acceleration for lj/cut:
-  with 1 proc(s) per device.
-  with 1 thread(s) per proc.
-  Horizontal vector operations: ENABLED
-  Shared memory system: No
--------------------------------------------------------------------------
Device 0: Quadro RTX 6000, 72 CUs, 23/24 GB, 1.8 GHZ (Mixed Precision)
--------------------------------------------------------------------------

Initializing Device and compiling on process 0...Done.
Initializing Device 0 on core 0...Done.

Generated 3 of 3 mixed pair_coeff terms from arithmetic mixing rule
STAGE COMPLETE: NPT compression P=1.0->50000.0atm density target reached
Cuda driver error 4 in call at file '/home/arz2/lammps/lib/gpu/geryon/nvd_timer.h' in line 98.
Cuda driver error 4 in call at file '/home/arz2/lammps/lib/gpu/geryon/nvd_timer.h' in line 99.
Cuda driver error 4 in call at file '/home/arz2/lammps/lib/gpu/geryon/nvd_timer.h' in line 98.
Cuda driver error 4 in call at file '/home/arz2/lammps/lib/gpu/geryon/nvd_timer.h' in line 99.
Cuda driver error 4 in call at file '/home/arz2/lammps/lib/gpu/geryon/nvd_timer.h' in line 98.
Cuda driver error 4 in call at file '/home/arz2/lammps/lib/gpu/geryon/nvd_timer.h' in line 99.
