units real
atom_style full
boundary p p p

# --- Force Field Styles ---
pair_style lj/class2/coul/long 9.5 9.5
kspace_style pppm 1e-6
dielectric 1.000000
bond_style class2
angle_style class2
dihedral_style class2
improper_style class2
special_bonds lj/coul 0 0 1
pair_modify mix sixthpower tail yes
neighbor 2.0 bin
neigh_modify delay 0 every 1 check yes
neigh_modify one 4000
# KOKKOS: package loaded via -pk kokkos on the command line

read_data /home/alexzhao/PolyJarvis/data/PS2/lammps/equil/npt_prod300/npt_prod300_out.data
Reading data file ...
  orthogonal box = (4.7222004 4.7222004 4.7222004) to (46.012485 46.012485 46.012485)
  1 by 1 by 1 MPI processor grid
  reading atoms ...
  6420 atoms
  reading velocities ...
  6420 velocities
  scanning bonds ...
  4 = max bonds/atom
  scanning angles ...
  14 = max angles/atom
  scanning dihedrals ...
  34 = max dihedrals/atom
  scanning impropers ...
  11 = max impropers/atom
  orthogonal box = (4.7222004 4.7222004 4.7222004) to (46.012485 46.012485 46.012485)
  1 by 1 by 1 MPI processor grid
  reading bonds ...
  6810 bonds
  reading angles ...
  12000 angles
  reading dihedrals ...
  19110 dihedrals
  reading impropers ...
  5600 impropers
Finding 1-2 1-3 1-4 neighbors ...
  special bond factors lj:    0        0        1       
  special bond factors coul:  0        0        1       
     4 = max # of 1-2 neighbors
     8 = max # of 1-3 neighbors
    12 = max # of special neighbors
  special bonds CPU = 0.004 seconds
  read_data CPU = 0.305 seconds


# --- Thermo Output ---
thermo_style custom step time temp press enthalpy etotal ke pe ebond eangle edihed eimp evdwl ecoul elong etail vol lx ly lz density pxx pyy pzz
thermo_modify flush yes
thermo 100

# --- Trajectory ---
dump dump_npt all custom 1000 /home/alexzhao/PolyJarvis/data/PS2/lammps/mechanical/bm_series/bm_P1000/bm_P1000.dump id type mol x y z ix iy iz vx vy vz

# --- Restart Checkpointing ---
restart 10000 npt_1.rst npt_2.rst

# --- Initial Velocities (optional) ---
# Velocities read from data file

# --- SHAKE Constraints ---
fix shake_fix all shake 1e-4 1000 0 m 1.008
Finding SHAKE clusters ...
    2390 = # of size 2 clusters
     400 = # of size 3 clusters
      10 = # of size 4 clusters
       0 = # of frozen angles
  find clusters CPU = 0.002 seconds

# --- NPT Thermostat + Barostat (Nose-Hoover) ---
# T_damp = 100.0 fs  (heat bath coupling)
# P_damp = 1000.0 fs  (pressure bath coupling, ~10x T_damp typical)
# Ramp: T=300.0->300.0K  P=1000.0->1000.0atm
timestep 1.0
fix npt_fix all npt temp 300.0 300.0 100.0 iso 1000.0 1000.0 1000.0

run 500000
PPPM Kokkos initialization ...
  using 12-bit tables for long-range coulomb
  G vector (1/distance) = 0.30253443
  grid = 30 30 30
  stencil order = 5
  estimated absolute RMS force accuracy = 0.00027230113
  estimated relative force accuracy = 8.2002678e-07
  using double precision cuFFT
  3d grid and FFT values/proc = 50653 27000
Generated 6 of 6 mixed pair_coeff terms from sixthpower/sixthpower mixing rule
Neighbor list info ...
  update: every = 1 steps, delay = 0 steps, check = yes
  max neighbors/atom: 4000, page size: 100000
  master list distance cutoff = 11.5
  ghost atom cutoff = 11.5
  binsize = 11.5, bins = 4 4 4
  1 neighbor lists, perpetual/occasional/extra = 1 0 0
  (1) pair lj/class2/coul/long/kk, perpetual
      attributes: full, newton off, kokkos_device
      pair build: full/bin/kk/device
      stencil: full/bin/3d
      bin: kk/device
Per MPI rank memory allocation (min/avg/max) = 43.12 | 43.12 | 43.12 Mbytes
   Step          Time           Temp          Press         Enthalpy        TotEng         KinEng         PotEng         E_bond        E_angle        E_dihed        E_impro         E_vdwl         E_coul         E_long         E_tail         Volume           Lx             Ly             Lz          Density          Pxx            Pyy            Pzz      
         0   0              360.02134      1673.5246      10187.45       8469.3375      5736.7302      2732.6073      1827.039       2680.1507     -2021.5459      218.86735      159.94653      3828.1004     -3959.9507     -408.58267      70395.293      41.290284      41.290284      41.290284      0.98321195     1440.6197      2057.6596      1522.2944    
       100   100            299.4098      -41.816614      7474.393       7517.1617      4770.9206      2746.2412      1765.4116      2571.6848     -1867.8295      214.2312       200.36273      3825.0942     -3962.7139     -410.13021      70129.67       41.238285      41.238285      41.238285      0.98693596     128.3739       157.96612     -411.78986    
       200   200            299.19416      396.35852      7824.0643      7421.7553      4767.4846      2654.2707      1794.3626      2613.9922     -1979.4924      199.5674       160.35811      3827.7409     -3962.2581     -413.26433      69597.82       41.133773      41.133773      41.133773      0.99447789    -1081.8802      230.53911      2040.4167    
       300   300            301.93027      39.847433      7437.3699      7397.2927      4811.0828      2586.2099      1768.6863      2601.6089     -1940.3362      212.49505      81.89211       3828.0986     -3966.2347     -417.06311      68963.896      41.008504      41.008504      41.008504      1.0036192     -410.85696      71.087287      459.31198    
       400   400            297.93014      2454.8783      9837.1437      7390.1152      4747.3431      2642.7721      1848.1123      2549.4219     -2010.8504      214.56066      175.31573      3834.782      -3968.5701     -420.81421      68349.157      40.886292      40.886292      40.886292      1.0126459      2904.5724      1806.6069      2653.4557    
       500   500            301.47407      2356.6853      9778.5768      7437.3748      4803.8136      2633.5612      1890.6619      2582.4998     -2014.5141      208.7778       106.41612      3828.8008     -3969.0811     -422.2427       68117.924      40.840132      40.840132      40.840132      1.0160834      2131.6517      2431.8148      2506.5894    
       600   600            300.41774      1467.2919      9015.662       7558.9056      4786.9815      2771.9241      1820.1093      2657.7225     -1944.8591      221.69354      155.81457      3830.965      -3969.5218     -422.50225      68076.079      40.831767      40.831767      40.831767      1.016708       1514.3536      1103.6932      1783.8289    
       700   700            304.63028     -155.7363       7418.7014      7573.6075      4854.1059      2719.5016      1788.7074      2669.4896     -1909.1584      209.36719      101.56385      3830.1675     -3970.6354     -421.71668      68202.89       40.857105      40.857105      40.857105      1.0148176     -516.7303       1231.5504     -1182.029     
       800   800            300.73018      1687.0058      9116.7685      7433.7375      4791.9601      2641.7773      1833.72        2559.7888     -1991.6414      213.57757      151.85353      3842.017      -3967.5381     -420.45925      68406.858      40.897794      40.897794      40.897794      1.0117917      2389.1463      2129.0723      542.79891    
       900   900            301.54991      1434.4824      8831.5772      7394.5842      4805.022       2589.5622      1760.2631      2633.1488     -1985.7443      214.33983      94.48047       3841.9657     -3968.8914     -418.73575      68688.418      40.953828      40.953828      40.953828      1.0076443      876.2894       1599.9683      1827.1896    
      1000   1000           295.9625       853.95203      8262.0343      7404.3128      4715.9899      2688.3229      1806.3018      2640.856      -1964.9382      209.28309      125.67894      3838.0583     -3966.9169     -417.62514      68871.085      40.9901        40.9901        40.9901        1.0049717      1172.7371      2493.0697     -1103.9507    
      1100   1100           304.9547       924.70201      8386.0837      7456.4272      4859.2753      2597.1519      1822.9604      2604.2678     -1999.6947      202.09745      106.97352      3829.0031     -3968.4557     -417.23308      68935.802      41.002935      41.002935      41.002935      1.0040283      1117.2508      854.86625      801.98895    
      1200   1200           305.40288      1347.468       8832.2315      7478.0148      4866.4169      2611.598       1811.1629      2612.467      -2017.1789      200.81361      136.12161      3835.6345     -3967.4227     -417.37819      68911.834      40.998182      40.998182      40.998182      1.0043775      1791.4989      553.71269      1697.1925    
      1300   1300           301.12115     -268.92955      7146.9551      7417.2151      4798.1899      2619.0252      1799.4575      2568.1981     -1918.5016      209.40535      96.352729      3830.1147     -3966.0015     -417.40358      68907.642      40.997351      40.997351      40.997351      1.0044386     -641.33217      301.85114     -467.30762    
      1400   1400           300.13029      1637.5802      8964.9479      7319.3656      4782.4012      2536.9644      1793.9768      2541.0769     -2048.2581      207.23287      176.14891      3833.5128     -3966.7257     -417.42882      68903.476      40.996525      40.996525      40.996525      1.0044993      234.71429      1735.5893      2942.437     
      1500   1500           301.97891      666.06984      7992.2519      7321.8215      4811.8578      2509.9637      1812.0835      2563.0925     -2021.5667      198.60283      103.66418      3825.4686     -3971.3812     -416.74035      69017.307      41.019088      41.019088      41.019088      1.0028426      917.91153      1203.6077     -123.30974    
      1600   1600           300.83074      1072.3203      8530.8106      7453.3718      4793.5625      2659.8094      1793.3365      2626.683      -1983.3932      206.35468      157.00405      3828.0507     -3968.2264     -417.47588      68895.709      40.994984      40.994984      40.994984      1.0046125      1147.6975      492.53974      1576.7238    
      1700   1700           301.51362      2279.2862      9808.3548      7524.9727      4804.4437      2720.5289      1877.4531      2667.8501     -2054.7367      209.789        155.91766      3832.6349     -3968.3791     -418.71615      68691.634      40.954467      40.954467      40.954467      1.0075971      2318.0314      2502.5434      2017.2838    
      1800   1800           302.22487      952.44854      8446.582       7494.2782      4815.7771      2678.501       1835.6323      2604.2266     -1967.7054      214.21899      123.97307      3839.1106     -3970.9551     -419.53233      68557.997      40.927892      40.927892      40.927892      1.0095612      1848.6342      1388.157      -379.44556    
      1900   1900           298.47038      53.026832      7456.6824      7403.6639      4755.9515      2647.7124      1753.0217      2586.2377     -1894.6383      210.91496      124.42017      3836.5364     -3968.7803     -419.53485      68557.586      40.92781       40.92781       40.92781       1.0095672     -588.3806       149.22073      598.24036    
      2000   2000           301.32226      703.46839      8074.3618      7370.2277      4801.3945      2568.8332      1868.5355      2537.5125     -1993.2037      203.54832      77.310207      3842.1251     -3966.9948     -419.07207      68633.294      40.94287       40.94287       40.94287       1.0084536     -252.80217      1433.7865      929.42081    
      2100   2100           299.25845      1628.5742      9007.6264      7378.2049      4768.5089      2609.6961      1842.3595      2575.9035     -2037.8113      207.7222       148.42442      3840.007      -3966.9093     -419.25048      68604.088      40.937061      40.937061      40.937061      1.0088829      1107.7515      2263.1918      1514.7792    
      2200   2200           299.16888      1819.57        9323.8132      7503.425       4767.0817      2736.3433      1883.9832      2650.5399     -1991.0576      206.11083      109.24897      3842.9436     -3965.4256     -419.28006      68599.248      40.936099      40.936099      40.936099      1.0089541      665.96165      2313.0541      2479.6943    
      2300   2300           302.22774      61.637079      7609.8179      7548.0625      4815.8229      2732.2396      1795.3986      2670.4282     -1901.2086      208.55214      82.335153      3842.6145     -3965.8803     -418.66495      68700.035      40.956137      40.956137      40.956137      1.0074739      1142.4547     -1313.466       355.9226     
      2400   2400           304.56606      736.12255      8201.4247      7463.3775      4853.0826      2610.2948      1800.8524      2600.586      -1994.4709      212.30512      114.71657      3839.7999     -3963.4943     -418.37471      68747.693      40.965605      40.965605      40.965605      1.0067755      1277.5093      415.80634      515.05206    
      2500   2500           298.62105     -850.8027       6530.4029      7384.1673      4758.3523      2625.815       1786.2332      2583.4149     -1915.0403      207.62274      94.293589      3834.2823     -3964.9914     -418.01344      68807.109      40.977404      40.977404      40.977404      1.0059061     -1145.6123      94.945956     -1501.7418    
      2600   2600           296.25294      1638.9477      9031.397       7387.7548      4720.6178      2667.137       1826.6275      2608.3285     -1999.8668      212.80032      139.3491       3842.9225     -3963.0241     -418.27053      68764.817      40.969006      40.969006      40.969006      1.0065248      1556.7721      2288.9796      1071.0914    
      2700   2700           300.99907      2604.1137      10013.719      7404.1125      4796.2447      2607.8678      1870.5587      2599.6038     -2068.6433      199.35191      138.27851      3834.5667     -3965.8485     -418.58571      68713.039      40.958721      40.958721      40.958721      1.0072832      2001.3209      4141.0466      1669.9737    
      2800   2800           302.99651      2048.841       9506.2982      7456.5817      4828.0728      2628.5089      1786.8967      2625.2971     -2004.3725      212.49263      135.27424      3838.266      -3965.3453     -419.28942      68597.715      40.935794      40.935794      40.935794      1.0089766      3105.9999      2121.5389      918.98412    
      2900   2900           304.76028      779.92768      8350.8356      7571.9974      4856.1774      2715.8201      1845.7384      2637.9551     -1978.743       202.32324      126.75926      3847.335      -3965.5479     -420.05539      68472.629      40.910897      40.910897      40.910897      1.0108199      1429.3998      202.73799      707.6453     
      3000   3000           306.31046      1579.4807      9104.4531      7529.8709      4880.8786      2648.9922      1822.7642      2597.6951     -1984.8358      209.99331      123.28382      3846.2349     -3966.1433     -420.77353      68355.765      40.887609      40.887609      40.887609      1.012548       2073.536       971.86301      1693.043     
      3100   3100           301.19875     -1257.35        6148.6526      7401.6627      4799.4264      2602.2364      1780.632       2617.1859     -1937.6209      200.84394      62.91095       3843.7201     -3965.4356     -420.92145      68331.743      40.882819      40.882819      40.882819      1.012904      -1954.8091     -2819.2341      1001.9932    
      3200   3200           299.18724      743.90923      8101.4839      7360.7565      4767.3742      2593.3823      1776.6815      2578.125      -1961.8842      204.95845      118.23802      3839.2634     -3961.9999     -421.27046      68275.133      40.871526      40.871526      40.871526      1.0137438      1881.121      -39.55122       390.15795    
      3300   3300           297.7406       1379.1724      8750.9211      7375.1033      4744.3229      2630.7804      1818.6666      2634.526      -2017.7795      203.06107      118.61851      3838.9492     -3965.2614     -420.49137      68401.634      40.896753      40.896753      40.896753      1.011869       1803.5754      2632.7673     -298.82562    
      3400   3400           307.75454      1914.0584      9367.7279      7453.019       4903.8891      2549.1299      1819.3054      2545.176      -2049.3884      199.2597       156.03596      3842.6484     -3963.9072     -419.32609      68591.718      40.934601      40.934601      40.934601      1.0090649      2873.6082      2438.1822      430.38471    
      3500   3500           303.40756     -34.780667      7512.4233      7547.3471      4834.6226      2712.7245      1817.8477      2650.6992     -1943.5515      209.62242      108.14005      3836.6455     -3966.6787     -417.7486       68850.73       40.986061      40.986061      40.986061      1.0052688     -487.96339     -239.3007       622.92209    
      3600   3600           299.60452      685.18405      8234.215       7545.9058      4774.0234      2771.8824      1886.4792      2675.2636     -1978.822       213.31208      106.32311      3834.5528     -3965.2264     -417.56406      68881.159      40.992098      40.992098      40.992098      1.0048247      1380.3265     -254.25454      929.48024    
      3700   3700           299.68552      311.88679      7687.3245      7374.4007      4775.314       2599.0867      1770.4882      2589.4274     -1965.8423      200.17733      132.21803      3837.1355     -3964.5175     -418.0785       68796.402      40.975278      40.975278      40.975278      1.0060627      340.83588     -646.88764      1241.7121    
      3800   3800           298.39087      568.93151      7899.1008      7327.7025      4754.6845      2573.0179      1815.4785      2591.0722     -2030.4402      193.84855      126.91749      3840.5215     -3964.38       -417.65768      68865.72       40.989035      40.989035      40.989035      1.00505        293.60016      1147.1454      266.04895    
      3900   3900           297.72733      1388.0374      8759.7901      7364.2415      4744.1115      2620.1301      1875.5908      2581.6547     -2036.4445      201.06272      113.92052      3848.6356     -3964.2897     -417.21092      68939.462      41.003661      41.003661      41.003661      1.0039749      89.719752      1364.8369      2709.5555    
      4000   4000           302.86445      882.79326      8337.825       7452.265       4825.9685      2626.2966      1845.552       2664.2833     -2042.5846      193.69311      89.217249      3841.8953     -3965.7598     -418.15809      68783.307      40.972678      40.972678      40.972678      1.0062542      161.43902      833.79584      1653.1449    
      4100   4100           306.79157      1583.1838      9092.6381      7513.8718      4888.5447      2625.3271      1849.5986      2547.7915     -1984.4417      208.03065      137.67815      3834.0749     -3967.405      -420.64231      68377.088      40.89186       40.89186       40.89186       1.0122322      1860.832       1770.0553      1118.6643    
      4200   4200           301.9425       1131.0798      8573.5773      7448.5893      4811.2777      2637.3117      1825.4981      2661.0701     -2024.0686      207.25368      105.91365      3833.6937     -3972.049      -421.74001      68199.117      40.856352      40.856352      40.856352      1.0148737      1491.0077      1643.1429      259.08889    
      4300   4300           299.35636      1770.2637      9078.6933      7320.4838      4770.069       2550.4148      1831.4819      2534.8077     -2037.7242      193.20692      166.45378      3832.4129     -3970.2242     -422.34446      68101.513      40.836852      40.836852      40.836852      1.0163283      2600.7189      2088.0615      622.01076    
      4400   4400           298.10561      535.81879      7881.7756      7348.3186      4750.1391      2598.1796      1817.7056      2617.7832     -2006.7783      200.66079      112.654        3825.1387     -3968.9845     -421.32573      68266.176      40.869738      40.869738      40.869738      1.0138768      561.19415      1690.668      -644.4058     
      4500   4500           301.3086       842.27779      8274.5187      7434.4812      4801.1769      2633.3043      1839.468       2647.2897     -2010.3768      207.02067      88.512428      3828.9254     -3967.535      -420.58726      68386.038      40.893644      40.893644      40.893644      1.0120998      1782.9254     -839.99659      1583.9046    
      4600   4600           301.42807      2090.5746      9558.9526      7472.6362      4803.0805      2669.5557      1871.9061      2701.3835     -2068.0905      198.23918      106.47939      3828.9576     -3969.3195     -420.32474      68428.75       40.902156      40.902156      40.902156      1.011468       2714.782       1923.2757      1633.6661    
      4700   4700           294.95934      1507.0685      8908.765       7405.1061      4700.0051      2705.1009      1830.9357      2704.9538     -2032.2758      198.13683      138.29367      3835.129      -3970.0722     -420.41974      68413.288      40.899075      40.899075      40.899075      1.0116966      2157.1324      2025.8075      338.26569    
      4800   4800           295.90991      256.443        7506.5718      7250.7022      4715.1518      2535.5504      1786.8408      2613.1708     -2015.428       199.76587      95.742138      3824.8892     -3969.4305     -420.4086       68415.1        40.899436      40.899436      40.899436      1.0116698     -883.56574      1136.087       516.80775    
      4900   4900           299.23421      217.92784      7490.9455      7273.6948      4768.1226      2505.5722      1803.9876      2567.8206     -2009.3076      205.54426      68.857591      3835.1523     -3966.4825     -420.77606      68355.353      40.887527      40.887527      40.887527      1.0125541      493.81993      706.68496     -546.72137    
      5000   5000           301.13347      233.3711       7611.6959      7379.7114      4798.3863      2581.3251      1835.6168      2545.9433     -1968.9242      207.9292       107.84577      3821.1325     -3968.2181     -421.97584      68161.003      40.848739      40.848739      40.848739      1.0154412      884.84743     -276.02419      91.290075    
      5100   5100           300.44434      2794.8829      10211.599      7440.5644      4787.4054      2653.1589      1848.9921      2623.1666     -2028.1268      198.03671      157.67569      3821.1165     -3967.7019     -423.07867      67983.328      40.813215      40.813215      40.813215      1.0180951      3406.5248      2504.0353      2474.0885    
      5200   5200           301.0637       2109.8747      9541.5789      7445.9414      4797.2746      2648.6668      1835.3393      2628.3081     -2037.1923      205.57523      164.43465      3820.7402     -3968.5383     -422.31833      68105.726      40.837694      40.837694      40.837694      1.0162654      2387.3677      1738.6704      2203.5858    
      5300   5300           304.30159      1574.6499      8988.1296      7417.4243      4848.8684      2568.5559      1834.7915      2619.0342     -2041.5166      204.144        91.185462      3829.1524     -3968.2352     -420.52202      68396.648      40.895759      40.895759      40.895759      1.0119428      902.02725      1276.8148      2545.1077    
      5400   5400           295.39971     -326.45423      6994.9465      7321.5607      4707.0221      2614.5387      1819.3996      2575.869      -1958.2702      208.49265      118.61002      3820.8452     -3970.4077     -419.26311      68602.02       40.93665       40.93665       40.93665       1.0089133     -570.35716     -917.36717      508.36164    
      5500   5500           296.32296     -471.16722      6793.1336      7265.9116      4721.7336      2544.178       1714.0681      2622.5743     -1972.8732      195.44494      125.38749      3828.233      -3968.6566     -418.03941      68802.835      40.976555      40.976555      40.976555      1.0059686     -635.20163     -1352.9578      574.65781    
      5600   5600           299.61393      227.95355      7599.9722      7370.6464      4774.1733      2596.4732      1816.1973      2655.5044     -2048.5777      193.3633       109.04542      3838.5722     -3967.6317     -416.95872      68981.16       41.011926      41.011926      41.011926      1.0033681      549.91937      508.59213     -374.65084    
      5700   5700           298.65742      3560.8041      11033.616      7455.5172      4758.9319      2696.5853      1913.4952      2607.3626     -2097.2565      212.1798       189.42985      3836.8676     -3965.4932     -417.44106      68901.456      40.996124      40.996124      40.996124      1.0045287      3153.5283      2677.2647      4851.6193    
      5800   5800           302.41683      2125.7502      9609.5565      7476.4758      4818.8359      2657.6399      1831.4566      2664.395      -2029.6437      205.11645      125.0515       3831.3945     -3970.1305     -418.02706      68804.868      40.976959      40.976959      40.976959      1.0059389      1967.0455      1772.7686      2637.4365    
      5900   5900           300.12681      232.10968      7692.4743      7460.1635      4782.3458      2677.8177      1809.7597      2636.774      -1984.2851      203.17287      150.11392      3833.3303     -3971.048      -419.1053       68627.851      40.941788      40.941788      40.941788      1.0085336     -743.01623     -151.52087      1590.8661    
      6000   6000           297.91883     -650.46753      6710.1807      7360.9788      4747.1628      2613.8159      1826.0047      2586.5408     -1943.4052      200.8898       84.247164      3828.7364     -3969.1977     -419.25558      68603.253      40.936895      40.936895      40.936895      1.0088952      161.02428     -868.49104     -1243.9358    
      6100   6100           296.08161      621.22811      7914.9378      7294.3148      4717.8878      2576.427       1804.965       2578.0189     -1997.1735      194.94881      130.16154      3833.3953     -3967.8891     -419.87758      68501.625      40.916671      40.916671      40.916671      1.010392       2001.3403     -643.6745       506.01852    
      6200   6200           298.88413     -86.303268      7265.5812      7351.7952      4762.5444      2589.2508      1793.952       2642.0158     -2000.2076      206.01707      84.30319       3831.9164     -3968.7461     -419.90285      68497.502      40.91585       40.91585       40.91585       1.0104528      216.40937      374.43675     -849.75592    
      6300   6300           298.26294      2171.6549      9642.8686      7471.373       4752.6461      2718.727       1877.667       2678.6445     -2041.505       200.75175      134.39002      3835.6079     -3966.8292     -419.49937      68563.384      40.928964      40.928964      40.928964      1.0094819      2151.4116      3330.2914      1033.2617    
      6400   6400           298.68753     -128.51401      7344.623       7473.365       4759.4116      2713.9533      1831.4939      2649.9087     -1967.0293      210.8145       122.07918      3836.1134     -3969.427      -418.7258       68690.051      40.954153      40.954153      40.954153      1.0076203      800.44432     -8.9630835     -1177.0233    
      6500   6500           300.49302      882.46127      8318.3627      7433.6247      4788.181       2645.4437      1811.6658      2596.0585     -1975.2234      203.95979      138.75586      3836.7026     -3966.4755     -418.38914      68745.322      40.965134      40.965134      40.965134      1.0068102      1094.1164      588.59282      964.67463    
      6600   6600           296.21094      528.80694      7901.6184      7371.2401      4719.9487      2651.2914      1863.7791      2598.1692     -1995.7551      215.24266      103.91568      3831.7212     -3965.7814     -418.22583      68772.166      40.970466      40.970466      40.970466      1.0064172      575.8527       963.719        46.849111    
      6700   6700           293.71979     -138.22493      7174.2949      7312.8083      4680.2536      2632.5547      1775.6414      2559.7514     -1914.8306      206.7114       134.7952       3834.278      -3963.7921     -418.59488      68711.535      40.958422      40.958422      40.958422      1.0073053     -354.1992      -223.98539      163.50981    
      6800   6800           294.92041      297.35061      7667.9338      7369.9379      4699.3848      2670.5532      1881.0606      2619.2579     -2016.1662      206.15635      115.91838      3829.6386     -3965.3125     -418.56031      68717.21       40.95955       40.95955       40.95955       1.0072221      247.4963       1406.6805     -762.125      
      6900   6900           300.34817      1715.1445      9230.1741      7513.5442      4785.873       2727.6713      1847.487       2637.9883     -1973.4879      217.91934      144.73388      3819.0691     -3966.0384     -419.10564      68627.796      40.941777      40.941777      40.941777      1.0085344      2733.347       531.49545      1880.5911    
      7000   7000           303.19228      1041.4083      8546.0348      7504.2727      4831.1921      2673.0806      1786.6165      2667.9086     -1968.5967      217.32087      121.82739      3817.9891     -3969.9851     -419.32615      68591.707      40.934599      40.934599      40.934599      1.009065       1118.5286      959.15994      1046.5364    
      7100   7100           300.91698      1395.7217      8805.9989      7408.8237      4794.9366      2613.8871      1847.9279      2552.892      -1994.8514      209.38691      144.8443       3822.2967     -3968.6093     -419.0322       68639.824      40.944168      40.944168      40.944168      1.0083577      1131.968       1826.4033      1228.7938    
      7200   7200           297.47225      2925.9851      10290.054      7355.6211      4740.0469      2615.5742      1834.9776      2635.6679     -2072.066       211.58692      143.36705      3829.5705     -3967.5297     -418.26107      68766.373      40.969315      40.969315      40.969315      1.006502       2727.7431      4086.5539      1963.6583    
      7300   7300           296.61882      480.21586      7861.9404      7379.9568      4726.448       2653.5088      1785.3801      2609.1867     -1935.3181      209.99569      124.20351      3824.3731     -3964.3121     -417.93014      68820.824      40.980126      40.980126      40.980126      1.0057057      1481.6858     -1159.1063      1118.068     
      7400   7400           303.68654      882.96143      8319.9944      7433.7965      4839.0679      2594.7286      1791.9978      2543.7233     -1956.6973      205.61756      134.64189      3835.9486     -3960.5032     -417.93669      68819.745      40.979912      40.979912      40.979912      1.0057214      731.57956      1452.2645      465.0402     
      7500   7500           300.54171      746.08863      8245.4457      7497.3171      4788.957       2708.3602      1807.889       2670.288      -1956.4972      214.28226      113.95271      3822.8361     -3964.3907     -418.32483      68755.891      40.967234      40.967234      40.967234      1.0066555      342.94038      234.71825      1660.6073    
      7600   7600           306.83992      848.95476      8507.6549      7658.6107      4889.3152      2769.2955      1875.0888      2639.2195     -1933.0203      212.18679      109.92092      3831.4544     -3965.5545     -419.4244       68575.639      40.931402      40.931402      40.931402      1.0093015      1571.877       618.21767      356.76965    
      7700   7700           303.5379       1439.9268      9036.6821      7600.5332      4836.6995      2763.8337      1823.4942      2662.6233     -1929.1287      219.77402      134.94965      3823.737      -3971.6157     -420.57202      68388.516      40.894138      40.894138      40.894138      1.0120631      1793.1505      771.51144      1755.1183    
      7800   7800           304.96851      2068.3936      9528.0359      7464.9233      4859.4954      2605.4279      1799.3626      2625.6163     -2039.1261      205.28423      153.21954      3828.895      -3967.8237     -420.54231      68393.347      40.895101      40.895101      40.895101      1.0119916      3726.8194      657.55441      1820.8071    
      7900   7900           298.04403      263.69396      7640.9763      7377.2992      4749.1579      2628.1413      1827.8895      2619.1516     -2001.3676      205.5653       116.29911      3830.7886     -3970.1852     -419.49539      68564.034      40.929093      40.929093      40.929093      1.0094723      492.17428      2094.3388     -1795.4312    
      8000   8000           297.99837      609.69522      7955.3802      7345.2352      4748.4302      2596.805       1786.0891      2581.544      -1978.9656      204.94406      136.67705      3834.2489     -3967.7325     -419.15942      68618.992      40.940026      40.940026      40.940026      1.0086638      858.30141      890.59666      80.187585    
      8100   8100           299.72784      780.62684      8205.7374      7423.7663      4775.9884      2647.7779      1825.1911      2617.1328     -1972.7199      209.56678      95.917206      3838.6443     -3965.9545     -418.74748      68686.494      40.953446      40.953446      40.953446      1.0076725      1384.847       1237.5986     -280.56504    
      8200   8200           302.52751      875.99467      8376.5651      7499.9605      4820.5995      2679.3609      1827.2638      2618.3665     -1954.665       207.90253      117.86051      3831.6838     -3969.0512     -419.17669      68616.164      40.939463      40.939463      40.939463      1.0087054      867.02239      368.51179      1392.4498    
      8300   8300           300.2578       1556.0739      9026.7286      7470.9341      4784.433       2686.5011      1849.7905      2599.18       -1978.0545      200.84278      147.74052      3837.1527     -3970.1508     -419.54394      68556.1        40.927514      40.927514      40.927514      1.0095891      572.83154      2053.4459      2041.9443    
      8400   8400           300.77984     -541.61672      6761.4971      7303.5994      4792.7514      2510.848       1772.0922      2563.2576     -1966.0591      200.59851      82.297887      3828.7763     -3970.1154     -419.09283      68629.894      40.942194      40.942194      40.942194      1.0085036      125.27934     -810.99346     -939.13604    
      8500   8500           297.18565     -430.6743       6873.4313      7304.5934      4735.4801      2569.1134      1800.2272      2571.2621     -1962.5338      204.02443      89.736744      3836.2799     -3969.8832     -418.994        68646.082      40.945412      40.945412      40.945412      1.0082658     -368.90007      6.3158298     -929.43866    
      8600   8600           302.34904      1062.8288      8460.7739      7397.7295      4817.7557      2579.9737      1750.4232      2647.7792     -2015.5354      198.14406      138.11566      3829.2775     -3968.2305     -419.3835       68582.327      40.932733      40.932733      40.932733      1.009203       1196.4619      1898.8874      93.13714     
      8700   8700           300.75503      2214.7738      9679.0062      7465.4992      4792.356       2673.1432      1869.2027      2663.5478     -2076.8845      202.6993       146.09037      3835.7383     -3967.2508     -419.70866      68529.194      40.922159      40.922159      40.922159      1.0099855      1255.4777      3353.504       2035.3396    
      8800   8800           301.22479      1118.2306      8568.1734      7451.3832      4799.8414      2651.5418      1840.143       2621.5951     -1999.3517      212.89479      107.66861      3837.1551     -3968.563      -420.00962      68480.09       40.912383      40.912383      40.912383      1.0107097      1362.8149      1088.0929      903.78403    
      8900   8900           302.94777      820.91615      8190.3552      7371.2059      4827.2961      2543.9097      1809.5901      2589.6731     -2025.4766      200.71535      95.532472      3842.8454     -3968.9701     -420.37336      68420.836      40.900579      40.900579      40.900579      1.011585      -434.12967      846.84076      2050.0374    
      9000   9000           292.59985      1250.3618      8504.1237      7257.5417      4662.4081      2595.1337      1861.1837      2549.4754     -2019.7369      200.34078      140.49922      3834.8799     -3971.5085     -420.74047      68361.136      40.88868       40.88868       40.88868       1.0124684      164.08399      1823.8593      1763.142     
      9100   9100           299.37228      899.62276      8202.874       7307.089       4770.3227      2536.7662      1826.1884      2582.7746     -2039.3448      201.98557      97.36642       3838.5527     -3970.7567     -421.26569      68275.906      40.87168       40.87168       40.87168       1.0137323      1393.1574      976.09361      329.61724    
      9200   9200           301.26438      1279.1178      8743.6266      7472.7517      4800.4722      2672.2795      1794.023       2667.6658     -2002.7135      203.78233      144.93613      3833.7386     -3969.1528     -422.18924      68126.551      40.841856      40.841856      40.841856      1.0159548      1296.5527      1523.1106      1017.69      
      9300   9300           301.28699      1918.4568      9372.6868      7465.5921      4800.8326      2664.7595      1834.3906      2644.1047     -1996.4547      207.85371      103.97569      3838.972      -3968.0824     -421.96769      68162.319      40.849002      40.849002      40.849002      1.0154216      2501.2697      1370.8053      1883.2953    
      9400   9400           299.486        2636.8667      10014.754      7384.2243      4772.1348      2612.0895      1911.7436      2634.5544     -2124.3111      200.91319      107.93197      3845.9346     -3964.6771     -420.47918      68403.617      40.897148      40.897148      40.897148      1.0118397      2065.2361      3222.9733      2622.3907    
      9500   9500           299.21073      2390.2532      9720.3998      7329.8569      4767.7485      2562.1084      1812.5427      2540.903      -2054.7581      210.60077      176.34107      3841.0202     -3964.5413     -419.41775      68576.728      40.931619      40.931619      40.931619      1.0092854      2840.2746      3057.9637      1272.5211    
      9600   9600           297.09415      515.12826      7891.9553      7374.1799      4734.0221      2640.1578      1826.0141      2610.3681     -1974.718       203.15039      107.23331      3834.1981     -3966.0882     -417.32401      68920.781      40.999957      40.999957      40.999957      1.0042471      1040.6851      204.88978      299.80992    
      9700   9700           304.62905     -921.77288      6578.5679      7508.6988      4854.0863      2654.6124      1788.8531      2627.5365     -1968.2928      198.62492      137.76435      3834.5106     -3964.3842     -415.69931      69190.147      41.053301      41.053301      41.053301      1.0003374      614.73982     -1078.5747     -2301.4838    
      9800   9800           304.0951       338.95054      7857.1544      7514.5268      4845.578       2668.9488      1821.1399      2689.1869     -2009.0114      202.94802      105.47602      3826.7544     -3967.5451     -414.96689      69312.268      41.07744       41.07744       41.07744       0.99857493    -224.49908      1038.8344      202.51631    
      9900   9900           300.36189      2615.2892      10079.016      7445.9538      4786.0917      2659.8621      1876.1548      2650.9523     -2082.5167      214.92236      148.73996      3819.9519     -3968.3426     -416.63724      69034.387      41.022472      41.022472      41.022472      1.0025945      1959.3986      2565.3919      3321.077     
     10000   10000          305.76177      3370.1804      10775.203      7405.7796      4872.1355      2533.6442      1832.2742      2597.692      -2114.2636      197.16283      157.7679       3830.0383     -3967.0275     -419.56285      68553.01       40.926899      40.926899      40.926899      1.0096346      3923.1623      3349.57        2837.809     
     10100   10100          297.07728      289.80219      7673.4844      7384.6752      4733.7533      2650.9219      1779.3619      2644.1593     -1942.5866      211.13129      97.295966      3831.123      -3969.5629     -420.91086      68333.462      40.883162      40.883162      40.883162      1.0128785      176.87199      391.13306      301.40152    
     10200   10200          299.23561      393.30293      7778.9821      7387.7742      4768.145       2619.6292      1803.0445      2614.517      -1963.1945      206.71473      96.542393      3832.6945     -3970.6893     -421.71494      68203.172      40.857161      40.857161      40.857161      1.0148134      338.50233      474.86031      366.54613    
     10300   10300          302.58226      937.29194      8367.2411      7435.6723      4821.4719      2614.2004      1820.732       2560.6186     -1977.806       203.54513      145.74625      3833.7622     -3972.3978     -422.04562      68149.733      40.846488      40.846488      40.846488      1.0156092      1282.6911      737.0837       792.10097    
     10400   10400          302.85511      117.79776      7590.298       7472.9206      4825.8196      2647.101       1818.0951      2612.9477     -1982.4275      208.53954      120.62033      3838.376      -3969.0502     -420.97093      68323.712      40.881217      40.881217      40.881217      1.013023      -536.13246      1569.2095     -679.68375    
     10500   10500          300.79336      2610.8735      10087.396      7477.9484      4792.9668      2684.9816      1904.3068      2606.201      -2064.7183      207.97425      163.10361      3835.5013     -3967.387      -419.69786      68530.958      40.92251       40.92251       40.92251       1.0099595      3334.6106      1023.4448      3474.5651    
     10600   10600          299.5433       1497.8454      8924.0833      7424.4642      4773.0479      2651.4164      1863.1785      2626.9824     -2030.5683      205.6068       110.6466       3840.2036     -3964.6331     -418.97247      68649.61       40.946114      40.946114      40.946114      1.0082139      211.6218       2414.3122      1867.6022    
     10700   10700          295.98885      443.03175      7771.5774      7327.1998      4716.4097      2610.7901      1835.1055      2593.8566     -2002.2992      188.04109      114.40625      3847.2086     -3965.5287     -418.19821      68776.709      40.971368      40.971368      40.971368      1.0063507      492.48298      959.63142     -123.01917    
     10800   10800          298.06802     -271.42798      7022.3881      7295.232       4749.5401      2545.692       1756.7867      2600.2842     -1998.3616      191.90832      108.21979      3852.7759     -3965.9214     -417.29178      68926.104      41.001012      41.001012      41.001012      1.0041695     -2046.0349      930.23276      301.51822    
     10900   10900          299.22529      244.55241      7666.3858      7420.6904      4767.9805      2652.7099      1789.6807      2565.5544     -1944.0575      218.95905      139.29357      3848.1305     -3964.8507     -417.51733      68888.868      40.993627      40.993627      40.993627      1.0047123     -301.77979      695.15446      340.28256    
     11000   11000          304.73319     -581.11805      6892.356       7475.9234      4855.7457      2620.1778      1813.8299      2572.2075     -1943.2194      204.59682      90.96416       3845.1605     -3963.3617     -417.70794      68857.433      40.987391      40.987391      40.987391      1.005171      -270.38381     -72.121155     -1400.8492    
     11100   11100          304.01066      1541.6721      8974.7086      7430.0912      4844.2325      2585.8586      1808.925       2674.6756     -2067.5301      197.12636      93.540813      3844.8456     -3965.7247     -418.66873      68699.415      40.956014      40.956014      40.956014      1.007483       2238.3404      1256.464       1130.2118    
     11200   11200          296.92468      2184.9629      9556.2066      7374.0616      4731.3216      2642.74        1805.7263      2619.6799     -2004.9019      208.16894      142.30533      3836.222      -3964.4605     -420.01029      68479.981      40.912361      40.912361      40.912361      1.0107113      3167.3008      1418.0669      1969.5211    
     11300   11300          304.43655      53.419258      7406.0357      7352.7471      4851.0189      2501.7282      1767.2129      2593.6484     -1982.6495      196.35286      59.219446      3834.2264     -3966.2823     -420.49666      68400.772      40.896581      40.896581      40.896581      1.0118817      868.22456     -825.36348      117.3967     
     11400   11400          302.54144      574.46295      7958.6092      7386.3385      4820.8214      2565.517       1732.471       2609.2207     -1974.4215      201.33128      130.03531      3834.282      -3967.4017     -421.07545      68306.752      40.877834      40.877834      40.877834      1.0132746      164.32397      674.41027      884.6546     
     11500   11500          300.79616      1252.767       8739.479       7488.7084      4793.0115      2695.6969      1888.744       2654.4768     -2039.193       202.97179      113.53934      3843.2045     -3968.0465     -420.13812      68459.145      40.908211      40.908211      40.908211      1.011019       591.64319      2126.4857      1040.1722    
     11600   11600          307.58142      628.59045      8167.4448      7540.1305      4901.1306      2638.9998      1823.6001      2607.3328     -1983.6442      202.90162      107.52157      3845.7315     -3964.4435     -420.32191      68429.211      40.902248      40.902248      40.902248      1.0114612      491.42028      1004.4525      389.89857    
     11700   11700          304.84914      1290.2829      8735.0437      7448.777       4857.5934      2591.1836      1811.5392      2606.6722     -2044.1243      198.64822      150.87365      3833.5178     -3965.9433     -420.77834      68354.983      40.887453      40.887453      40.887453      1.0125596      2349.5613      654.71626      866.57121    
     11800   11800          299.45134      1595.9146      8959.3426      7365.4465      4771.5825      2593.864       1851.0396      2601.1099     -2049.528       193.64164      129.86648      3831.9932     -3964.2588     -419.99979      68481.692      40.912702      40.912702      40.912702      1.0106861      1909.6728      2359.9332      518.13765    
     11900   11900          301.14704     -810.33809      6559.9042      7372.1874      4798.6025      2573.5849      1802.6964      2597.312      -1961.1578      200.76348      73.639071      3827.7478     -3967.4161     -418.46412      68733.004      40.962688      40.962688      40.962688      1.0069907     -540.21389      316.29955     -2207.0999    
     12000   12000          297.0757       2185.8524      9598.1669      7404.128       4733.7281      2670.3999      1857.0026      2658.9766     -2095.9334      206.43807      169.15544      3838.591      -3963.8305     -417.90344      68825.221      40.980999      40.980999      40.980999      1.0056414      2454.3177      2817.0591      1286.1804    
     12100   12100          304.51426     -173.36389      7334.954       7509.3063      4852.2573      2657.049       1822.701       2620.4546     -1985.1755      206.32548      116.74002      3839.8247     -3963.8213     -417.09066      68959.34       41.007601      41.007601      41.007601      1.0036856      130.36458     -328.8354      -321.62084    
     12200   12200          304.69679      497.31419      8047.2843      7547.7729      4855.1656      2692.6073      1816.7276      2631.8457     -1956.989       211.78089      112.98845      3838.1235     -3961.87       -417.6235       68871.356      40.990153      40.990153      40.990153      1.0049678     -591.34002     -344.95678      2428.2394    
     12300   12300          301.86102      1655.3602      9101.0727      7442.34        4809.9793      2632.3607      1834.0806      2654.8763     -2042.4551      197.06547      117.02485      3835.794      -3964.0255     -418.61573      68708.112      40.957742      40.957742      40.957742      1.0073555      1273.3693      1467.8967      2224.8146    
     12400   12400          296.05884      876.12643      8208.4456      7333.6644      4717.525       2616.1394      1810.2025      2600.1256     -1995.8236      197.26887      133.86671      3834.3354     -3963.8361     -420.11364      68463.135      40.909006      40.909006      40.909006      1.01096        279.35814      1706.8862      642.135      
     12500   12500          299.50198      186.17593      7553.5119      7368.1589      4772.3895      2595.7695      1807.7296      2628.7067     -1999.7823      202.89756      99.645045      3827.6616     -3971.0887     -421.33105      68265.314      40.869567      40.869567      40.869567      1.0138896     -786.71405      1839.4909     -494.24909    
     12600   12600          303.158        2212.0351      9650.4033      7455.9402      4830.6459      2625.2943      1847.3039      2600.9731     -2038.6165      196.17725      149.71377      3840.5693     -3970.8266     -422.82747      68023.719      40.821296      40.821296      40.821296      1.0174906      1173.9579      3126.6782      2335.4693    
     12700   12700          305.23881      106.52476      7591.3583      7485.564       4863.8025      2621.7615      1791.1676      2678.4264     -1999.1314      204.52235      78.941624      3838.8588     -3971.0238     -422.36488      68098.221      40.836194      40.836194      40.836194      1.0163774      764.48343     -1019.8659      574.95677    
     12800   12800          299.64835      1032.0306      8470.4446      7443.4405      4774.7218      2668.7187      1840.6378      2627.6801     -1961.2069      209.5251       80.665303      3839.442      -3968.0246     -421.52164      68234.449      40.863406      40.863406      40.863406      1.0143482      1729.4494     -74.070767      1440.7133    
     12900   12900          293.91319      2156.4266      9465.6176      7318.0192      4683.3353      2634.6838      1869.3546      2656.4333     -2076.9821      198.68726      119.09879      3836.7534     -3968.6614     -421.1929       68287.704      40.874034      40.874034      40.874034      1.0135572      1610.767       3351.0271      1507.4856    
     13000   13000          295.52568     -313.68768      7005.5662      7318.7013      4709.0294      2609.6719      1773.3121      2609.3579     -1944.1303      189.08942      110.37801      3841.761      -3970.0962     -420.20883      68447.625      40.905917      40.905917      40.905917      1.0111891      899.48828     -335.41078     -1505.1406    
     13100   13100          301.09722      833.28329      8222.0431      7389.3704      4797.8087      2591.5617      1748.5607      2699.3097     -2015.1278      196.40298      92.388019      3836.8296     -3966.8016     -419.77621      68518.166      40.919964      40.919964      40.919964      1.0101481      703.32217      1448.2222      348.30549    
     13200   13200          299.20313      1473.6369      8908.0787      7436.6735      4767.6274      2669.0461      1812.2192      2599.8831     -1978.8432      208.54598      155.18606      3836.516      -3964.461      -420.1048       68464.574      40.909293      40.909293      40.909293      1.0109388      845.51994      1659.9225      1915.4683    
     13300   13300          301.53194     -271.63131      7167.6298      7439.2808      4804.7356      2634.5452      1810.5631      2635.3015     -1969.3225      204.75489      81.952529      3839.7111     -3968.4154     -419.43823      68573.379      40.930952      40.930952      40.930952      1.0093347     -1056.454      -528.98289      770.54294    
     13400   13400          297.28151      716.88215      8116.6193      7400.1832      4737.0075      2663.1757      1798.2504      2661.5428     -1960.7658      197.95661      104.5078       3831.4311     -3969.7472     -419.72975      68525.751      40.921474      40.921474      40.921474      1.0100363      1080.8764      784.18543      285.58464    
     13500   13500          299.37299      1572.0206      8906.4061      7336.7124      4770.3341      2566.3782      1827.7231      2558.862      -2018.9484      207.94875      127.31238      3831.9196     -3968.4392     -420.09038      68466.926      40.909761      40.909761      40.909761      1.0109041      1231.7137      2038.8608      1445.4871    
     13600   13600          298.23751      421.04128      7687.4364      7266.9162      4752.2408      2514.6754      1767.3863      2594.8533     -1976.8514      203.5537       61.673431      3834.2055     -3970.1454     -419.98836      68483.556      40.913073      40.913073      40.913073      1.0106586     -186.69071      889.45644      560.3581     
     13700   13700          294.02959      2442.3234      9684.1275      7248.1276      4685.1901      2562.9375      1826.5303      2582.0041     -2049.7544      195.58935      144.01936      3833.7105     -3969.1618     -420.55747      68390.883      40.89461       40.89461       40.89461       1.0120281      1688.2486      2027.6248      3611.0969    
     13800   13800          297.66779      126.43187      7505.8108      7379.7813      4743.1626      2636.6187      1833.9529      2622.7397     -1937.1161      210.90696      39.449013      3836.2316     -3969.5454     -420.80782      68350.194      40.886498      40.886498      40.886498      1.0126305      1381.9948     -664.22739     -338.47175    
     13900   13900          303.73383      871.79271      8323.5835      7455.6555      4839.8215      2615.8341      1813.7538      2553.743      -1958.9281      216.0837       124.34428      3835.4513     -3968.6139     -421.33641      68264.445      40.869393      40.869393      40.869393      1.0139025      1186.6248      1829.1392     -400.38588    
     14000   14000          301.92586      727.8602       8184.3225      7459.8142      4811.0125      2648.8017      1816.3104      2658.4755     -1978.8645      210.43768      80.278085      3830.7645     -3968.5999     -421.40925      68252.647      40.867038      40.867038      40.867038      1.0140778     -417.50977      1879.0236      722.06673    
     14100   14100          297.43536      2299.3853      9657.34        7370.3157      4739.459       2630.8566      1810.7663      2583.6275     -1990.2068      209.05312      154.10607      3831.2016     -3967.6912     -421.73574      68199.808      40.85649       40.85649       40.85649       1.0148635      1395.4189      2924.909       2577.8281    
     14200   14200          299.98587      1158.1418      8456.8805      7302.873       4780.1         2522.773       1832.6904      2593.0835     -2028.5295      197.43562      59.372288      3836.015      -3967.2943     -420.97136      68323.642      40.881203      40.881203      40.881203      1.0130241      670.02399      842.67497      1961.7265    
     14300   14300          300.04098      1957.1603      9309.2028      7359.9937      4780.978       2579.0157      1826.3963      2575.1768     -2023.5006      201.42497      130.16769      3838.0184     -3968.6679     -421.17968      68289.849      40.874462      40.874462      40.874462      1.0135254      2470.3681      719.88912      2681.2236    
     14400   14400          300.33594      1576.6792      9090.4551      7518.5221      4785.678       2732.8441      1890.6206      2623.4475     -1990.8953      211.57943      120.60953      3844.5349     -3967.0526     -420.73512      68362.005      40.888853      40.888853      40.888853      1.0124556      2671.7677      363.72106      1694.5488    
     14500   14500          299.74477      471.77546      7966.5505      7495.3299      4776.2581      2719.0718      1830.5762      2631.0037     -1948.6347      212.62669      126.31591      3834.5478     -3967.3638     -419.96252      68487.77       40.913912      40.913912      40.913912      1.0105964      132.26276      458.03008      825.03354    
     14600   14600          301.34507     -315.79391      7088.9573      7405.4591      4801.758       2603.7011      1795.2087      2581.1914     -1935.0788      211.90081      80.764712      3836.1838     -3966.4695     -418.53038      68722.124      40.960526      40.960526      40.960526      1.0071501      394.56573      405.8795      -1747.827     
     14700   14700          295.5701       1455.9864      8793.6335      7331.8914      4709.7372      2622.1543      1836.8745      2617.4505     -2028.9578      203.09487      126.32795      3833.3078     -3965.9435     -417.81691      68839.474      40.983828      40.983828      40.983828      1.0054332     -328.86679      2915.7491      1781.0769    
     14800   14800          302.68341     -91.665834      7234.7435      7326.7503      4823.0837      2503.6666      1838.5603      2545.1729     -2005.7446      200.63679      70.664117      3824.2175     -3969.8404     -417.91425      68823.441      40.980645      40.980645      40.980645      1.0056674     -887.66498      441.88136      170.78612    
     14900   14900          302.51279      945.90885      8384.5899      7437.4204      4820.365       2617.0554      1843.0129      2566.7333     -1987.8606      201.28417      148.35542      3818.2087     -3972.6785     -418.9103       68659.798      40.948139      40.948139      40.948139      1.0080643      763.84932      300.80901      1773.0682    
     15000   15000          302.75712      1596.0157      9121.1132      7525.9631      4824.2582      2701.7049      1887.3699      2646.6382     -2018.7066      210.62138      117.42995      3827.3911     -3969.0391     -419.69623      68531.224      40.922563      40.922563      40.922563      1.0099556      2575.8728      957.73582      1254.4385    
     15100   15100          303.88918      712.9016       8207.1399      7496.9786      4842.2968      2654.6818      1803.5822      2587.8031     -1963.7992      209.25229      146.81432      3837.3976     -3966.3684     -421.08723      68304.841      40.877453      40.877453      40.877453      1.0133029      330.63127      609.43028      1198.6433    
     15200   15200          304.3966       2671.2764      10075.666      7421.5424      4850.3823      2571.1601      1856.4472      2608.599      -2077.5717      207.74629      109.19238      3835.3052     -3968.5583     -422.17953      68128.117      40.842169      40.842169      40.842169      1.0159314      2277.1566      2703.7816      3032.8909    
     15300   15300          293.63421      2087.3403      9444.2396      7373.1287      4678.8899      2694.2388      1845.0876      2665.0075     -2002.7801      214.68309      117.31336      3825.698      -3970.7707     -422.7556       68035.282      40.823609      40.823609      40.823609      1.0173177      2026.3994      3200.7383      1034.8832    
     15400   15400          299.49338      39.301006      7415.1323      7376.1211      4772.2523      2603.8688      1858.1211      2568.9945     -1960.3249      209.23918      64.372482      3831.6922     -3968.2257     -422.58501      68062.747      40.829102      40.829102      40.829102      1.0169071     -648.25025      713.62123      52.532042    
     15500   15500          301.02873      487.02367      7874.3661      7390.2533      4796.7172      2593.5361      1810.2591      2577.811      -1943.1328      205.68369      80.242272      3830.7725     -3968.0997     -421.99075      68158.595      40.848258      40.848258      40.848258      1.0154771      1088.0295      299.45625      73.58526     
     15600   15600          302.48925      1764.2707      9198.8149      7441.6546      4819.9898      2621.6648      1855.2816      2588.7966     -2018.8175      210.28385      117.51647      3835.0588     -3966.4549     -421.16598      68292.069      40.874905      40.874905      40.874905      1.0134924      2339.5018      2191.1353      762.1751     
     15700   15700          307.92926     -466.76261      7105.5168      7572.0805      4906.6732      2665.4073      1783.5907      2653.5808     -1916.6987      204.48086      69.929001      3836.9465     -3966.4219     -419.64742      68539.195      40.92415       40.92415       40.92415       1.0098381     -960.60164     -44.983953     -394.70224    
     15800   15800          305.02922      2088.0535      9652.2605      7562.697       4860.4627      2702.2343      1820.5006      2621.8327     -2013.4413      211.07897      191.89512      3835.7048     -3965.3367     -419.16546      68618.003      40.939829      40.939829      40.939829      1.0086783      3228.2581      1732.4844      1303.418     
     15900   15900          301.409        1236.5366      8693.4322      7451.3188      4802.7767      2648.5421      1852.6898      2589.501      -2002.732       207.86529      130.66675      3836.4511     -3965.8999     -417.58528      68877.659      40.991404      40.991404      40.991404      1.0048758      695.90252      2226.9846      786.72271    
     16000   16000          299.50436      272.51193      7692.8148      7418.5202      4772.4274      2646.0928      1815.0618      2617.3424     -1966.3452      208.38838      100.29135      3836.4093     -3965.0551     -416.74241      69016.965      41.01902       41.01902       41.01902       1.0028475      56.086004     -402.16893      1163.6187    
     16100   16100          303.39181      877.3292       8296.1382      7414.1447      4834.3716      2579.7731      1789.1439      2533.7838     -1944.5397      198.8869       140.24816      3827.7429     -3965.4928     -417.2503       68932.956      41.002371      41.002371      41.002371      1.0040697      1000.4762      1039.6045      591.90691    
     16200   16200          298.42405     -613.41111      6773.9894      7390.2433      4755.2132      2635.03        1907.7095      2592.0278     -2012.5679      201.83384      76.296139      3836.769      -3967.0383     -417.53361      68886.182      40.993095      40.993095      40.993095      1.0047515     -1493.9097      233.90318     -580.22678    
     16300   16300          297.80975      1152.3338      8450.5996      7297.1825      4745.4248      2551.7578      1796.3426      2597.8274     -2038.3964      200.90457      120.03821      3840.4104     -3965.369      -419.07461      68632.877      40.942787      40.942787      40.942787      1.0084597      376.5042       2180.507       899.99006    
     16400   16400          300.26945      927.40728      8202.3725      7275.8523      4784.6186      2491.2337      1779.4275      2560.045      -2032.4714      201.12151      104.64404      3843.883      -3965.416      -419.8702       68502.83       40.916911      40.916911      40.916911      1.0103742      893.0278       1148.2522      740.94185    
     16500   16500          296.91526      511.05535      7906.0625      7396.3637      4731.1716      2665.1921      1828.2697      2680.7718     -1987.5059      207.48967      63.414143      3840.5386     -3967.7859     -420.585        68386.406      40.893717      40.893717      40.893717      1.0120943      368.42822      1222.3452     -57.607368    
     16600   16600          302.61543      2092.1798      9556.5432      7477.4704      4822.0004      2655.4701      1797.7891      2624.1565     -2022.9049      198.76931      192.17575      3831.5135     -3966.0291     -422.11304      68138.849      40.844313      40.844313      40.844313      1.0157714      2270.9343      1173.0427      2832.5623    
     16700   16700          300.49918      1760.9031      9203.2774      7452.0504      4788.2792      2663.7712      1854.3878      2666.4256     -2022.1548      205.34519      95.537266      3832.1368     -3967.9066     -421.78628      68191.635      40.854858      40.854858      40.854858      1.0149851      3610.6879      1158.6124      513.4092     
     16800   16800          305.52897      1185.8714      8571.2768      7391.1845      4868.426       2522.7585      1789.1186      2576.6549     -2022.5677      198.62299      125.57298      3823.7862     -3968.4294     -421.52283      68234.256      40.863367      40.863367      40.863367      1.0143511      1839.655       59.606276      1658.353     
     16900   16900          299.01038      1025.7031      8329.1215      7307.0965      4764.5561      2542.5404      1791.9591      2598.2302     -2012.489       201.35931      99.766296      3831.8963     -3968.1819     -420.97818      68322.535      40.880982      40.880982      40.880982      1.0130405      961.9604       1576.0183      539.13053    
     17000   17000          299.02416      1004.2909      8235.9053      7234.106       4764.7757      2469.3303      1729.4609      2609.2887     -2026.6382      200.96518      98.635941      3827.7817     -3970.164      -420.51187      68398.298      40.896088      40.896088      40.896088      1.0119183      1157.6554      1698.021       157.19619    
     17100   17100          299.9544       2140.5458      9447.5181      7310.1965      4779.5985      2530.598       1847.3442      2585.5809     -2088.94        207.45287      112.01555      3834.5721     -3967.4276     -420.10136      68465.135      40.909404      40.909404      40.909404      1.0109305      2637.9826      1386.2427      2397.412     
     17200   17200          300.10331     -130.38624      7297.3089      7427.5974      4781.9713      2645.6261      1789.7268      2616.978      -1930.3111      203.92445      99.734558      3834.1761     -3968.6027     -419.78316      68517.033      40.919739      40.919739      40.919739      1.0101648     -305.33106      973.11001     -1058.9377    
     17300   17300          303.55014     -3.6775792      7462.9555      7466.6298      4836.8945      2629.7353      1812.432       2604.2656     -1928.7768      202.52682      86.389725      3824.2726     -3971.3747     -419.83995      68507.765      40.917893      40.917893      40.917893      1.0103014     -87.0879       -428.10835      504.16351    
     17400   17400          299.4874       1581.9728      9037.7471      7458.2016      4772.157       2686.0446      1861.7301      2670.4045     -2017.9884      209.19935      110.24084      3824.2727     -3971.8145     -420.1132       68463.205      40.90902       40.90902       40.90902       1.010959       1519.9102     -182.97923      3408.9875    
     17500   17500          295.70148      935.09299      8321.9794      7389.3043      4711.8307      2677.4735      1834.1404      2598.3208     -1941.0008      209.2034       115.42443      3828.7542     -3967.3689     -420.55604      68391.115      40.894656      40.894656      40.894656      1.0120246      129.06613      1273.119       1403.0939    
     17600   17600          298.87386      781.32424      8069.0338      7289.7505      4762.3807      2527.3699      1762.8124      2536.2706     -1978.0135      209.72674      130.44501      3834.0023     -3967.8736     -420.56719      68389.301      40.894295      40.894295      40.894295      1.0120515      647.70016      1082.5185      613.7541     
     17700   17700          295.12148      673.6067       7978.5493      7306.0971      4702.5888      2603.5083      1858.0031      2645.3221     -2038.3693      208.50991      63.886856      3834.7543     -3968.5986     -420.18873      68450.9        40.906569      40.906569      40.906569      1.0111407      1311.5393      385.89355      323.38723    
     17800   17800          296.5968       1519.3823      8969.5496      7456.1889      4726.0971      2730.0919      1834.4103      2649.7603     -1984.0639      212.69195      153.61614      3830.7219     -3967.0449     -421.13766      68296.662      40.875821      40.875821      40.875821      1.0134242      520.12851      2477.2205      1560.798     
     17900   17900          302.02667      779.79421      8253.1733      7476.5945      4812.6188      2663.9756      1886.8381      2631.0896     -2014.6415      201.93811      95.063426      3830.0721     -3966.3841     -421.20537      68285.683      40.873631      40.873631      40.873631      1.0135872      1126.1572      1497.8292     -284.60379    
     18000   18000          299.4054       2278.2974      9692.7579      7421.3097      4770.8504      2650.4592      1817.3026      2600.8927     -2003.7374      216.68108      140.58528      3841.9028     -3963.1677     -420.73342      68362.281      40.888908      40.888908      40.888908      1.0124515      1889.841       3582.683       1362.3681    
     18100   18100          299.12913      343.77235      7700.8999      7356.9719      4766.4482      2590.5237      1772.3         2623.2017     -1970.6266      204.50817      92.173228      3832.9372     -3963.97       -419.2788       68599.454      40.93614       40.93614       40.93614       1.0089511     -101.92878      332.37617      800.86967    
     18200   18200          296.76253      621.33861      7924.9113      7301.4118      4728.7379      2572.6739      1830.8303      2596.3956     -2020.5653      209.8867       88.126781      3832.4546     -3964.4548     -418.01479      68806.888      40.97736       40.97736       40.97736       1.0059094      290.70336     -68.183687      1641.4961    
     18300   18300          296.89561      446.7637       7800.9564      7352.8482      4730.8584      2621.9898      1801.9573      2577.5295     -1938.2872      212.81906      97.622744      3834.4383     -3964.0899     -418.20996      68774.777      40.970984      40.970984      40.970984      1.006379      -690.47263      1265.7147      765.049      
     18400   18400          302.45026     -64.58078       7411.7164      7476.4143      4819.3685      2657.0457      1807.2679      2594.5038     -1924.3581      197.5963       109.31184      3837.8031     -3965.079      -418.70942      68692.738      40.954687      40.954687      40.954687      1.0075809     -488.19721      814.94147     -520.4866     
     18500   18500          306.76849      363.61536      7886.056       7521.6475      4888.177       2633.4705      1877.0728      2527.9005     -1958.6728      207.72602      114.88097      3833.1514     -3968.5884     -418.55564      68717.976      40.959702      40.959702      40.959702      1.0072109      1643.577      -584.85246      32.121501    
     18600   18600          300.39192      1254.5961      8718.5846      7460.3709      4786.5701      2673.8008      1847.6538      2627.8368     -2006.1706      212.69582      119.91777      3838.0855     -3966.2183     -418.26254      68766.13       40.969267      40.969267      40.969267      1.0065056      1084.8078      2178.621       500.35936    
     18700   18700          298.71237      360.38566      7710.7118      7349.3005      4759.8075      2589.493       1847.742       2616.2014     -2023.167       200.28288      81.534735      3832.2843     -3965.3853     -418.27819      68763.558      40.968756      40.968756      40.968756      1.0065432     -288.93599      686.54309      683.5499     
     18800   18800          297.72593      2255.245       9607.2121      7348.9446      4744.0891      2604.8555      1849.4184      2548.9773     -2022.2346      206.25099      169.04928      3819.1469     -3965.7528     -418.90717      68660.311      40.948242      40.948242      40.948242      1.0080568      1494.1556      2580.7         2690.8793    
     18900   18900          298.89769     -62.689727      7322.2699      7385.0365      4762.7604      2622.2761      1763.2285      2654.1077     -1963.1893      205.86722      105.88591      3821.7565     -3965.3804     -418.95436      68652.577      40.946704      40.946704      40.946704      1.0081704     -386.42        -156.17208      354.5229     
     19000   19000          299.74291      768.71392      8175.8671      7406.534       4776.2285      2630.3055      1804.0734      2596.939      -1982.8356      206.47007      149.54695      3821.3089     -3965.1972     -419.13098      68623.648      40.940952      40.940952      40.940952      1.0085954      605.80436      1569.5381      130.79934    
     19100   19100          300.96477      4232.5399      11706.363      7468.3484      4795.6981      2672.6504      1890.6072      2658.1263     -2100.6344      209.82874      149.96152      3829.3635     -3964.6024     -418.92673      68657.104      40.947604      40.947604      40.947604      1.0081039      4299.0109      3183.4041      5215.2048    
     19200   19200          305.33547      661.3112       8268.1129      7604.4422      4865.3427      2739.0995      1780.2806      2706.476      -1937.4874      210.56676      115.4381       3828.7986     -3964.9731     -417.97729      68813.061      40.978585      40.978585      40.978585      1.0058191      1103.8845      679.69833      200.35082    
     19300   19300          301.83824     -895.8864       6670.2111      7572.1633      4809.6164      2762.5469      1777.8721      2654.1755     -1866.1468      210.99485      117.83552      3833.2233     -3965.4075     -416.64762      69032.668      41.022131      41.022131      41.022131      1.0026194      563.23213     -1362.1585     -1888.7329    
     19400   19400          301.65531      1861.0747      9347.1329      7473.1984      4806.7015      2666.497       1875.7951      2606.0395     -2038.127       208.47657      149.29124      3829.0589     -3964.0373     -416.59003      69042.21       41.024021      41.024021      41.024021      1.0024808      2422.6705      1320.4459      1840.1078    
     19500   19500          300.98115      121.94681      7545.9137      7423.1808      4795.9591      2627.2218      1791.9439      2626.6159     -1952.4474      203.90607      92.071624      3832.6018     -3967.4702     -416.78219      69010.379      41.017716      41.017716      41.017716      1.0029432      778.13361     -723.63608      311.34289    
     19600   19600          300.9498       1419.1498      8812.1467      7389.241       4795.4595      2593.7815      1807.9747      2590.4471     -2005.5364      206.15391      120.80688      3839.1107     -3965.1754     -418.36138      68749.885      40.966041      40.966041      40.966041      1.0067434      534.51611      3090.5555      632.37769    
     19700   19700          298.76287      2318.8688      9706.1136      7387.0569      4760.6121      2626.4448      1872.2839      2618.455      -2077.2163      207.8691       129.48647      3841.6758     -3966.1092     -419.43462      68573.969      40.93107       40.93107       40.93107       1.0093261      2515.8576      2954.3192      1486.4297    
     19800   19800          298.27613      1041.1395      8509.9968      7470.3941      4752.8563      2717.5378      1822.4686      2651.9606     -1993.8979      211.01778      155.03954      3838.0547     -3967.1056     -420.08865      68467.207      40.909817      40.909817      40.909817      1.0108999      785.71982      1352.5956      985.10319    
     19900   19900          308.94169     -307.48837      7254.4152      7561.1634      4922.8057      2638.3577      1792.0929      2602.9259     -1936.7031      204.72875      109.37742      3834.9403     -3969.0044     -420.48076      68403.359      40.897097      40.897097      40.897097      1.0118435     -176.61135      160.01572     -905.86949    
     20000   20000          304.8778       910.8494       8398.6165      7490.2946      4858.0499      2632.2447      1799.8173      2612.4873     -1966.6879      207.10451      111.30212      3833.7127     -3965.4914     -420.63583      68378.142      40.89207       40.89207       40.89207       1.0122166      1978.7953      861.55209     -107.7992     
     20100   20100          298.54557      296.15481      7679.9092      7384.3058      4757.1496      2627.1562      1806.0325      2592.3603     -1963.1766      201.60522      122.24604      3835.3786     -3967.2898     -420.25099      68440.758      40.904549      40.904549      40.904549      1.0112906     -76.536065     -291.83854      1256.839     
     20200   20200          298.49609      2133.5498      9515.6954      7382.7211      4756.3612      2626.36        1850.2604      2623.8184     -2036.9354      209.00688      105.24082      3838.7927     -3963.8239     -419.58179      68549.917      40.926284      40.926284      40.926284      1.0096802      2231.8294      3197.1868      971.63324    
     20300   20300          299.56106      1581.7569      8966.2962      7382.4511      4773.3309      2609.1202      1833.1523      2635.2455     -1991.6334      207.69681      58.800715      3832.7098     -3966.8516     -418.91555      68658.937      40.947968      40.947968      40.947968      1.008077       1645.4432      2038.3298      1061.4977    
     20400   20400          297.48777      1391.1621      8852.296       7462.4274      4740.2942      2722.1332      1824.3574      2679.5851     -1958.056       206.43757      105.89118      3831.1369     -3967.219      -419.85896      68504.663      40.917276      40.917276      40.917276      1.0103472      1090.5303      1667.6067      1415.3492    
     20500   20500          306.30428      273.20849      7815.8904      7543.3833      4880.78        2662.6032      1742.9898      2679.9888     -1936.7412      213.52908      92.066878      3838.9137     -3968.1439     -420.54821      68392.389      40.89491       40.89491       40.89491       1.0120058     -919.28738      907.13695      831.77591    
     20600   20600          303.84236      943.9654       8426.4511      7485.9854      4841.5508      2644.4346      1922.4264      2585.94       -2033.4689      213.22163      88.30932       3833.4859     -3965.4797     -421.02954      68314.201      40.87932       40.87932       40.87932       1.0131641      386.84868      3489.0835     -1044.036     
     20700   20700          299.60332      1207.557       8545.0115      7343.9688      4774.0042      2569.9646      1755.9298      2580.3142     -1974.4163      208.31548      134.29179      3833.5445     -3968.015      -421.74374      68198.515      40.856231      40.856231      40.856231      1.0148827      1141.207       896.24613      1585.2179    
     20800   20800          299.96703      1014.6801      8347.6741      7336.1126      4779.7997      2556.3129      1757.2894      2649.8999     -2004.1584      205.78815      84.255547      3831.139      -3967.9006     -420.76181      68357.668      40.887989      40.887989      40.887989      1.0125198      540.92442      782.29836      1720.8175    
     20900   20900          298.31648      868.0668       8259.4995      7390.8134      4753.4991      2637.3143      1889.4442      2576.5914     -2004.6921      207.74305      91.259754      3841.3616     -3964.3936     -419.16956      68617.331      40.939695      40.939695      40.939695      1.0086882     -58.271615      1260.4328      1402.0392    
     21000   21000          307.77645      2470.875       9965.3705      7487.9237      4904.2383      2583.6854      1805.6495      2610.5551     -2047.0152      201.86806      139.50786      3837.9686     -3964.8485     -418.35589      68750.786      40.96622       40.96622       40.96622       1.0067302      2238.6893      2759.6722      2414.2636    
     21100   21100          305.20858      436.22747      7958.333       7519.7564      4863.3208      2656.4356      1784.62        2617.5592     -1950.28        208.34356      132.37149      3829.4274     -3965.606      -417.22182      68937.661      41.003304      41.003304      41.003304      1.0040012      1377.6511     -606.86164      537.8929     
     21200   21200          301.15735      384.81948      7860.6204      7472.6099      4798.7667      2673.8432      1866.7179      2624.9243     -1983.4748      211.65203      96.504381      3826.051      -3968.5315     -416.01889      69136.997      41.042786      41.042786      41.042786      1.0011064      194.46513      1689.9483     -729.95502    
[...]
    495200   495200         299.25168      608.8975       7959.1008      7351.7878      4768.401       2583.3868      1823.993       2619.7773     -2024.528       206.08721      94.560172      3829.0797     -3965.5826     -420.56301      68389.982      40.89443       40.89443       40.89443       1.0120414      1482.9597      466.51407     -122.78122    
    495300   495300         303.98107      2532.6106      9983.7197      7463.1997      4843.7612      2619.4385      1883.279       2574.6564     -2060.9925      210.26308      148.02862      3829.4049     -3965.201      -421.48071      68241.074      40.864728      40.864728      40.864728      1.0142498      1507.01        2736.812       3354.0097    
    495400   495400         303.04762      2048.5848      9571.2769      7532.1148      4828.8871      2703.2277      1844.0464      2644.35       -1993.2803      207.08443      140.3573       3829.6559     -3968.986      -421.40691      68253.026      40.867114      40.867114      40.867114      1.0140722      2642.3149      2230.3481      1273.0915    
    495500   495500         304.1868       649.60375      8122.472       7475.1369      4847.0394      2628.0975      1771.6694      2659.6759     -1989.3992      196.8459       127.08048      3832.1002     -3969.8752     -420.93864      68328.952      40.882262      40.882262      40.882262      1.0129453      1028.4485      184.56978      735.79295    
    495600   495600         302.05699      1151.7767      8589.7591      7439.7694      4813.102       2626.6674      1816.1321      2590.7896     -1975.5837      209.48873      129.26031      3827.6344     -3971.054      -420.12042      68462.03       40.908786      40.908786      40.908786      1.0109764     -289.8711       2473.6427      1271.5585    
    495700   495700         300.47042      1618.9332      9053.2646      7434.0146      4787.821       2646.1937      1857.7656      2696.4721     -2056.909       199.95882      80.556826      3838.475      -3970.1256     -419.38653      68581.831      40.932634      40.932634      40.932634      1.0092103      915.95926      1463.5946      2477.2458    
    495800   495800         302.7805       752.08271      8167.7143      7415.4128      4824.6308      2590.782       1708.2856      2656.8547     -1954.3155      200.90258      119.14991      3830.1364     -3970.2316     -419.34662      68588.358      40.933933      40.933933      40.933933      1.0091143      362.69074      1398.4968      495.06063    
    495900   495900         298.02797      795.76878      8130.6323      7333.5941      4748.9019      2584.6922      1829.2412      2566.6441     -1988.8762      205.77436      107.19869      3832.7531     -3968.0431     -418.80049      68677.8        40.951718      40.951718      40.951718      1.0078001      240.69417      1658.333       488.2792     
    496000   496000         294.54961      837.64454      8118.5902      7279.2199      4693.4763      2585.7436      1790.0176      2630.9301     -1995.1194      196.84144      101.60953      3828.9671     -3967.5027     -418.60614      68709.686      40.958055      40.958055      40.958055      1.0073324      865.02055     -670.63547      2318.5485    
    496100   496100         296.39964     -342.17672      7034.5468      7377.0529      4722.9555      2654.0975      1831.3962      2639.4351     -1988.5309      199.61385      98.769736      3839.5466     -3966.1331     -419.0652       68634.419      40.943094      40.943094      40.943094      1.0084371      1134.2062     -2521.7496      361.01321    
    496200   496200         296.62536      580.91175      8043.9789      7463.9504      4726.5521      2737.3983      1889.3046      2651.8547     -1985.225       207.35957      109.71134      3833.1188     -3968.7258     -420.10731      68464.165      40.909211      40.909211      40.909211      1.0109448      576.72881      1362.0346     -196.02821    
    496300   496300         302.05305      2014.2057      9460.2533      7453.1108      4813.0392      2640.0716      1890.0324      2621.9709     -2037.1459      205.79993      91.572416      3837.8034     -3969.9615     -420.94473      68327.965      40.882065      40.882065      40.882065      1.01296        2506.3104      2280.9936      1255.3133    
    496400   496400         296.46337     -4.4729129      7373.4346      7377.8851      4723.971       2653.9141      1814.2627      2664.5146     -1956.5344      206.8218       61.253546      3831.7893     -3968.1934     -421.57554      68225.723      40.861664      40.861664      40.861664      1.014478      -659.20318      428.45545      217.32899    
    496500   496500         293.08551      1849.1751      9155.3577      7321.1134      4670.1468      2650.9666      1846.8126      2616.5865     -2014.6733      203.79095      140.68329      3825.8155     -3968.049      -422.88308      68014.773      40.819507      40.819507      40.819507      1.0176244      626.74419      2727.7918      2192.9894    
    496600   496600         300.29129      408.93405      7684.0133      7277.8378      4784.9667      2492.8711      1801.3498      2606.4112     -2026.2336      194.64878      54.751414      3831.8026     -3969.859      -422.3174       68105.876      40.837724      40.837724      40.837724      1.0162632      581.67975     -407.24063      1052.363     
    496700   496700         294.81272      1206.6338      8531.4814      7332.5917      4697.6688      2634.923       1786.5919      2646.94       -1953.0549      201.87702      79.053143      3841.3819     -3967.8662     -422.17812      68128.345      40.842214      40.842214      40.842214      1.015928       933.6914       586.57464      2099.6353    
    496800   496800         298.68089      1223.0412      8663.1897      7445.4747      4759.3058      2686.1689      1924.8158      2664.1815     -2042.8783      205.63613      65.881548      3836.6737     -3968.1415     -421.30331      68269.809      40.870463      40.870463      40.870463      1.0138229      2090.6232      713.89865      864.60173    
    496900   496900         303.00821      2295.1968      9786.5632      7502.2922      4828.2592      2674.033       1841.7484      2696.1864     -2059.1158      201.86619      126.37365      3833.9668     -3966.9927     -421.47492      68242.011      40.864916      40.864916      40.864916      1.0142358      1921.4772      2151.8516      2812.2615    
    497000   497000         299.53163      167.79318      7626.5337      7459.5894      4772.8619      2686.7275      1833.4473      2630.1387     -1944.2366      205.83428      106.42173      3825.4122     -3970.29       -421.60136      68221.546      40.86083       40.86083       40.86083       1.0145401      235.51876     -131.58252      399.4433     
    497100   497100         299.15909     -206.37998      7142.1974      7347.4295      4766.9257      2580.5039      1826.3314      2608.4111     -1997.923       199.52568      67.319785      3845.6578     -3968.819      -421.81466      68187.048      40.853941      40.853941      40.853941      1.0150534     -366.18766     -806.08468      553.13241    
    497200   497200         298.50719      1229.969       8548.5267      7325.3854      4756.538       2568.8474      1764.0647      2621.2164     -1994.3531      197.87189      113.61927      3836.7021     -3970.274      -421.81012      68187.782      40.854088      40.854088      40.854088      1.0150424      1273.3133      1709.4263      707.1675     
    497300   497300         299.11001      1053.2299      8408.3521      7358.5482      4766.1436      2592.4047      1802.2241      2610.6391     -1983.8537      212.24775      77.246312      3841.6667     -3967.7656     -420.83751      68345.373      40.885537      40.885537      40.885537      1.012702      -355.68323      2554.6805      960.69236    
    497400   497400         297.82579      1604.4327      8986.1174      7383.8976      4745.6804      2638.2173      1865.0138      2574.841      -2022.4922      208.07997      137.07134      3840.5794     -3964.8761     -420.04795      68473.84       40.911138      40.911138      40.911138      1.010802       1487.2457      2138.2595      1187.7928    
    497500   497500         300.96243      1354.3351      8781.512       7427.913       4795.6609      2632.2521      1831.083       2629.5381     -2012.0426      206.39916      103.90293      3840.3291     -3966.9575     -419.69669      68531.15       40.922549      40.922549      40.922549      1.0099567      1881.1774      533.47948      1648.3483    
    497600   497600         300.72146      1099.3587      8610.7175      7511.7399      4791.8211      2719.9187      1893.6447      2600.0056     -1972.364       205.87989      125.39365      3836.1525     -3968.7936     -419.61404      68544.647      40.925235      40.925235      40.925235      1.0097578      1555.6952      534.50274      1207.8782    
    497700   497700         305.3278       77.507251      7706.0344      7628.4294      4865.2205      2763.2089      1858.0044      2674.9657     -1954.2482      213.96424      92.715221      3841.8661     -3964.0587     -418.94003      68654.926      40.947171      40.947171      40.947171      1.0081359     -284.35937     -253.23833      770.11945    
    497800   497800         308.41331      1603.3333      9164.5803      7558.6897      4914.3862      2644.3035      1790.0091      2603.5609     -1979.266       203.34668      155.20423      3837.6897     -3966.2411     -418.8006       68677.782      40.951714      40.951714      40.951714      1.0078004      2173.1358      2547.2914      89.572796    
    497900   497900         299.52543      360.15087      7797.7803      7436.0534      4772.7631      2663.2903      1816.9878      2620.0429     -1974.0884      211.00695      102.83046      3847.9539     -3961.4434     -417.64091      68868.484      40.989584      40.989584      40.989584      1.0050097      1165.818       409.17421     -494.53958    
    498000   498000         299.46009      1161.3903      8565.0965      7397.284       4771.722       2625.562       1816.674       2620.6443     -1987.1283      206.1768       89.274624      3843.0316     -3963.1111     -417.16177      68947.585      41.005271      41.005271      41.005271      1.0038567      2339.5397      1737.5624     -592.93123    
    498100   498100         300.03449      1732.8738      9145.4023      7405.6772      4780.8746      2624.8026      1830.8657      2591.3476     -2036.5243      202.96931      159.15434      3841.7631     -3964.7731     -417.81665      68839.518      40.983836      40.983836      40.983836      1.0054326      274.81312      3584.2218      1339.5866    
    498200   498200         300.42784     -249.03894      7205.2812      7455.062       4787.1425      2667.9194      1850.0898      2571.298      -1910.3232      205.24872      86.310231      3831.5156     -3966.2196     -418.22274      68772.675      40.970567      40.970567      40.970567      1.0064098     -941.84853      8.5888286      186.14287    
    498300   498300         300.48259      7.5419146      7518.6065      7511.0491      4788.0149      2723.0342      1807.0849      2666.9975     -1941.9156      215.2854       103.7018       3840.1368     -3968.2566     -418.60685      68709.569      40.958031      40.958031      40.958031      1.0073341     -45.034104     -523.5347       591.19455    
    498400   498400         302.7665       1143.7967      8629.8609      7484.9301      4824.4077      2660.5225      1844.2309      2662.0541     -2036.8987      204.49901      117.09229      3837.9391     -3968.3942     -419.05309      68636.402      40.943488      40.943488      40.943488      1.0084079      2300.1873     -1165.8215      2297.0243    
    498500   498500         295.0765       1715.6084      9074.9624      7360.5033      4701.8719      2658.6314      1901.8872      2588.162      -2044.6236      204.78418      128.11566      3844.7253     -3964.4193     -419.74978      68522.482      40.920823      40.920823      40.920823      1.0100844      1599.6584      731.74835      2815.4185    
    498600   498600         296.90468      617.36216      7956.6354      7339.9518      4731.0029      2608.9489      1819.9787      2544.1472     -1934.8274      205.2264       93.489372      3846.2799     -3965.3454     -419.93011      68493.056      40.914965      40.914965      40.914965      1.0105184      2256.0753      145.01669     -549.00555    
    498700   498700         299.80287     -127.56176      7290.4495      7417.8058      4777.1839      2640.6218      1796.9826      2603.6961     -1957.162       203.99207      115.33138      3843.9744     -3966.1927     -420.14531      68457.974      40.907978      40.907978      40.907978      1.0110362     -1074.4146      919.4623      -227.73296    
    498800   498800         300.96647      817.76139      8284.6258      7467.5387      4795.7252      2671.8134      1851.8272      2595.2839     -1977.3568      203.14491      117.03674      3846.5046     -3964.6272     -419.81474      68511.878      40.918712      40.918712      40.918712      1.0102408      34.500954      1623.9162      794.86702    
    498900   498900         302.37145      1099.7962      8560.9508      7462.1254      4818.1127      2644.0126      1831.4883      2633.3001     -2025.9666      204.28371      109.83097      3852.9907     -3961.9145     -419.83917      68507.892      40.917919      40.917919      40.917919      1.0102996      742.59446      1734.1413      822.65275    
    499000   499000         304.79313      975.71731      8405.3064      7429.7014      4856.7007      2573.0007      1771.0609      2592.0104     -1991.5474      200.15596      120.81013      3845.6201     -3965.1095     -419.51687      68560.523      40.928394      40.928394      40.928394      1.009524       862.58497      878.84532      1185.7216    
    499100   499100         300.13436      689.85101      8085.1194      7394.925       4782.4661      2612.459       1858.5975      2594.0103     -2031.8946      194.91106      129.81108      3833.9632     -3966.9395     -419.25993      68602.54       40.936754      40.936754      40.936754      1.0089057      778.86489      240.0871       1050.6011    
    499200   499200         298.15995      1849.6797      9256.9881      7405.2911      4751.005       2654.2861      1820.2456      2658.8152     -2024.651       203.57058      129.26956      3834.902      -3967.8657     -419.01161      68643.197      40.944839      40.944839      40.944839      1.0083081      1033.9536      780.25102      3734.8345    
    499300   499300         303.49462      1793.8837      9330.8306      7534.509       4836.0098      2698.4992      1846.9164      2706.1528     -2055.0765      207.49265      123.15771      3840.0672     -3970.211      -418.8993       68661.601      40.948498      40.948498      40.948498      1.0080379      2031.9864      1398.1189      1951.5457    
    499400   499400         307.97339      2298.6461      9878.5164      7580.0201      4907.3763      2672.6437      1814.4345      2652.2269     -2009.5167      203.47497      146.41107      3835.1149     -3969.5019     -419.49592      68563.948      40.929076      40.929076      40.929076      1.0094736      2074.0539      3484.7786      1337.1057    
    499500   499500         302.3526       1070.2874      8557.522       7487.7419      4817.8123      2669.9295      1801.5581      2696.7613     -2014.7441      200.43414      120.63358      3835.4084     -3970.1218     -419.6675       68535.915      40.923497      40.923497      40.923497      1.0098865      1285.6518      596.50178      1328.7086    
    499600   499600         300.45236      1546.1638      8976.4442      7433.0709      4787.5332      2645.5377      1786.9848      2587.1233     -1977.8492      207.07879      181.17421      3830.3008     -3969.275      -420.22701      68444.664      40.905327      40.905327      40.905327      1.0112329      2461.752       1660.1391      516.60035    
    499700   499700         302.90132      1139.7506      8552.3176      7412.4401      4826.556       2585.8841      1880.8923      2586.4356     -2043.6719      200.39122      103.75841      3827.483      -3969.4045     -419.42187      68576.054      40.931485      40.931485      40.931485      1.0092954      1086.6108      1849.4342      483.20672    
    499800   499800         300.04464      730.58932      8110.498       7379.5018      4781.0364      2598.4654      1828.9086      2618.6447     -2003.5121      200.95144      89.677734      3830.5592     -3966.7642     -419.23508      68606.607      40.937563      40.937563      40.937563      1.0088459      292.34832      1859.3817      40.037952    
    499900   499900         294.81638      1115.9801      8415.9481      7301.0823      4697.727       2603.3552      1853.0669      2555.9438     -1996.6791      200.11201      122.84122      3833.7973     -3965.7269     -419.88784      68499.952      40.916338      40.916338      40.916338      1.0104167      701.45376      1859.4648      787.02179    
    500000   500000         296.2513       975.44304      8236.4705      7262.87        4720.5917      2542.2783      1817.0804      2558.9763     -2035.445       199.01637      141.88212      3831.0009     -3970.2328     -420.26242      68438.897      40.904178      40.904178      40.904178      1.0113181      171.14957      993.16262      1762.0169    
Loop time of 1181.77 on 1 procs for 500000 steps with 6420 atoms

Performance: 36.555 ns/day, 0.657 hours/ns, 423.094 timesteps/s, 2.716 Matom-step/s
99.9% CPU use with 1 MPI tasks x 1 OpenMP threads

MPI task timing breakdown:
Section |  min time  |  avg time  |  max time  |%varavg| %total
---------------------------------------------------------------
Pair    | 112.46     | 112.46     | 112.46     |   0.0 |  9.52
Bond    | 145.4      | 145.4      | 145.4      |   0.0 | 12.30
Kspace  | 504.43     | 504.43     | 504.43     |   0.0 | 42.68
Neigh   | 64.003     | 64.003     | 64.003     |   0.0 |  5.42
Comm    | 12.413     | 12.413     | 12.413     |   0.0 |  1.05
Output  | 5.4811     | 5.4811     | 5.4811     |   0.0 |  0.46
Modify  | 301.28     | 301.28     | 301.28     |   0.0 | 25.49
Other   |            | 36.3       |            |       |  3.07

Nlocal:           6420 ave        6420 max        6420 min
Histogram: 1 0 0 0 0 0 0 0 0 0
Nghost:          17766 ave       17766 max       17766 min
Histogram: 1 0 0 0 0 0 0 0 0 0
Neighs:              0 ave           0 max           0 min
Histogram: 1 0 0 0 0 0 0 0 0 0
FullNghs:  3.83306e+06 ave 3.83306e+06 max 3.83306e+06 min
Histogram: 1 0 0 0 0 0 0 0 0 0

Total # of neighbors = 3833058
Ave neighs/atom = 597.04953
Ave special neighs/atom = 5.8598131
Neighbor list builds = 11562
Dangerous builds = 0

# --- Cleanup ---
unfix npt_fix
unfix shake_fix
undump dump_npt

# --- Write Output ---
write_dump all custom /home/alexzhao/PolyJarvis/data/PS2/lammps/mechanical/bm_series/bm_P1000/bm_P1000_last.dump id type mol x y z xu yu zu vx vy vz modify sort id
write_data /home/alexzhao/PolyJarvis/data/PS2/lammps/mechanical/bm_series/bm_P1000/bm_P1000_out.data
System init for write_data ...
PPPM Kokkos initialization ...
  using 12-bit tables for long-range coulomb
  G vector (1/distance) = 0.30330042
  grid = 30 30 30
  stencil order = 5
  estimated absolute RMS force accuracy = 0.0002647386
  estimated relative force accuracy = 7.9725243e-07
  using double precision cuFFT
  3d grid and FFT values/proc = 50653 27000
Generated 6 of 6 mixed pair_coeff terms from sixthpower/sixthpower mixing rule

print "STAGE COMPLETE: NPT T=300.0->300.0K P=1000.0->1000.0atm steps=500000"
STAGE COMPLETE: NPT T=300.0->300.0K P=1000.0->1000.0atm steps=500000
quit
