LAMMPS data file via write_data, version 22 Jul 2025, timestep = 1000000, units = real

7520 atoms
6 atom types
7510 bonds
9 bond types
14000 angles
17 angle types
18910 dihedrals
22 dihedral types
8500 impropers
14 improper types

4.401942147967759 47.349055982032816 xlo xhi
4.401942147967759 47.349055982032816 ylo yhi
4.401942147967759 47.349055982032816 zlo zhi

Masses

1 12.01115
2 12.01115
3 12.01115
4 1.00797
5 15.9994
6 15.9994

Pair Coeffs # lj/class2/coul/long/kk

1 0.054 4.01
2 0.054 4.01
3 0.12 3.81
4 0.02 2.995
5 0.267 3.3
6 0.24 3.42

Bond Coeffs # class2/kk

1 1.53 299.67 -501.77 679.81
2 1.53 299.67 -501.77 679.81
3 1.5202 253.707 -423.037 396.9
4 1.101 345 -691.89 844.6
5 1.43 326.727 -608.531 689.033
6 1.5202 253.707 -423.037 396.9
7 1.101 345 -691.89 844.6
8 1.202 851.14 -1918.49 2160.77
9 1.3683 367.148 -794.791 1055.23

Angle Coeffs # class2/kk

1 112.67 39.516 -7.443 -9.5583
2 112.67 39.516 -7.443 -9.5583
3 108.53 51.9747 -9.4851 -10.9985
4 110.77 41.453 -10.604 5.129
5 112.67 39.516 -7.443 -9.5583
6 108.53 51.9747 -9.4851 -10.9985
7 110.77 41.453 -10.604 5.129
8 123.145 55.5431 -17.2123 0.1348
9 100.318 38.8631 -3.8323 -7.9802
10 113.288 61.2868 -28.9786 7.9929
11 110.77 41.453 -10.604 5.129
12 123.145 55.5431 -17.2123 0.1348
13 100.318 38.8631 -3.8323 -7.9802
14 107.734 40.6099 -28.8121 0
15 107.66 39.641 -12.921 -2.4318
16 107.688 65.4801 -10.3498 5.8866
17 120.797 95.3446 -32.2869 6.3778

BondBond Coeffs

1 0 1.53 1.53
2 0 1.53 1.53
3 5.4199 1.53 1.5202
4 3.3872 1.53 1.101
5 0 1.53 1.53
6 5.4199 1.53 1.5202
7 3.3872 1.53 1.101
8 46.0685 1.5202 1.202
9 19.1069 1.5202 1.3683
10 45.4503 1.43 1.3683
11 3.3872 1.53 1.101
12 46.0685 1.5202 1.202
13 19.1069 1.5202 1.3683
14 0.7115 1.5202 1.101
15 5.3316 1.101 1.101
16 5.6454 1.101 1.43
17 121.488 1.202 1.3683

BondAngle Coeffs

1 8.016 8.016 1.53 1.53
2 8.016 8.016 1.53 1.53
3 18.1678 15.8758 1.53 1.5202
4 20.754 11.421 1.53 1.101
5 8.016 8.016 1.53 1.53
6 18.1678 15.8758 1.53 1.5202
7 20.754 11.421 1.53 1.101
8 34.9982 37.1298 1.5202 1.202
9 1.3435 4.6978 1.5202 1.3683
10 41.9116 46.4608 1.43 1.3683
11 20.754 11.421 1.53 1.101
12 34.9982 37.1298 1.5202 1.202
13 1.3435 4.6978 1.5202 1.3683
14 12.4632 9.1765 1.5202 1.101
15 18.103 18.103 1.101 1.101
16 8.6864 57.4975 1.101 1.43
17 76.2614 71.8761 1.202 1.3683

Dihedral Coeffs # class2/kk

1 0 0 0.0514 0 -0.143 0
2 0 0 0.0514 0 -0.143 0
3 0.0972 0 0.0722 0 -0.2581 0
4 0 0 0.0316 0 -0.1681 0
5 0 0 0.0514 0 -0.143 0
6 0.0972 0 0.0722 0 -0.2581 0
7 0 0 0.0316 0 -0.1681 0
8 0.0442 0 0.0292 0 0.0562 0
9 1.8341 0 2.0603 0 -0.0195 0
10 0 0 0.0316 0 -0.1681 0
11 0.0442 0 0.0292 0 0.0562 0
12 1.8341 0 2.0603 0 -0.0195 0
13 -2.5594 0 2.2013 0 0.0325 0
14 -2.5594 0 2.2013 0 0.0325 0
15 0 0 2.2089 0 0 0
16 0.0972 0 0.0722 0 -0.2581 0
17 -0.0228 0 0.028 0 -0.1863 0
18 -0.0228 0 0.028 0 -0.1863 0
19 0 0 0 0 -0.1932 0
20 -0.1432 0 0.0617 0 -0.1083 0
21 -0.1804 0 0.0012 0 0.0371 0
22 -0.6359 0 1.4807 0 -0.0438 0

AngleAngleTorsion Coeffs

1 -22.045 112.67 112.67
2 -22.045 112.67 112.67
3 -0.3801 112.67 108.53
4 -16.164 112.67 110.77
5 -22.045 112.67 112.67
6 -0.3801 112.67 108.53
7 -16.164 112.67 110.77
8 -8.019 108.53 123.145
9 0 108.53 100.318
10 -16.164 112.67 110.77
11 -8.019 108.53 123.145
12 0 108.53 100.318
13 0 100.318 113.288
14 0 113.288 100.318
15 0 113.288 120.797
16 -0.3801 112.67 108.53
17 -5.3624 108.53 110.77
18 -5.3624 108.53 110.77
19 0 113.288 107.688
20 -12.564 110.77 110.77
21 -15.3496 107.734 123.145
22 0 107.734 100.318

EndBondTorsion Coeffs

1 -0.0732 0 0 -0.0732 0 0 1.53 1.53
2 -0.0732 0 0 -0.0732 0 0 1.53 1.53
3 0.0062 -0.0002 0.0036 0.0055 0.006 -0.0009 1.53 1.5202
4 0.2486 0.2422 -0.0925 0.0814 0.0591 0.2219 1.53 1.101
5 -0.0732 0 0 -0.0732 0 0 1.53 1.53
6 0.0062 -0.0002 0.0036 0.0055 0.006 -0.0009 1.53 1.5202
7 0.2486 0.2422 -0.0925 0.0814 0.0591 0.2219 1.53 1.101
8 0.2654 0.0503 0.1046 -0.281 0.0816 -0.1522 1.53 1.202
9 0 0 0 0 0 0 1.53 1.3683
10 0.2486 0.2422 -0.0925 0.0814 0.0591 0.2219 1.53 1.101
11 0.2654 0.0503 0.1046 -0.281 0.0816 -0.1522 1.53 1.202
12 0 0 0 0 0 0 1.53 1.3683
13 0 0 0 0 0 0 1.5202 1.43
14 0 0 0 0 0 0 1.43 1.5202
15 0 0 0 0 0 0 1.43 1.202
16 0.0062 -0.0002 0.0036 0.0055 0.006 -0.0009 1.53 1.5202
17 -0.0204 0.3628 -0.4426 -0.0097 -0.0315 -0.0755 1.5202 1.101
18 -0.0204 0.3628 -0.4426 -0.0097 -0.0315 -0.0755 1.5202 1.101
19 0 0 0 0 0 0 1.3683 1.101
20 0.213 0.312 0.0777 0.213 0.312 0.0777 1.101 1.101
21 1.2143 0.2831 0.3916 -0.2298 0.0354 0.3853 1.101 1.202
22 0 0 0 0 0 0 1.101 1.3683

MiddleBondTorsion Coeffs

1 -17.787 -7.1877 0 1.53
2 -17.787 -7.1877 0 1.53
3 -1.5945 0.2267 -0.6911 1.53
4 -14.879 -3.6581 -0.3138 1.53
5 -17.787 -7.1877 0 1.53
6 -1.5945 0.2267 -0.6911 1.53
7 -14.879 -3.6581 -0.3138 1.53
8 0.3388 -0.1096 0.1219 1.5202
9 -17.328 -5.79 -3.2114 1.5202
10 -14.879 -3.6581 -0.3138 1.53
11 0.3388 -0.1096 0.1219 1.5202
12 -17.328 -5.79 -3.2114 1.5202
13 1.3445 3.5515 -4.9202 1.3683
14 1.3445 3.5515 -4.9202 1.3683
15 4.26 0 0 1.3683
16 -1.5945 0.2267 -0.6911 1.53
17 -3.5039 1.2458 -0.761 1.53
18 -3.5039 1.2458 -0.761 1.53
19 0 0 0 1.43
20 -14.261 -0.5322 -0.4864 1.53
21 0.2359 0.9139 0.9594 1.5202
22 -13.7686 -2.5959 1.1934 1.5202

BondBond13 Coeffs

1 0 1.53 1.53
2 0 1.53 1.53
3 0 1.53 1.5202
4 0 1.53 1.101
5 0 1.53 1.53
6 0 1.53 1.5202
7 0 1.53 1.101
8 0 1.53 1.202
9 0 1.53 1.3683
10 0 1.53 1.101
11 0 1.53 1.202
12 0 1.53 1.3683
13 0 1.5202 1.43
14 0 1.43 1.5202
15 0 1.43 1.202
16 0 1.53 1.5202
17 0 1.5202 1.101
18 0 1.5202 1.101
19 0 1.3683 1.101
20 0 1.101 1.101
21 0 1.101 1.202
22 0 1.101 1.3683

AngleTorsion Coeffs

1 0.3886 -0.3139 0.1389 0.3886 -0.3139 0.1389 112.67 112.67
2 0.3886 -0.3139 0.1389 0.3886 -0.3139 0.1389 112.67 112.67
3 -0.2607 0.3203 -0.2283 0.0515 -0.0674 -0.0474 112.67 108.53
4 -0.2454 0 -0.1136 0.3113 0.4516 -0.1988 112.67 110.77
5 0.3886 -0.3139 0.1389 0.3886 -0.3139 0.1389 112.67 112.67
6 -0.2607 0.3203 -0.2283 0.0515 -0.0674 -0.0474 112.67 108.53
7 -0.2454 0 -0.1136 0.3113 0.4516 -0.1988 112.67 110.77
8 0.0885 -1.3703 -0.5452 0.675 0.5965 0.6725 108.53 123.145
9 0 0 0 0 0 0 108.53 100.318
10 -0.2454 0 -0.1136 0.3113 0.4516 -0.1988 112.67 110.77
11 0.0885 -1.3703 -0.5452 0.675 0.5965 0.6725 108.53 123.145
12 0 0 0 0 0 0 108.53 100.318
13 0 0 0 0 0 0 100.318 113.288
14 0 0 0 0 0 0 113.288 100.318
15 0 0 0 0 0 0 113.288 120.797
16 -0.2607 0.3203 -0.2283 0.0515 -0.0674 -0.0474 112.67 108.53
17 -0.7466 -0.9448 -0.6321 0.0162 1.4211 -1.4092 108.53 110.77
18 -0.7466 -0.9448 -0.6321 0.0162 1.4211 -1.4092 108.53 110.77
19 0 0 0 0 0 0 113.288 107.688
20 -0.8085 0.5569 -0.2466 -0.8085 0.5569 -0.2466 110.77 110.77
21 9.1299 -0.4847 0.3582 -1.4946 0.7308 -0.2083 107.734 123.145
22 0 0 0 0 0 0 107.734 100.318

Improper Coeffs # class2/kk

1 0 0
2 0 0
3 0 0
4 0 0
5 0 0
6 0 0
7 0 0
8 0 0
9 0 0
10 0 0
11 0 0
12 0 0
13 46.9264 0
14 46.9264 0

AngleAngle Coeffs

1 -0.1729 -0.1729 -0.1729 112.67 112.67 112.67
2 0 0 0 112.67 108.53 108.53
3 -1.3199 -1.3199 0.1184 112.67 110.77 110.77
4 -1.3199 -1.3199 0.1184 112.67 110.77 110.77
5 0.2738 -0.4825 0.2738 110.77 110.77 107.66
6 0.2738 -0.4825 0.2738 110.77 110.77 107.66
7 -0.3157 -0.3157 -0.3157 107.66 107.66 107.66
8 0 0 0 107.66 107.688 107.688
9 0 0 0 112.67 108.53 108.53
10 -1.3199 -1.3199 0.1184 112.67 110.77 110.77
11 2.0403 -1.8202 1.0827 108.53 110.77 107.734
12 1.0827 -1.8202 2.0403 110.77 108.53 107.734
13 0 0 0 100.318 123.145 120.797
14 0 0 0 100.318 123.145 120.797

Atoms # full/kk

5428 8 4 0.053 5.875145466412039 8.417657477661766 4.544292488039139 0 0 0
4420 6 4 0.053 10.095958688487954 5.9085925773341454 8.664537685738917 0 1 0
5414 8 4 0.053 7.419109479284701 9.877663877635818 6.184900641453873 0 0 0
5412 8 4 0.053 9.037998393711899 9.09558729174285 6.8409113943009165 0 0 0
2763 4 1 0.066 4.607626816522322 9.817379996440241 8.62836832208265 0 0 0
5411 8 1 0.066 8.561001762869397 9.98236434514821 6.378794233413203 0 0 0
4419 6 4 0.053 10.335096075277892 7.347065648926975 7.781003516099966 0 1 0
5410 8 6 -0.396 9.217330352472649 10.547667570068128 5.204063409394775 0 0 0
4418 6 4 0.053 9.985603742435531 7.415374489495015 9.659841013222822 0 1 0
4417 6 1 0.066 10.472221276489325 6.887994471527335 8.767029068913713 0 1 0
2760 4 3 0.702 5.908419343583272 10.59287084075831 10.44238026494287 0 0 0
2764 4 4 0.053 46.66462621067925 9.207534463517435 8.966026294499096 -1 0 0
4180 6 4 0.053 4.662587898798861 47.30593820775122 5.308752080188387 0 0 0
2766 4 4 0.053 5.4368205902109565 9.002744205380324 8.516760031186747 0 0 0
4177 6 1 0.066 4.801483126542012 46.514079393846856 6.112193141432051 0 0 0
5427 8 4 0.053 6.843516680021696 6.848263418132241 4.747734572497812 0 0 0
5426 8 1 0.066 6.538606227964797 7.698724659767519 46.98094013876743 0 0 -1
2765 4 4 0.053 47.28305444251148 10.297963631168983 7.651942021461253 -1 0 0
4178 6 4 0.053 46.74662481290811 46.05297943078606 6.280465506938288 -1 0 0
4179 6 4 0.053 5.2226870900683116 47.14150848133962 6.862658124761379 0 0 0
4427 6 4 0.053 10.916293217428777 10.213149988276925 9.193051213011325 0 1 0
4203 6 4 0.053 10.61635262713234 4.7788289799137775 4.770004702281115 0 1 0
4414 6 3 0.702 12.639195235930023 7.813488628602251 8.294870231494034 0 1 0
4395 6 1 -0.159 15.584427312740113 8.248819300758905 6.552512701345989 0 1 0
4409 6 1 0 13.700791349394478 8.391192525401669 9.376981524535813 0 1 0
4406 6 1 -0.106 14.934886350215887 9.36542686794063 8.771966215835612 0 1 0
4410 6 1 -0.159 14.33335954671262 7.151995681182758 9.970446757781854 0 1 0
4416 6 6 -0.396 11.925473436244474 6.905748934560988 8.991028064357772 0 1 0
4396 6 4 0.053 14.751096445860881 7.553569981079632 6.598815406302872 0 1 0
4413 6 4 0.053 14.802304647063034 6.493366389031773 9.158142967234445 0 1 0
4397 6 4 0.053 15.09766990410483 9.005235040567591 5.938599397634934 0 1 0
4415 6 5 -0.531 12.530172667039617 8.03253811781541 7.1340143571443315 0 1 0
4394 6 1 0 16.109875048962557 8.891192652025142 7.822578934421175 0 1 0
4202 6 4 0.053 12.158007586891156 5.335455994047128 5.38141781023857 0 1 0
4408 6 4 0.053 15.427717033087555 9.843676452836926 9.627264256597693 0 1 0
4407 6 4 0.053 14.363919835416022 10.110097179009854 8.232327176926686 0 1 0
4398 6 4 0.053 16.411025727904345 7.860233950810626 5.954488983745195 0 1 0
4237 6 1 0.066 16.03779458077657 5.097520582124472 5.119513976757786 0 1 0
4201 6 4 0.053 10.839844439303626 4.992993772185114 6.478501622494812 0 1 0
4200 6 1 -0.159 11.411328235081251 4.592986269205903 5.606163911805788 0 1 0
4238 6 4 0.053 17.15295199455644 5.078648872492181 5.430045290657708 0 1 0
4358 6 4 0.053 12.708136371549923 10.126670016370317 46.66335636059113 0 1 -1
4240 6 4 0.053 15.408442236733915 4.765192886855249 5.89594381708637 0 1 0
4399 6 3 0.702 17.13790999530952 7.914606157239972 8.596584974124385 0 1 0
4377 6 4 0.053 17.08535054330363 9.88982389316121 4.6833089126149225 0 1 0
4391 6 1 -0.106 16.920232582230312 10.262901497868025 7.525201736983753 0 1 0
4239 6 4 0.053 15.907579275105416 6.171877233682302 4.776223602268472 0 1 0
4382 6 4 0.053 19.88242126942992 9.191941633682813 7.342516180494476 0 1 0
4380 6 1 -0.159 19.166467287348148 9.296319969629847 6.528099436858177 0 1 0
4383 6 4 0.053 19.805778432347964 9.404042414513547 5.695599475931012 0 1 0
4400 6 5 -0.531 17.342551539932874 6.830828421413079 8.170859862413526 0 1 0
4401 6 6 -0.396 17.675407228169746 8.45248298436924 9.712310569227409 0 1 0
3957 6 4 0.053 21.578131641022402 4.904648726858524 9.263762807915139 0 1 0
3960 6 1 -0.159 19.898224602471167 4.599317599881059 6.984421302040842 0 1 0
4381 6 4 0.053 18.7378134780335 8.215932710481548 6.590446182476545 0 1 0
4379 6 1 0 18.12795866280657 10.501500888211378 6.479052482453086 0 1 0
3962 6 4 0.053 19.024240020414233 47.22397556777288 6.5284390746558385 0 0 0
3952 6 1 0.066 22.052617250176468 7.1174253730631145 4.711448518855716 0 1 0
3951 6 6 -0.396 22.639089420521294 6.2913237788116625 5.74777321310091 0 1 0
4402 6 1 0.066 18.71539775637188 7.9726259112225595 10.416691443691912 0 1 0
3961 6 4 0.053 20.399072461409055 5.239499519514988 6.265384604014252 0 1 0
3963 6 4 0.053 19.514050251756586 5.294495644294123 7.824147765081455 0 1 0
3955 6 4 0.053 21.014192313163264 7.351008648299878 5.121453612238018 0 1 0
4404 6 4 0.053 19.048022500395767 8.680065315290648 11.103798834041962 0 1 0
3953 6 4 0.053 22.548427230051125 8.020590587904874 4.681158154494251 0 1 0
4405 6 4 0.053 19.58715102926459 7.857068453101992 9.797507185032709 0 1 0
3932 6 4 0.053 22.266727227995894 7.779463542181649 10.028782634558283 0 1 0
3949 6 3 0.702 22.569904877549995 6.591320467449508 7.091836946812983 0 1 0
3950 6 5 -0.531 22.18106399563188 7.550326009767627 7.5416896615804765 0 1 0
3930 6 1 -0.159 23.194280943442408 7.873681326666022 10.348428750749505 0 1 0
3931 6 4 0.053 23.65372762923455 8.58145326100382 9.582053766671944 0 1 0
4612 7 5 -0.531 24.46886852596518 9.738913563410478 4.67685628150745 0 0 1
4617 7 4 0.053 24.951657916383596 9.865073403101764 7.577885205058989 0 0 1
4614 7 1 0.066 25.527607756144395 9.054705378156783 7.156740769953473 0 0 1
4615 7 4 0.053 24.99976386152607 8.22246997235194 6.722515390503351 0 0 1
4611 7 3 0.702 25.683635055057593 9.817022098271408 4.889609286071316 0 0 1
3927 6 4 0.053 25.838285769872968 7.062141278166884 10.164105500730889 0 1 0
6465 9 4 0.053 28.891453315763982 44.09070718373319 46.898564404298504 0 0 0
3941 6 1 -0.106 24.03191981611509 5.686098104450239 8.991495557110484 0 1 0
4613 7 6 -0.396 26.2977746569393 9.594748398038854 6.01812326922085 0 0 1
3944 6 1 0 23.14503460604507 5.381688860949672 7.853527714011142 0 1 0
3942 6 4 0.053 24.91253099566161 6.346081518942611 8.542723223872317 0 1 0
3929 6 1 0 23.759500758508594 6.527047616156708 10.421720397363998 0 1 0
4616 7 4 0.053 26.180316394850628 8.683570266735309 7.962850514905805 0 0 1
3946 6 4 0.053 24.864749935157114 5.12706369831602 6.440898961643503 0 1 0
6856 10 4 0.053 29.77141506867128 7.081939100647185 6.673116415616843 0 0 1
4623 7 4 0.053 26.49186068560503 7.459982922962535 46.916929101070146 0 0 0
6858 10 4 0.053 28.92796045493638 6.023550307249108 7.8552386121923305 0 0 1
6864 10 4 0.053 31.7240479414762 5.265634168544768 10.26073038119048 0 0 1
6857 10 4 0.053 28.40408628836414 7.769235601530109 7.4057391592836765 0 0 1
6855 10 1 0.066 29.20124838636426 7.036248599787142 7.618146368738857 0 0 1
6845 10 4 0.053 32.97914691731087 10.140248851681292 9.662353832267476 0 0 1
6861 10 4 0.053 33.662979822366026 7.183392483829163 10.421572975911172 0 0 1
6844 10 1 -0.106 32.86274984000919 9.244469927534881 9.062216137548017 0 0 1
6846 10 4 0.053 33.8263787452604 8.755476018845487 9.1214623415058 0 0 1
6852 10 3 0.702 31.215672250140276 7.2469328719068 8.883419705177978 0 0 1
6832 10 1 0 32.72167075601961 9.900603601038942 7.6064314033379015 0 0 1
6838 10 5 -0.531 31.703253290423902 8.317102697239415 6.097551662164369 0 0 1
6853 10 5 -0.531 31.760147429157644 6.443363309869254 8.253771916642627 0 0 1
6847 10 1 0 31.829694250419763 8.208129354137501 9.892928771209064 0 0 1
6854 10 6 -0.396 29.90630780391614 7.61715173796021 8.685181318838332 0 0 1
6837 10 3 0.702 32.70174820131295 8.760437915718951 6.539269562700296 0 0 1
6849 10 4 0.053 30.355400430106787 10.06042242459364 10.161496158048685 0 0 1
6843 10 4 0.053 33.18136604576538 6.9717353622974 4.970301879777952 0 0 1
6839 10 6 -0.396 33.95941073991824 8.182470160171377 6.390470231282167 0 0 1
6848 10 1 -0.159 30.75606135891761 9.145988480866363 10.632783719973665 0 0 1
6479 9 4 0.053 34.07058457091499 5.437798874332359 7.552286180165957 0 1 1
6859 10 1 -0.106 32.740501364364206 7.593442482549634 10.913929428611562 0 0 1
6480 9 4 0.053 35.76518031298819 5.047154410704354 7.346464849039253 0 1 1
6850 10 4 0.053 31.224114505177603 9.45969754417671 11.5749848236326 0 0 1
6840 10 1 0.066 34.10102505396473 7.204289583155123 5.36831395761217 0 0 1
6971 10 4 0.053 40.6977652968679 7.55512491046019 4.76042488314405 0 0 1
6885 10 1 0.066 36.7415868353758 9.585312164733017 12.370508844547716 0 0 1
6886 10 4 0.053 37.56056826250214 9.179091915209646 11.756136405367437 0 0 1
6821 10 4 0.053 35.32400570350241 9.769079635940741 5.303143016332247 0 0 1
6888 10 4 0.053 35.9989233527273 10.214188816459853 11.702397771054445 0 0 1
6883 10 5 -0.531 35.8889061392456 7.325087434259049 11.10018518413597 0 0 1
6841 10 4 0.053 34.44289301475433 6.236800299861057 5.61825981330979 0 0 1
6831 10 4 0.053 35.08269845377387 10.234570120834361 7.95162651550444 0 0 1
6920 10 4 0.053 37.741220615282494 4.935091383260228 9.12475016172859 0 0 1
6930 10 1 0.066 37.3224568567761 7.382828835670679 6.643301767284544 0 0 1
6927 10 3 0.702 38.97629577758579 5.6943206909098185 6.9996430513066965 0 0 1
6922 10 1 0 39.611032323062254 5.046950826110088 8.244596249655078 0 0 1
6921 10 4 0.053 38.71791223338101 6.239336683394657 9.92368446531974 0 0 1
6932 10 4 0.053 36.748380934788166 6.6748279823456675 5.946102770115876 0 0 1
6919 10 1 -0.106 38.76595825410249 5.144814077709471 9.603839816932815 0 0 1
6931 10 4 0.053 36.53498150452125 8.063684192889362 7.163608155469864 0 0 1
6933 10 4 0.053 38.02471280290542 7.940547120124821 5.953200839919887 0 0 1
6929 10 6 -0.396 38.10338826459651 6.583791192976311 7.4805740943497785 0 0 1
6928 10 5 -0.531 39.01988683422387 5.457895827335857 5.76121562606587 0 0 1
6936 10 4 0.053 41.30845747865344 5.146582596449092 9.449349932210943 0 0 1
6934 10 1 -0.106 41.08933617247483 5.789287949577282 8.59399341647605 0 0 1
6951 10 4 0.053 41.46104404875088 7.025159243151764 6.27350751605159 0 0 1
6939 10 4 0.053 44.29730124245696 7.2295139804278925 8.153873178345314 0 0 1
6944 10 6 -0.396 43.89709046107501 47.27577027831461 9.05871983283258 0 -1 1
6953 10 1 -0.159 44.565816942153106 5.3904309738112 5.247843828731321 0 0 1
6935 10 4 0.053 40.88629964718066 6.772689663076442 8.963563369846064 0 0 1
6942 10 3 0.702 43.083975229406455 4.436398462263248 7.975856810815005 0 0 1
6952 10 1 0 43.28644759187746 6.333051680163843 5.232023051069163 0 0 1
6957 10 3 0.702 43.77224099058144 7.933574960401112 5.34546094507172 0 0 1
6938 10 1 -0.159 43.281732548697796 7.0387572550484965 8.545525409865835 0 0 1
6941 10 4 0.053 43.37162956972211 6.621465286607755 9.549339193949914 0 0 1
6955 10 4 0.053 44.77604832559191 5.238627213109538 6.295029392906896 0 0 1
6949 10 1 -0.106 42.12215183110752 6.2023202740113925 6.283495480776878 0 0 1
6958 10 5 -0.531 43.08737151270075 8.840435206294124 5.624612875361092 0 0 1
6937 10 1 0 42.449364684187586 5.84072188480206 7.817827139142059 0 0 1
6940 10 4 0.053 42.73954305644017 8.000693648685886 8.595025068782203 0 0 1
6950 10 4 0.053 41.46859602805868 5.312421729858392 6.159666156939756 0 0 1
6960 10 1 0.066 45.74597934841736 9.370386300482114 4.90123702848006 0 0 1
6956 10 4 0.053 44.38298043556973 4.456570285936863 4.641160691843309 0 0 1
6959 10 6 -0.396 45.096505252717 8.066786839326216 4.976577881694771 0 0 1
6962 10 4 0.053 46.5946172763367 9.540961599518852 5.52435906889639 0 0 1
2762 4 6 -0.396 4.908546324888347 10.83095262893854 9.558855872956018 0 0 0
2754 4 4 0.053 4.737096105921094 13.160128873522332 10.024221820463326 0 0 0
5413 8 4 0.053 8.662356876435954 10.699864248981427 7.224153726922065 0 0 0
5247 7 4 0.053 6.036131291637144 13.865949232190808 5.073756738179023 0 0 1
2726 4 1 -0.159 7.721937410271405 15.640281123850157 7.657445282450729 0 0 0
2729 4 4 0.053 8.643177372560263 15.124053643769345 8.161472705456884 0 0 0
2725 4 1 0 6.774132468656997 16.311765662910858 8.634117052834226 0 0 0
2737 4 1 -0.106 6.065819046469009 15.136328476022621 9.364338145238868 0 0 0
2724 4 4 0.053 5.036698646779194 16.28193638117974 7.2125619673053185 0 0 0
2738 4 4 0.053 5.362170631406865 15.672404510198351 10.016970337419394 0 0 0
2728 4 4 0.053 7.048289145326463 15.020293559089618 7.066752153502613 0 0 0
2739 4 4 0.053 5.396073176533187 14.632607854512287 8.605090754744293 0 0 0
2713 4 4 0.053 6.592128143940594 16.09439540540871 5.465530916742045 0 0 0
2711 4 1 -0.159 6.09369790615087 16.919029184355157 5.179549272332113 0 0 0
2742 4 4 0.053 6.962727342467069 12.44520432004627 8.691072234572585 0 0 0
2727 4 4 0.053 8.162326806722982 16.301464923758004 6.8376367605400885 0 0 0
5390 8 4 0.053 9.253327242981836 12.968061319870678 6.020977301866089 0 0 0
2744 4 4 0.053 8.472138667369055 13.287790379186557 8.931457825557523 0 0 0
2741 4 1 -0.159 7.5458129753479355 12.946338163260979 9.365846046599529 0 0 0
2740 4 1 0 6.765861115520359 13.979098501279578 10.208071317823366 0 0 0
5409 8 5 -0.531 7.229681133063396 11.535967054816204 4.506382060319547 0 0 0
5408 8 3 0.702 8.379431033687187 11.289086781944093 47.31440639755819 0 0 -1
2743 4 4 0.053 7.834477968260471 12.141731700669027 9.973579996882581 0 0 0
5389 8 1 -0.159 10.106049428232986 13.587621325408435 5.894620651237774 0 0 0
5392 8 4 0.053 9.882342459760975 14.568080428876398 6.377740461391124 0 0 0
2714 4 4 0.053 5.075113519432673 16.505145537002818 4.955120889593913 0 0 0
4428 6 4 0.053 12.195794881552281 11.02642324697749 8.629545526249958 0 1 0
4425 6 1 -0.159 11.565390115858017 11.034630892954672 9.520339240729967 0 1 0
4426 6 4 0.053 10.978164177111452 11.980182976007736 9.682376666312578 0 1 0
5380 8 6 -0.396 11.624812173524361 16.35617521220982 6.7316113616628614 0 0 0
5391 8 4 0.053 10.89602316894642 13.08540830077894 6.501344339820899 0 0 0
5379 8 5 -0.531 13.179896293972112 14.93831950387226 7.392702799559616 0 0 0
5378 8 3 0.702 12.588895933670466 15.517749055058989 6.486491071852023 0 0 0
5373 8 1 0 13.004602606031009 15.142643462866193 4.946308515119109 0 0 0
5375 8 4 0.053 15.255707119062912 15.080386707419903 5.485921395726696 0 0 0
5377 8 4 0.053 14.58841733923136 13.570817784018114 5.185551037634097 0 0 0
5374 8 1 -0.159 14.427536503777093 14.609543784986338 4.877868573160406 0 0 0
5386 8 4 0.053 12.546595419402689 12.984714604606955 4.77957265267418 0 0 0
4392 6 4 0.053 16.092115517622016 10.870782436237558 7.1993985082874055 0 1 0
4378 6 4 0.053 16.860180788068522 11.639614640923082 5.031229203285509 0 1 0
5383 8 4 0.053 10.754212237148842 15.686133212531937 8.482919750667687 0 0 0
4433 6 4 0.053 14.14944993553295 14.33214015119198 9.591064465913082 0 1 0
5385 8 1 -0.106 12.101973436695136 13.963946956205698 4.42894233009808 0 0 0
5376 8 4 0.053 14.802378207572078 14.513541246550496 46.73871355913097 0 0 -1
4393 6 4 0.053 17.255360439805948 10.703641030027399 8.499899252868667 0 1 0
4385 6 5 -0.531 18.218952004046795 12.887061215592945 6.6996597567268985 0 1 0
4366 6 4 0.053 18.36105032904677 13.239116927179113 47.14782725145977 0 1 -1
4376 6 1 -0.106 17.634467228156968 10.728261564379522 5.064927711244492 0 1 0
4384 6 3 0.702 18.836627601978478 11.849206179879033 6.815036115028402 0 1 0
4586 7 4 0.053 23.218699647140006 15.773879519000406 7.388373096306227 0 0 1
4389 6 4 0.053 21.745579259770288 13.116689417031125 7.707425337446152 0 1 0
4386 6 6 -0.396 20.239946591898345 11.838636075870753 7.08515544934984 0 1 0
4387 6 1 0.066 20.7695962592273 13.185359216587115 7.244408468216414 0 1 0
4388 6 4 0.053 20.193640716631513 13.756678767235186 8.05007855420418 0 1 0
4390 6 4 0.053 20.834463662088574 13.651069940114596 6.30175210968535 0 1 0
3540 5 4 0.053 18.379958396550634 12.425688966545964 9.849471434359016 0 0 0
3521 5 4 0.053 20.333748120081502 16.105985221449366 10.086671531723361 0 0 0
4367 6 4 0.053 19.97412718067443 12.479234153011612 4.485529187159877 0 1 0
4582 7 5 -0.531 22.760538679456047 14.63701832846165 5.181341860042912 0 0 1
3536 5 4 0.053 19.613703400586527 14.100243728441955 10.485470885042588 0 0 0
7349 10 6 -0.396 27.33734587775132 13.842850408002981 9.98546162938809 0 0 0
3514 5 6 -0.396 22.787905851452965 16.213624868272156 10.174393517638205 0 0 0
7351 10 4 0.053 26.41148068396064 12.520980703470434 8.757131170499452 0 0 0
4596 7 3 0.702 27.359660359855393 14.027986858410783 4.875837771039167 0 0 1
3516 5 4 0.053 23.556469109838368 14.342953947208397 9.825846232037703 0 0 0
3515 5 1 0.066 23.89791992914464 15.354458076270168 10.149142094161013 0 0 0
4593 7 4 0.053 24.910009714059363 13.909337515150424 6.503701927447066 0 0 1
4594 7 4 0.053 25.757162392316282 12.41019861925902 6.513515846317078 0 0 1
4592 7 1 -0.159 25.113038432096566 12.997147965005588 5.909560330399871 0 0 1
4595 7 4 0.053 24.119200017543573 12.549576039198278 5.8312900608044185 0 0 1
4598 7 6 -0.396 27.92340757772381 13.47787779443069 6.066197139912985 0 0 1
3518 5 4 0.053 24.75864397873171 15.691928651085556 9.552366064863948 0 0 0
4610 7 4 0.053 28.25965309291378 11.198312032958317 5.1942444956824705 0 0 1
4579 7 4 0.053 25.188655523962147 17.441791023843244 5.119321172963321 0 0 1
4581 7 3 0.702 23.34598127926885 15.6406205156033 4.923292663638663 0 0 1
4599 7 1 0.066 29.264853044370476 13.77082596116784 6.268813360554921 0 0 1
4600 7 4 0.053 29.464748903319702 14.847786938969067 6.107675469796675 0 0 1
3547 5 4 0.053 22.166123682204248 10.610484449676344 10.8252922531607 0 0 0
6801 10 4 0.053 31.88659931688761 14.469874894613222 5.5444408761147095 0 0 1
6829 10 1 -0.106 34.21377832869369 10.835046210842963 7.552407153578196 0 0 1
7338 10 4 0.053 34.77997671383202 15.039704456114562 10.74883608496206 0 0 0
6836 10 4 0.053 30.50730083181868 9.974223742854456 7.824004380907639 0 0 1
7346 10 4 0.053 28.449863439689892 15.807926280909143 9.071053723656613 0 0 0
4602 7 4 0.053 29.60722391637547 13.338240982575444 7.301726515931448 0 0 1
7343 10 1 -0.159 29.304821903735895 15.534640759174492 9.735254931247475 0 0 0
6834 10 4 0.053 31.05484877377583 11.109573732167885 6.628055949983889 0 0 1
7333 10 5 -0.531 32.58387125795719 13.756177710529423 10.04772491012811 0 0 0
6819 10 4 0.053 33.72838286456276 10.32198622461279 4.856224399797415 0 0 1
6833 10 1 -0.159 31.332965606776614 10.679496055720428 7.629468491217521 0 0 1
4601 7 4 0.053 29.84482240828296 13.316023746861177 5.412595093934545 0 0 1
7344 10 4 0.053 30.097229958431164 16.446612221164706 9.667168442088432 0 0 0
6835 10 4 0.053 31.264073475200416 11.43097727943099 8.42355067499604 0 0 1
6830 10 4 0.053 33.886434059844724 11.450341216444642 8.32545684748819 0 0 1
6816 10 4 0.053 34.006546005019686 13.670020177805176 7.2392459846316095 0 0 1
6814 10 1 -0.106 33.91658622018659 13.08740613769926 6.255179539789096 0 0 1
6815 10 4 0.053 32.880319061714545 12.66659069143683 6.276376339136353 0 0 1
6802 10 1 0 33.83687628812425 13.936950306858229 4.9887209156374235 0 0 1
6799 10 1 -0.106 32.78425081595961 15.057799228283656 5.332132917156951 0 0 1
6800 10 4 0.053 33.1526890829273 15.54666191763193 6.333079066514456 0 0 1
7345 10 4 0.053 29.79367805368176 14.69268924572864 9.123641966821397 0 0 0
6828 10 4 0.053 38.191151939315 13.886303136400914 7.4891939721262135 0 0 1
5229 7 1 0.066 40.11171335197262 15.636169825962694 5.821319982181332 -1 0 1
5230 7 4 0.053 39.84859375447138 14.64337002628807 5.378779665156751 -1 0 1
5232 7 4 0.053 39.476192126533235 16.3572936164027 5.4424468192657 -1 0 1
6803 10 1 -0.159 35.21713694857781 14.458650822121939 4.623033017835276 0 0 1
6824 10 6 -0.396 36.30096825446119 13.18346460842432 7.384593729577288 0 0 1
6822 10 3 0.702 36.22664958441141 12.071072890286532 6.608414826747532 0 0 1
6827 10 4 0.053 37.18999186636049 14.491100336109852 8.917888638954329 0 0 1
6817 10 1 0 34.68419849256558 11.712651982373137 6.285912994086635 0 0 1
6818 10 1 -0.159 34.78726141648633 10.741180973316673 5.056895723452861 0 0 1
6823 10 5 -0.531 37.14699754970473 11.369217197070235 6.400549425115551 0 0 1
6825 10 1 0.066 37.394431145341066 13.629919936166763 8.126796791486122 0 0 1
6805 10 4 0.053 35.73446547735548 15.235685581854161 5.353630708447305 0 0 1
6826 10 4 0.053 37.75250103251736 12.908421249632141 8.913609919940521 0 0 1
5228 7 6 -0.396 41.43358209381523 16.0222748858413 5.427854904287417 -1 0 1
5258 7 6 -0.396 41.99316084900994 13.435723871658242 9.552280397319366 -1 0 1
5260 7 4 0.053 40.224862282706034 14.012719291080199 10.540748392606284 -1 0 1
5255 7 4 0.053 42.99211217504842 10.834820417325577 6.811898105395019 -1 0 1
6820 10 4 0.053 35.08041063072221 11.158114443339066 46.99823208771374 0 0 0
5252 7 1 -0.159 42.816991842978645 11.03839849789703 7.953491046262477 -1 0 1
5250 7 4 0.053 42.669264991021926 13.943182638770871 7.236753149068953 -1 0 1
5248 7 1 -0.106 43.586148487752226 13.320419638737024 7.067475286590547 -1 0 1
5251 7 2 -0.053 43.60326557478859 12.302089722561114 8.163787477443828 -1 0 1
5256 7 3 0.702 43.21345217598338 12.788119109331268 9.566152663357883 -1 0 1
5241 7 3 0.702 45.84153570747261 13.444534301839337 6.04643644734035 -1 0 1
5243 7 6 -0.396 47.022014652581646 14.113655263973282 5.9140582277817835 -1 0 1
5236 7 1 0 44.75798840814519 14.243396235848143 6.864550795610832 -1 0 1
5249 7 4 0.053 43.365578619093895 12.707879920105066 6.1354066342933065 -1 0 1
5237 7 1 -0.159 45.344813117655775 14.788860253009755 8.250086643966567 -1 0 1
5239 7 4 0.053 45.5660910125222 14.14955468724317 9.08063989591785 -1 0 1
5242 7 5 -0.531 45.565234930328586 12.413615562899723 5.434224439764613 -1 0 1
5264 7 4 0.053 44.734171621199685 12.08507299483617 8.288166424550969 -1 0 1
5238 7 4 0.053 46.20677293435746 15.49923771766647 7.992681422830084 -1 0 1
5233 7 1 -0.106 44.39786947920439 15.544492330379578 6.10812509328027 -1 0 1
5244 7 1 0.066 5.084402424050831 13.401445179399214 5.164479017364793 0 0 1
5253 7 4 0.053 43.26116051771359 10.12036598127091 8.370080640563073 -1 0 1
5246 7 4 0.053 5.214613948942515 12.457287404410094 5.736759209733832 0 0 1
5240 7 4 0.053 44.42662263528522 15.37838604421766 8.601325870826019 -1 0 1
5235 7 4 0.053 45.26035593887672 16.286842349849767 6.052309567427042 -1 0 1
5221 7 1 0 43.72884620298666 15.680552877906182 4.644456896347073 -1 0 1
5226 7 3 0.702 42.24544067733834 15.023697292281138 4.833516700992218 -1 0 1
5245 7 4 0.053 4.666278726892736 13.401765198484288 47.055899498897986 0 0 0
5254 7 4 0.053 41.73464132888672 11.235068516682503 8.101461464867215 -1 0 1