units real
atom_style full
boundary p p p

# --- Force Field Styles ---
pair_style lj/cut 14.0
dielectric 1.000000
bond_style harmonic
angle_style harmonic
dihedral_style multi/harmonic
improper_style none
special_bonds lj 0 0 0
pair_modify mix arithmetic tail yes
neighbor 2.0 bin
neigh_modify delay 0 every 1 check yes
neigh_modify one 4000
package gpu 1 neigh yes

read_data /home/arz2/PolyJarvis/data/PE2/lammps/equil/npt_production/npt_production_out.data
Reading data file ...
  orthogonal box = (2.5061911 2.5061911 2.5061911) to (53.272181 53.272181 53.272181)
  1 by 1 by 1 MPI processor grid
  reading atoms ...
  4840 atoms
  reading velocities ...
  4840 velocities
  scanning bonds ...
  2 = max bonds/atom
  scanning angles ...
  1 = max angles/atom
  scanning dihedrals ...
  2 = max dihedrals/atom
  orthogonal box = (2.5061911 2.5061911 2.5061911) to (53.272181 53.272181 53.272181)
  1 by 1 by 1 MPI processor grid
  reading bonds ...
  4820 bonds
  reading angles ...
  4800 angles
  reading dihedrals ...
  4780 dihedrals
Finding 1-2 1-3 1-4 neighbors ...
  special bond factors lj:    0        0        0       
  special bond factors coul:  0        0        0       
     2 = max # of 1-2 neighbors
     2 = max # of 1-3 neighbors
     4 = max # of 1-4 neighbors
     6 = max # of special neighbors
  special bonds CPU = 0.001 seconds
  read_data CPU = 0.064 seconds


# --- Thermo Output ---
thermo_style custom step time temp press enthalpy etotal ke pe ebond eangle edihed eimp evdwl ecoul elong etail vol lx ly lz density pxx pyy pzz
thermo_modify flush yes
thermo 100

# --- Trajectory ---
dump dump_npt all custom 1000 /home/arz2/PolyJarvis/data/PE2/lammps/mechanical/bm_series/bm_P100/bm_P100.dump id type mol x y z ix iy iz vx vy vz

# --- Restart Checkpointing ---
restart 10000 npt_1.rst npt_2.rst

# --- Initial Velocities (optional) ---
# Velocities read from data file


# --- NPT Thermostat + Barostat (Nose-Hoover) ---
# T_damp = 100.0 fs  (heat bath coupling)
# P_damp = 1000.0 fs  (pressure bath coupling, ~10x T_damp typical)
# Ramp: T=300.0->300.0K  P=100.0->100.0atm
timestep 1.0
fix npt_fix all npt temp 300.0 300.0 100.0 iso 100.0 100.0 1000.0

run 500000

CITE-CITE-CITE-CITE-CITE-CITE-CITE-CITE-CITE-CITE-CITE-CITE-CITE

Your simulation uses code contributions which should be cited:

- GPU package (short-range, long-range and three-body potentials): doi:10.1016/j.cpc.2010.12.021, doi:10.1016/j.cpc.2011.10.012, doi:10.1016/j.cpc.2013.08.002, doi:10.1016/j.commatsci.2014.10.068, doi:10.1016/j.cpc.2016.10.020, doi:10.3233/APC200086

@Article{Brown11,
 author = {W. M. Brown and P. Wang and S. J. Plimpton and A. N. Tharrington},
 title = {Implementing Molecular Dynamics on Hybrid High Performance Computers---Short Range Forces},
 journal = {Comput.\ Phys.\ Commun.},
 year =    2011,
 volume =  182,
 pages =   {898--911},
 doi =     {10.1016/j.cpc.2010.12.021}
}

@Article{Brown12,
 author = {W. M. Brown and A. Kohlmeyer and S. J. Plimpton and A. N. Tharrington},
 title = {Implementing Molecular Dynamics on Hybrid High Performance Computers - Particle-Particle Particle-Mesh},
 journal = {Comput.\ Phys.\ Commun.},
 year =    2012,
 volume =  183,
 doi =     {10.1016/j.cpc.2011.10.012},
 pages =   {449--459}
}

@Article{Brown13,
 author = {W. M. Brown and Y. Masako},
 title = {Implementing Molecular Dynamics on Hybrid High Performance Computers---Three-Body Potentials},
 journal = {Comput.\ Phys.\ Commun.},
 year =    2013,
 volume =  184,
 pages =   {2785--2793},
 doi =     {10.1016/j.cpc.2013.08.002},
}

@Article{Trung15,
 author = {T. D. Nguyen and S. J. Plimpton},
 title = {Accelerating Dissipative Particle Dynamics Simulations for Soft Matter Systems},
 journal = {Comput.\ Mater.\ Sci.},
 year =    2015,
 doi =     {10.1016/j.commatsci.2014.10.068},
 volume =  100,
 pages =   {173--180}
}

@Article{Trung17,
 author = {T. D. Nguyen},
 title = {{GPU}-Accelerated {T}ersoff Potentials for Massively Parallel
    Molecular Dynamics Simulations},
 journal = {Comput.\ Phys.\ Commun.},
 year =    2017,
 doi =     {10.1016/j.cpc.2016.10.020},
 volume =  212,
 pages =   {113--122}
}

@inproceedings{Nikolskiy19,
 author = {V. Nikolskiy and V. Stegailov},
 title = {{GPU} Acceleration of Four-Site Water Models in {LAMMPS}},
 booktitle = {Proceedings of the International Conference on Parallel
    Computing (ParCo 2019), Prague, Czech Republic},
 doi =     {10.3233/APC200086},
 year =    2019
}

CITE-CITE-CITE-CITE-CITE-CITE-CITE-CITE-CITE-CITE-CITE-CITE-CITE

Generated 1 of 1 mixed pair_coeff terms from arithmetic mixing rule
Per MPI rank memory allocation (min/avg/max) = 15.03 | 15.03 | 15.03 Mbytes
   Step          Time           Temp          Press         Enthalpy        TotEng         KinEng         PotEng         E_bond        E_angle        E_dihed        E_impro         E_vdwl         E_coul         E_long         E_tail         Volume           Lx             Ly             Lz          Density          Pxx            Pyy            Pzz      
         0   0              301.48309      20.234638      4216.2766      4177.6675      4348.6342     -170.96676      1459.5162      1408.3707      2711.3368      0             -5750.1904      0              0             -190.5519       130833.38      50.76599       50.76599       50.76599       0.86216875     30.623021      141.5533      -111.47241    
       100   100            302.99356      70.290849      4254.3713      4120.3005      4370.4214     -250.12095      1406.4608      1386.6386      2693.935       0             -5737.1554      0              0             -190.62174      130785.44      50.759788      50.759788      50.759788      0.86248478     189.31702     -185.68347      207.23899    
       200   200            295.90804      351.20413      4721.9684      4053.499       4268.2189     -214.71997      1450.9268      1392.9303      2688.4577      0             -5747.0347      0              0             -191.02305      130510.69      50.724218      50.724218      50.724218      0.86430054     463.724        682.3586      -92.470211    
       300   300            300.2549       71.487028      4253.9025      4118.1437      4330.9187     -212.775        1415.2062      1444.0208      2691.8938      0             -5763.8959      0              0             -191.45511      130216.16      50.686032      50.686032      50.686032      0.86625544    -393.91197      259.13917      349.23388    
       400   400            302.00455      516.58939      5229.7285      4251.0245      4356.1559     -105.13141      1489.4922      1483.5772      2657.6178      0             -5735.8186      0              0             -191.91188      129906.24      50.645788      50.645788      50.645788      0.8683221      102.15186      239.42781      1208.1885    
       500   500            304.14927     -402.98695      3462.411       4229.6495      4387.0916     -157.44211      1474.2266      1426.9297      2689.5481      0             -5748.1464      0              0             -190.97141      130545.98      50.72879       50.72879       50.72879       0.86406686    -574.96159     -263.23539     -370.76386    
       600   600            300.91759      480.50003      5039.5458      4123.9668      4340.4774     -216.51068      1486.7455      1373.2549      2672.735       0             -5749.2461      0              0             -190.81185      130655.14      50.742926      50.742926      50.742926      0.86334492    -125.93459      554.84146      1012.5932    
       700   700            298.52917      191.90951      4425.4709      4059.5235      4306.0264     -246.50289      1424.3271      1423.4866      2654.6122      0             -5748.9288      0              0             -190.67141      130751.38      50.755381      50.755381      50.755381      0.86270951     675.1117      -356.82816      257.44498    
       800   800            296.20087      427.78668      4884.7426      4067.1956      4272.4428     -205.24719      1435.1276      1416.9307      2646.2262      0             -5703.5317      0              0             -190.24894      131041.73      50.792923      50.792923      50.792923      0.860798       823.57375      182.40557      277.38073    
       900   900            300.56603      272.91693      4670.3579      4148.4802      4335.4065     -186.92624      1457.1926      1445.4325      2624.1105      0             -5713.6618      0              0             -190.13825      131118.01      50.802777      50.802777      50.802777      0.86029717     282.97589     -91.057467      626.83235    
      1000   1000           304.11995      113.23238      4464.446       4247.7019      4386.6687     -138.96686      1473.2484      1434.5733      2671.5368      0             -5718.3254      0              0             -189.94636      131250.47      50.819878      50.819878      50.819878      0.85942896     402.5779       36.124726     -99.005485    
      1100   1100           308.85906     -551.83047      3306.1936      4362.8003      4455.0262     -92.22594       1497.2468      1427.2367      2658.6693      0             -5675.3787      0              0             -189.88911      131290.04      50.824985      50.824985      50.824985      0.85916992    -278.07156     -7.8693853     -1369.5505    
      1200   1200           307.73315      345.24892      4966.0003      4307.591       4438.7859     -131.19489      1449.4944      1479.4653      2670.5883      0             -5730.7429      0              0             -190.65321      130763.86      50.756995      50.756995      50.756995      0.86262717     242.328        299.85009      493.56867    
      1300   1300           303.04608     -83.847201      4011.9879      4171.8927      4371.1791     -199.28642      1457.5529      1376.5236      2666.752       0             -5700.1149      0              0             -190.64917      130766.63      50.757354      50.757354      50.757354      0.86260887     227.76191     -562.14314      82.839623    
      1400   1400           298.17334      706.97837      5457.7329      4113.2127      4300.8939     -187.68122      1401.2965      1510.217       2651.7103      0             -5750.905       0              0             -191.1818       130402.32      50.710175      50.710175      50.710175      0.86501878     34.204507      1352.3649      734.3657     
      1500   1500           298.81606      9.108306       4132.0188      4114.6816      4310.1647     -195.48309      1462.8326      1436.1926      2654.1638      0             -5748.6721      0              0             -191.0149       130516.26      50.724939      50.724939      50.724939      0.86426364    -157.74353      27.992812      157.07563    
      1600   1600           303.20131      10.767441      4188.6245      4168.1281      4373.4181     -205.28996      1453.2666      1448.342       2644.5772      0             -5751.4757      0              0             -191.00405      130523.67      50.725899      50.725899      50.725899      0.86421457     592.162       -431.2453      -128.61438    
      1700   1700           298.9825       204.70565      4508.4189      4119.965       4312.5654     -192.60045      1510.3418      1431.7545      2624.5278      0             -5759.2246      0              0             -191.60112      130116.93      50.673154      50.673154      50.673154      0.86691606     763.21051      506.14157     -655.23514    
      1800   1800           297.46267      139.63686      4262.7248      3997.5438      4290.6432     -293.09944      1409.419       1470.6959      2592.1318      0             -5765.3462      0              0             -191.45444      130216.61      50.686091      50.686091      50.686091      0.8662524      193.63075      334.20549     -108.92565    
      1900   1900           295.37267     -138.43529      3726.222       3989.819       4260.4967     -270.67763      1440.6813      1440.1564      2603.9312      0             -5755.4466      0              0             -190.9475       130562.32      50.730907      50.730907      50.730907      0.8639587     -292.0812       126.19278     -249.41744    
      2000   2000           293.6456       521.59528      5059.2288      4065.7423      4235.5851     -169.84284      1462.0855      1458.1723      2645.9938      0             -5736.0944      0              0             -190.88834      130602.79      50.736147      50.736147      50.736147      0.86369101    -64.04491       1375.646       253.18476    
      2100   2100           300.54161      131.02771      4382.8057      4133.2321      4335.0542     -201.8221       1473.0237      1469.8807      2633.0022      0             -5777.7286      0              0             -190.88522      130604.92      50.736424      50.736424      50.736424      0.8636769      82.986278     -111.76071      421.85756    
      2200   2200           301.96729     -191.88613      3767.2744      4132.6501      4355.6185     -222.96836      1457.0833      1424.6271      2642.4477      0             -5747.1265      0              0             -190.94648      130563.02      50.730997      50.730997      50.730997      0.86395407    -181.08375      1.976206      -396.55084    
      2300   2300           303.17656      851.16857      5747.3303      4128.1028      4373.0611     -244.95824      1407.4419      1425.8946      2639.9922      0             -5718.287       0              0             -191.1241       130441.68      50.715276      50.715276      50.715276      0.86475775     729.36609      1005.7067      818.43293    
      2400   2400           300.04705      160.01804      4434.501       4129.4514      4327.9206     -198.4692       1464.6495      1433.0624      2655.7871      0             -5751.9681      0              0             -190.72438      130715.07      50.750682      50.750682      50.750682      0.86294915     289.49463      5.1068676      185.45262    
      2500   2500           299.12869     -11.347961      4049.2398      4070.8761      4314.6741     -243.79797      1451.6417      1403.6608      2632.5597      0             -5731.6602      0              0             -190.6964       130734.24      50.753164      50.753164      50.753164      0.86282256    -263.84838     -18.911553      248.71605    
      2600   2600           295.80081      113.47248      4227.9922      4012.2602      4266.6722     -254.412        1439.954       1437.9106      2639.7417      0             -5772.0184      0              0             -191.24222      130361.12      50.704833      50.704833      50.704833      0.86529217     382.04007     -35.232844     -6.389782     
      2700   2700           299.99669      474.11502      4922.8044      4022.8856      4327.1942     -304.30857      1413.731       1419.4963      2632.0714      0             -5769.6072      0              0             -191.55264      130149.86      50.677429      50.677429      50.677429      0.8666967      888.36444      9.1129321      524.86769    
      2800   2800           300.80635      412.03967      4922.8473      4142.5002      4338.8728     -196.37257      1465.2789      1461.5885      2670.1643      0             -5793.4042      0              0             -191.98131      129859.26      50.639682      50.639682      50.639682      0.86863624     64.090512      763.02913      408.99936    
      2900   2900           303.00288     -53.503968      4074.9954      4176.1111      4370.556      -194.4449       1454.5263      1451.392       2663.0329      0             -5763.396       0              0             -192.38678      129585.57      50.604081      50.604081      50.604081      0.87047083     122.30954     -563.48597      280.66453    
      3000   3000           299.67603      401.53699      4875.5702      4117.2308      4322.569      -205.33825      1464.0491      1457.0889      2646.5047      0             -5772.981       0              0             -192.51725      129497.74      50.592647      50.592647      50.592647      0.87106117     558.95171      425.49937      220.15988    
      3100   3100           297.97993     -266.41         3549.2148      4056.0812      4298.1041     -242.02287      1414.9535      1446.8737      2634.4207      0             -5738.2708      0              0             -191.10179      130456.91      50.71725       50.71725       50.71725       0.86465679    -524.26662      11.140028     -286.10341    
      3200   3200           300.92076      41.939532      4144.6278      4064.3818      4340.5231     -276.14132      1437.7053      1420.7139      2608.1413      0             -5742.7018      0              0             -190.02373      131197.03      50.812981      50.812981      50.812981      0.85977901    -117.82976      377.05998     -133.41162    
      3300   3300           300.50654     -426.57025      3250.475       4067.927       4334.5484     -266.62137      1455.2845      1403.101       2597.6537      0             -5722.6605      0              0             -189.73002      131400.13      50.839188      50.839188      50.839188      0.85845008    -293.35517     -215.82659     -770.52898    
      3400   3400           301.24504      269.89668      4642.0307      4125.9026      4345.2005     -219.29791      1456.1622      1437.4871      2606.2905      0             -5719.2377      0              0             -190.12876      131124.56      50.803623      50.803623      50.803623      0.86025422     53.319078      375.87671      380.49424    
      3500   3500           304.5087       23.456845      4296.6949      4251.9265      4392.2761     -140.34964      1475.153       1453.1183      2649.7775      0             -5718.3984      0              0             -190.50453      130865.91      50.770197      50.770197      50.770197      0.86195444    -673.16144      367.14507      376.38691    
      3600   3600           300.07352      62.284064      4344.9001      4226.2705      4328.3024     -102.03194      1485.6349      1520.2378      2615.1877      0             -5723.0922      0              0             -190.89363      130599.17      50.735678      50.735678      50.735678      0.86371496     455.04057      107.98708     -376.17545    
      3700   3700           304.95473      23.367551      4190.315       4145.848       4398.7096     -252.86162      1443.1431      1460.7938      2554.9281      0             -5711.7267      0              0             -191.06565      130481.59      50.720448      50.720448      50.720448      0.86449326     50.013516      313.12126     -293.03212    
      3800   3800           299.64549     -202.05679      3694.5755      4080.3877      4322.1285     -241.74079      1449.3824      1455.7131      2609.6534      0             -5756.4898      0              0             -190.41679      130926.21      50.777993      50.777993      50.777993      0.86155746    -21.214903     -605.39119      20.435711    
      3900   3900           295.15645      36.501452      4118.9563      4049.1446      4257.3778     -208.23326      1442.7031      1473.5451      2613.1838      0             -5737.6653      0              0             -190.10329      131142.12      50.805891      50.805891      50.805891      0.860139       336.30393      128.87403     -355.67361    
      4000   4000           296.56099      235.19249      4521.4168      4072.8678      4277.6372     -204.76944      1451.6263      1461.1344      2632.6095      0             -5750.1396      0              0             -190.64319      130770.73      50.757885      50.757885      50.757885      0.86258182    -66.617386      236.31854      535.87631    
      4100   4100           304.32985      270.20825      4691.3251      4177.4937      4389.6964     -212.20271      1448.0534      1465.7346      2604.5891      0             -5730.5799      0              0             -191.19903      130390.57      50.708651      50.708651      50.708651      0.86509675     410.06204      116.25753      284.30517    
      4200   4200           306.83348     -82.390419      4080.0232      4236.5354      4425.809      -189.2736       1456.8777      1470.1916      2625.7476      0             -5742.0906      0              0             -191.39751      130255.35      50.691116      50.691116      50.691116      0.8659948     -67.567355     -281.57483      101.97093    
      4300   4300           301.02838      345.85948      4818.722       4160.6254      4342.0755     -181.45009      1469.9851      1490.3673      2611.3659      0             -5753.1684      0              0             -191.08111      130471.03      50.719079      50.719079      50.719079      0.86456324    -17.12401       648.49799      406.20444    
      4400   4400           303.39738     -184.35141      3753.3611      4104.8532      4376.2462     -271.39302      1388.5864      1449.4668      2606.8161      0             -5716.2624      0              0             -190.69471      130735.4       50.753313      50.753313      50.753313      0.86281493    -460.25439     -311.71853      218.9187     
      4500   4500           297.57534      534.93281      5115.4655      4095.3531      4292.2684     -196.9153       1465.0209      1497.8272      2583.2708      0             -5743.0343      0              0             -190.65971      130759.4       50.756419      50.756419      50.756419      0.86265658     895.97475      407.39772      301.42595    
      4600   4600           298.14241      19.30134       4113.6662      4076.849       4300.4478     -223.59888      1415.9215      1475.1434      2644.9002      0             -5759.5641      0              0             -190.60934      130793.95      50.760889      50.760889      50.760889      0.86242867    -475.78682      296.05456      237.63628    
      4700   4700           295.13608      99.186441      4232.0357      4043.5055      4257.0841     -213.57865      1450.1944      1434.0082      2640.4539      0             -5738.2351      0              0             -191.28421      130332.5       50.701122      50.701122      50.701122      0.86548219    -441.30436      122.51099      616.35269    
      4800   4800           295.57165      336.70883      4671.0469      4032.7331      4263.3668     -230.63367      1449.1908      1446.9472      2613.4115      0             -5740.1833      0              0             -191.7909       129988.18      50.656434      50.656434      50.656434      0.86777473     172.88552      906.70233     -69.461363    
      4900   4900           305.03282     -385.89095      3358.2165      4090.3478      4399.836      -309.48816      1429.7995      1419.0628      2609.5087      0             -5767.8592      0              0             -191.63877      130091.37      50.669835      50.669835      50.669835      0.8670864     -92.221425     -903.89475     -161.55669    
      5000   5000           301.57959      488.59096      5069.4003      4143.8047      4350.0262     -206.22144      1469.2402      1493.2042      2587.1772      0             -5755.8431      0              0             -191.92516      129897.24      50.644619      50.644619      50.644619      0.86838222     1056.7724      347.45553      61.54496     
      5100   5100           301.02977      136.68004      4456.6706      4197.3747      4342.0955     -144.72086      1481.7659      1482.2141      2627.6233      0             -5736.3242      0              0             -191.65369      130081.24      50.66852       50.66852       50.66852       0.86715391    -68.140546      387.75963      90.421024    
      5200   5200           308.96868      414.09509      4996.0953      4209.091       4456.6075     -247.51649      1369.6589      1504.2643      2630.5011      0             -5751.9408      0              0             -191.30693      130317.02      50.699115      50.699115      50.699115      0.86558497     309.6519       688.47762      244.15576    
      5300   5300           300.84252      266.22117      4617.4578      4108.4823      4339.3945     -230.91227      1441.0571      1441.7076      2625.3882      0             -5739.0652      0              0             -190.17498      131092.69      50.799506      50.799506      50.799506      0.86046337     1003.6682     -575.7019       370.69719    
      5400   5400           294.61837      159.46704      4345.5496      4040.6272      4249.6166     -208.98931      1461.534       1447.672       2625.7253      0             -5743.9207      0              0             -190.14699      131111.99      50.801999      50.801999      50.801999      0.86033672     283.56408      336.51813     -141.68111    
      5500   5500           301.8635       203.16517      4475.0228      4088.7961      4354.1213     -265.32525      1432.5274      1471.9272      2599.9189      0             -5769.6987      0              0             -191.25583      130351.84      50.70363       50.70363       50.70363       0.86535375     258.42818      335.8723       15.195041    
      5600   5600           298.86676      505.73257      5113.3404      4158.3572      4310.896      -152.53879      1484.8722      1479.8682      2628.8359      0             -5746.1152      0              0             -192.54529      129478.89      50.590191      50.590191      50.590191      0.87118802     91.264923      650.33056      775.60222    
      5700   5700           303.54108     -186.12575      3906.5295      4258.4419      4378.319      -119.87709      1445.5614      1492.858       2702.7983      0             -5761.0948      0              0             -192.30017      129643.93      50.611677      50.611677      50.611677      0.87007897     92.922578     -428.07885     -223.22097    
      5800   5800           308.9427      -330.3969       3726.1499      4354.7302      4456.2327     -101.50248      1437.7035      1537.5949      2670.2963      0             -5747.0972      0              0             -191.10979      130451.45      50.716542      50.716542      50.716542      0.864693      -452.50755     -314.76852     -223.91463    
      5900   5900           303.25195     -47.065935      4166.2132      4256.1356      4374.1485     -118.0129       1485.0761      1478.1257      2676.1717      0             -5757.3864      0              0             -190.30342      131004.21      50.788075      50.788075      50.788075      0.86104449     96.449909     -239.47561      1.8278918    
      6000   6000           301.18028     -149.2127       3896.0639      4180.9134      4344.2665     -163.35316      1491.4423      1475.2131      2626.839       0             -5756.8476      0              0             -190.45751      130898.22      50.774374      50.774374      50.774374      0.86174171    -119.83339     -182.32647     -145.47825    
      6100   6100           295.04581     -215.30471      3687.4935      4097.7586      4255.782      -158.0234       1445.252       1479.4239      2637.3723      0             -5720.0716      0              0             -190.80805      130657.74      50.743262      50.743262      50.743262      0.86332774    -460.67045     -54.174876     -131.06881    
      6200   6200           302.05153      316.6981       4693.5392      4090.9692      4356.8335     -265.86436      1407.4403      1448.6269      2615.8217      0             -5737.7532      0              0             -191.09338      130462.65      50.717994      50.717994      50.717994      0.86461873     768.50365      202.90995     -21.319287    
      6300   6300           302.75253      853.64308      5773.362       4151.5065      4366.9449     -215.43843      1445.8817      1443.4845      2633.2351      0             -5738.0398      0              0             -191.36914      130274.66      50.693622      50.693622      50.693622      0.86586642     872.30329      995.2554       693.37055    
      6400   6400           308.42252      193.23113      4618.3627      4250.269       4448.7295     -198.46049      1461.1431      1464.5078      2653.6959      0             -5777.8073      0              0             -190.86507      130618.71      50.738209      50.738209      50.738209      0.86358571     748.3971      -488.99776      320.29404    
      6500   6500           301.72223     -406.34811      3429.7386      4206.2393      4352.0836     -145.84434      1444.6219      1485.6066      2632.1893      0             -5708.2621      0              0             -190.2673       131029.08      50.791288      50.791288      50.791288      0.86088108    -172.12078     -834.39055     -212.53301    
      6600   6600           297.04515      214.20322      4475.1099      4066.497       4284.6208     -218.12377      1451.1438      1436.6366      2645.9994      0             -5751.9036      0              0             -190.5995       130800.71      50.761764      50.761764      50.761764      0.86238412     180.86785      146.92249      314.81933    
      6700   6700           298.78794     -231.91317      3628.8893      4070.3619      4309.759      -239.39714      1403.3607      1462.7862      2643.6364      0             -5749.1804      0              0             -190.99827      130527.62      50.726412      50.726412      50.726412      0.86418839    -495.08703      328.24573     -528.89822    
      6800   6800           301.8346       190.01678      4485.6217      4124.2734      4353.7045     -229.43111      1436.8331      1425.9613      2645.1823      0             -5737.4078      0              0             -191.19373      130394.18      50.70912       50.70912       50.70912       0.86507277     58.837587      409.40719      101.80556    
      6900   6900           302.87721     -259.20584      3680.8537      4173.4655      4368.7433     -195.27776      1497.0746      1438.6452      2646.9542      0             -5777.9518      0              0             -191.31441      130311.93      50.698455      50.698455      50.698455      0.86561881    -40.630102     -580.71739     -156.27003    
      7000   7000           303.29532      146.65685      4505.0356      4226.6062      4374.7741     -148.16787      1438.4502      1471.033       2669.9403      0             -5727.5914      0              0             -191.51158      130177.76      50.68105       50.68105       50.68105       0.86651093     543.31725     -256.24474      152.89804    
      7100   7100           302.18447     -13.416263      4236.21        4261.7592      4358.7511     -96.991875      1513.2437      1434.2621      2670.7334      0             -5715.2311      0              0             -190.92461      130577.98      50.732934      50.732934      50.732934      0.8638551     -274.19306      283.20417     -49.259904    
      7200   7200           296.24055     -201.9231       3770.6841      4156.8918      4273.0152     -116.12337      1455.3292      1496.1543      2647.196       0             -5714.8029      0              0             -190.09592      131147.21      50.806548      50.806548      50.806548      0.86010563     188.24996     -581.92284     -212.09644    
      7300   7300           296.22849     -403.80289      3315.3247      4088.5509      4272.8412     -184.29033      1503.3964      1425.698       2600.9437      0             -5714.3284      0              0             -189.87623      131298.95      50.826134      50.826134      50.826134      0.85911165    -785.6399      -105.57484     -320.19393    
      7400   7400           294.44526     -725.59324      2717.5425      4105.593       4247.1196     -141.52657      1464.6914      1478.9177      2648.1841      0             -5733.3198      0              0             -190.06218      131170.49      50.809554      50.809554      50.809554      0.85995298    -677.98093     -426.25938     -1072.5394    
      7500   7500           303.86258      208.41412      4583.1064      4185.3571      4382.9563     -197.59919      1482.6358      1412.7635      2620.4781      0             -5713.4766      0              0             -190.51334      130859.86      50.769414      50.769414      50.769414      0.86199432     34.625053      422.84415      167.77315    
      7600   7600           305.52193     -143.76727      3909.2132      4183.8239      4406.891      -223.06713      1429.812       1451.6543      2617.2766      0             -5721.8101      0              0             -190.3489       130972.91      50.78403       50.78403       50.78403       0.86125028    -385.50982      271.68804     -317.48003    
      7700   7700           296.37907      231.54372      4467.0726      4024.8419      4275.0131     -250.17128      1442.7897      1404.8647      2628.6687      0             -5726.4944      0              0             -190.36705      130960.42      50.782416      50.782416      50.782416      0.86133239     614.92038     -142.54811      222.2589     
      7800   7800           294.35979      474.03214      4912.5274      4007.1416      4245.8868     -238.74524      1466.6992      1403.5784      2607.0851      0             -5716.1079      0              0             -190.36269      130963.42      50.782803      50.782803      50.782803      0.86131267     750.19752      279.86338      392.03554    
      7900   7900           304.18611     -331.70021      3458.3176      4091.5923      4387.6229     -296.03068      1437.3355      1414.8414      2581.1012      0             -5729.3088      0              0             -190.44141      130909.29      50.775806      50.775806      50.775806      0.86166883    -265.25637      437.79546     -1167.6397    
      8000   8000           298.36008     -356.40749      3449.3352      4127.9158      4303.5875     -175.67169      1438.0369      1481.9165      2625.3404      0             -5720.9656      0              0             -190.96472      130550.55      50.729382      50.729382      50.729382      0.86403658    -547.79689     -582.37989      60.95431     
      8100   8100           297.75465     -257.36684      3647.5056      4136.7494      4294.8547     -158.10529      1459.5797      1494.5197      2618.3866      0             -5730.5912      0              0             -191.26478      130345.74      50.702839      50.702839      50.702839      0.86539426     44.847457      88.082173     -905.03014    
      8200   8200           300.7121      -53.058127      3972.3368      4073.2795      4337.5134     -264.23392      1438.3508      1440.7212      2627.3763      0             -5770.6822      0              0             -191.11072      130450.82      50.716461      50.716461      50.716461      0.86469718    -278.45669      483.32003     -364.03772    
      8300   8300           299.23633      118.43546      4209.239       3983.8909      4316.2267     -332.33575      1392.6908      1401.3939      2634.3144      0             -5760.7349      0              0             -191.08898      130465.66      50.718383      50.718383      50.718383      0.86459883     386.73953     -237.92945      206.49631    
      8400   8400           297.07107      404.31006      4770.2486      4001.7198      4284.9946     -283.27484      1454.5024      1425.3471      2606.0701      0             -5769.1944      0              0             -191.27673      130337.6       50.701783      50.701783      50.701783      0.86544833     30.134976      951.63355      231.16165    
      8500   8500           305.79769      165.00707      4421.3049      4107.7636      4410.8686     -303.10502      1435.8505      1442.7468      2569.1687      0             -5750.871       0              0             -191.34432      130291.56      50.695813      50.695813      50.695813      0.86575416    -201.90302      504.02989      192.89435    
      8600   8600           304.99236     -79.676937      3999.4329      4150.6213      4399.2524     -248.63106      1438.3509      1433.2792      2631.3297      0             -5751.5909      0              0             -191.61155      130109.85      50.672235      50.672235      50.672235      0.86696323     807.9198      -935.27076     -111.67985    
      8700   8700           298.11166     -482.19942      3196.7088      4112.002       4300.0043     -188.00235      1442.3704      1444.7037      2666.8624      0             -5741.9388      0              0             -191.5465       130154.03      50.67797       50.67797       50.67797       0.86666893    -767.16126      249.24611     -928.68311    
      8800   8800           298.4278       171.29788      4432.357       4107.058       4304.5644     -197.50633      1451.7423      1476.6234      2642.5364      0             -5768.4085      0              0             -191.45956      130213.14      50.68564       50.68564       50.68564       0.86627554     65.486909      213.93854      234.4682     
      8900   8900           301.69873     -804.50243      2587.7883      4119.5668      4351.7447     -232.17784      1416.2618      1488.1931      2609.9916      0             -5746.6243      0              0             -190.95855      130554.77      50.729928      50.729928      50.729928      0.86400869    -928.29563     -1239.6402     -245.57149    
      9000   9000           298.15931      221.55816      4516.8503      4095.4115      4300.6915     -205.28007      1401.3046      1486.0246      2656.6552      0             -5749.2645      0              0             -191.14411      130428.03      50.713507      50.713507      50.713507      0.86484826     331.8218       537.2659      -204.41321    
      9100   9100           298.9036       235.05009      4510.3833      4062.6563      4311.4273     -248.77094      1459.9533      1426.8721      2609.3295      0             -5744.9258      0              0             -190.87758      130610.15      50.7371        50.7371        50.7371        0.86364236     216.97738     -183.53026      671.70316    
      9200   9200           300.28362     -331.37478      3410.3331      4042.4383      4331.3329     -288.89456      1447.093       1380.354       2616.9338      0             -5733.2754      0              0             -190.60657      130795.86      50.761136      50.761136      50.761136      0.86241612     556.2368      -854.05128     -696.30988    
      9300   9300           300.09979      127.16108      4314.0525      4071.3037      4328.6813     -257.37766      1408.6234      1440.6985      2633.1518      0             -5739.8514      0              0             -190.46049      130896.18      50.77411       50.77411       50.77411       0.86175517     24.774509      182.23913      174.46961    
      9400   9400           297.59803     -156.42956      3839.2978      4137.5288      4292.5956     -155.06681      1447.2807      1465.5882      2656.2175      0             -5724.1533      0              0             -190.71013      130724.83      50.751946      50.751946      50.751946      0.86288467    -190.36612     -117.09691     -161.82564    
      9500   9500           303.15742      201.50209      4582.2691      4198.6767      4372.7851     -174.10837      1498.2221      1440.4133      2644.3764      0             -5757.1202      0              0             -190.99291      130531.28      50.726886      50.726886      50.726886      0.86416415     194.66578      556.86329     -147.02281    
      9600   9600           298.64744     -7.1046675      4118.8724      4132.3707      4307.7325     -175.36175      1467.8498      1465.3394      2668.6845      0             -5777.2354      0              0             -191.36933      130274.53      50.693604      50.693604      50.693604      0.8658673     -571.8113       555.7174      -5.2200975    
      9700   9700           299.91656      146.11738      4287.2364      4010.3772      4326.0384     -315.6612       1422.8454      1435.2677      2607.6609      0             -5781.4353      0              0             -191.88927      129921.54      50.647777      50.647777      50.647777      0.8682198      118.70228      107.31395      212.33591    
      9800   9800           301.81814     -449.47323      3147.5764      4000.9885      4353.467      -352.47847      1450.5965      1412.3833      2576.4217      0             -5791.88        0              0             -191.49294      130190.44      50.682695      50.682695      50.682695      0.86642656    -182.35407     -665.50573     -500.55989    
      9900   9900           293.10271      483.13075      4897.862       3982.1949      4227.7545     -245.55962      1433.9328      1446.8697      2611.049       0             -5737.4111      0              0             -191.83808      129956.21      50.652281      50.652281      50.652281      0.86798822     280.20928      698.43889      470.74408    
     10000   10000          300.72228     -372.52067      3378.9847      4086.183       4337.6602     -251.47723      1430.9704      1459.3469      2605.8078      0             -5747.6024      0              0             -191.52124      130171.2       50.680198      50.680198      50.680198      0.86655463    -694.93019     -366.77659     -55.855216    
     10100   10100          299.85009     -56.240487      4052.8458      4159.8044      4325.0796     -165.27521      1433.7595      1497.9675      2632.7352      0             -5729.7375      0              0             -191.17946      130403.91      50.710381      50.710381      50.710381      0.86500824    -10.25884      -324.12204      165.65942    
     10200   10200          299.23742      304.46238      4725.0799      4146.6966      4316.2423     -169.54576      1448.3838      1499.8461      2648.8765      0             -5766.6521      0              0             -191.39282      130258.54      50.69153       50.69153       50.69153       0.86597358     208.50291      512.39841      192.48582    
     10300   10300          298.89454      207.22044      4462.4886      4069.2253      4311.2966     -242.07132      1430.0957      1457.2168      2624.8973      0             -5754.2811      0              0             -191.583        130129.24      50.674751      50.674751      50.674751      0.86683407    -10.40471       601.46145      30.604583    
     10400   10400          300.21047     -178.2088       3678.2698      4016.5247      4330.2778     -313.75312      1433.4051      1440.9998      2599.2802      0             -5787.4381      0              0             -191.55469      130148.47      50.677248      50.677248      50.677248      0.86670598     266.81713     -99.186125     -702.25742    
     10500   10500          301.00834      211.05103      4411.5564      4011.2124      4341.7863     -330.57388      1453.1217      1419.4975      2568.2955      0             -5771.4886      0              0             -191.67344      130067.83      50.66678       50.66678       50.66678       0.86724328     491.30961      477.775       -335.93152    
     10600   10600          299.01252     -350.2922       3369.6859      4033.5667      4312.9984     -279.43174      1444.8672      1415.4748      2645.9046      0             -5785.6785      0              0             -191.84395      129952.23      50.651764      50.651764      50.651764      0.86801478    -631.48911     -793.87651      374.48903    
     10700   10700          299.50093      147.6875       4332.6259      4053.7157      4320.0433     -266.32763      1455.7925      1443.5168      2626.1785      0             -5791.8154      0              0             -192.52498      129492.54      50.591969      50.591969      50.591969      0.87109616    -228.60016      543.02419      128.63846    
     10800   10800          302.1847       726.23144      5427.5218      4059.0991      4358.7543     -299.6552       1404.5022      1496.2993      2617.853       0             -5818.3097      0              0             -192.95787      129202.03      50.554108      50.554108      50.554108      0.8730548      580.82058      877.20663      720.66711    
     10900   10900          301.5032      -224.59085      3646.6754      4071.5808      4348.9243     -277.34352      1442.6095      1450.6511      2629.3207      0             -5799.9248      0              0             -192.17971      129725.19      50.62225       50.62225       50.62225       0.86953392    -71.674695     -164.07264     -438.0252     
     11000   11000          298.61862      139.65341      4414.021       4148.2902      4307.3167     -159.0265       1500.3624      1501.1742      2613.5381      0             -5774.1013      0              0             -191.08094      130471.15      50.719095      50.719095      50.719095      0.86456244     378.03703     -147.56511      188.4883     
     11100   11100          300.91662      206.37972      4584.5419      4190.91        4340.4634     -149.55334      1480.6169      1475.899       2658.6301      0             -5764.6993      0              0             -190.62703      130781.82      50.759319      50.759319      50.759319      0.86250871     104.5165       83.438143      431.18451    
     11200   11200          304.43759     -111.86513      3927.4598      4140.664       4391.2503     -250.58635      1448.4309      1444.8163      2602.65        0             -5746.4835      0              0             -190.76851      130684.83      50.746768      50.746768      50.746768      0.86314882    -31.393936     -177.40459     -126.79687    
     11300   11300          299.73397      144.52224      4310.9278      4036.0096      4323.4047     -287.39511      1439.528       1426.3588      2608.6145      0             -5761.8965      0              0             -191.13448      130434.6       50.714359      50.714359      50.714359      0.86480469    -24.579026      16.180689      441.96506    
     11400   11400          296.94584     -144.80484      3734.917       4009.5966      4283.1883     -273.59169      1428.5677      1465.126       2605.2198      0             -5772.5052      0              0             -191.6745       130067.12      50.666687      50.666687      50.666687      0.86724806     2.5711036     -109.5182      -327.46743    
     11500   11500          302.51557      292.58941      4616.207       4063.8114      4363.5269     -299.71548      1425.0077      1432.3735      2624.8674      0             -5781.9641      0              0             -192.58219      129454.07      50.586959      50.586959      50.586959      0.871355       453.13905      553.66255     -129.03338    
     11600   11600          300.36501      575.49313      5168.6026      4082.5203      4332.5069     -249.98666      1441.6897      1473.0661      2609.5771      0             -5774.3196      0              0             -192.65715      129403.71      50.580397      50.580397      50.580397      0.87169417     269.41405      333.74556      1123.3198    
     11700   11700          297.358       -233.44564      3607.7094      4050.3945      4289.1334     -238.73889      1467.0752      1474.2754      2606.5786      0             -5786.6681      0              0             -191.73378      130026.9       50.661464      50.661464      50.661464      0.86751631    -170.14528      326.59345     -856.78508    
     11800   11800          297.46895      88.114823      4176.6818      4009.4312      4290.7337     -281.30247      1443.8502      1438.2156      2601.9706      0             -5765.3389      0              0             -191.55307      130149.57      50.677391      50.677391      50.677391      0.86669864    -201.862        443.50898      22.697486    
     11900   11900          295.93399      531.36526      5030.0181      4022.9519      4268.5932     -245.64128      1463.8077      1458.4536      2593.9581      0             -5761.8606      0              0             -191.84164      129953.79      50.651968      50.651968      50.651968      0.86800432     425.01615      156.68931      1012.3903    
     12000   12000          301.64886     -82.772085      4007.1669      4164.2486      4351.0253     -186.77676      1454.7509      1489.885       2619.6277      0             -5751.0405      0              0             -191.58697      130126.54      50.674401      50.674401      50.674401      0.86685203    -141.96353      751.31876     -857.67149    
     12100   12100          304.71514      457.77436      5065.0003      4195.4769      4395.2538     -199.77688      1433.8309      1478.655       2646.5196      0             -5758.7824      0              0             -191.41587      130242.86      50.689496      50.689496      50.689496      0.86607787    -497.07579      971.61439      898.78448    
     12200   12200          301.06139      488.72929      5034.7136      4106.7467      4342.5516     -235.80485      1439.8055      1427.8586      2653.1222      0             -5756.5911      0              0             -191.48891      130193.18      50.68305       50.68305       50.68305       0.86640834     249.05702     -9.86177        1226.9926    
     12300   12300          295.79996      145.37703      4333.6758      4057.6718      4266.66       -208.98815      1454.5281      1449.7896      2631.4754      0             -5744.7811      0              0             -191.50858      130179.81      50.681315      50.681315      50.681315      0.86649733     625.98225      159.17516     -349.02631    
     12400   12400          301.49151      127.44981      4306.0232      4063.5692      4348.7557     -285.18657      1387.8197      1442.8115      2623.9416      0             -5739.7593      0              0             -191.125        130441.07      50.715197      50.715197      50.715197      0.86476181    -442.09011      724.98022      99.45932     
     12500   12500          296.23684      142.60833      4342.7587      4070.7465      4272.9616     -202.21512      1449.3925      1423.9708      2647.7483      0             -5723.3268      0              0             -190.61812      130787.93      50.76011       50.76011       50.76011       0.86246839    -106.72575     -134.17048      668.72122    
     12600   12600          308.34783     -460.22628      3293.0135      4171.95        4447.6522     -275.7022       1427.842       1435.5063      2616.3498      0             -5755.4002      0              0             -190.38013      130951.43      50.781253      50.781253      50.781253      0.86139158     8.6132717     -163.16145     -1226.1306    
     12700   12700          306.83028      216.55793      4653.5361      4240.8534      4425.7628     -184.90939      1466.1521      1472.7238      2623.3089      0             -5747.0942      0              0             -190.7944       130667.09      50.744473      50.744473      50.744473      0.86326597    -749.37709      776.02762      623.02326    
     12800   12800          304.31566      183.49419      4516.4172      4167.2964      4389.4917     -222.19525      1447.206       1431.6837      2648.1948      0             -5749.2797      0              0             -191.09719      130460.05      50.717657      50.717657      50.717657      0.86463599     572.32838     -27.820481      5.9746588    
     12900   12900          301.9195      -254.53177      3595.0501      4079.214       4354.9291     -275.7151       1378.3343      1467.2954      2609.3887      0             -5730.7335      0              0             -191.14254      130429.1       50.713646      50.713646      50.713646      0.86484117     267.91561     -404.70211     -626.8088     
     13000   13000          299.41331      137.4524       4330.4322      4069.1162      4318.7795     -249.66332      1418.1249      1468.5709      2619.9073      0             -5756.2664      0              0             -191.24675      130358.03      50.704433      50.704433      50.704433      0.86531269    -324.36959      104.74879      631.978      
     13100   13100          297.06102      265.32579      4573.5354      4069.8474      4284.8496     -215.00226      1459.3084      1478.5298      2622.9702      0             -5775.8107      0              0             -191.52504      130168.62      50.679863      50.679863      50.679863      0.86657183     508.36999      170.56693      117.04045    
     13200   13200          301.74332     -422.17569      3323.2203      4125.4946      4352.3878     -226.89327      1435.0058      1480.4051      2612.1724      0             -5754.4766      0              0             -191.32781      130302.8       50.697271      50.697271      50.697271      0.86567946    -102.43468     -782.68217     -381.41021    
     13300   13300          300.48036      515.51612      5176.6452      4196.8367      4334.1707     -137.33396      1460.8083      1503.4989      2638.1024      0             -5739.7436      0              0             -191.29727      130323.6       50.699969      50.699969      50.699969      0.86554127     237.10752      582.33925      727.10159    
     13400   13400          305.74663      148.02933      4461.9726      4180.2674      4410.1322     -229.86479      1422.9162      1468.3231      2654.6061      0             -5775.7102      0              0             -191.05596      130488.21      50.721305      50.721305      50.721305      0.86444943     470.08745      73.99703      -99.996484    
     13500   13500          296.71022      204.68313      4425.5892      4035.7527      4279.7897     -244.03707      1437.3777      1445.0211      2647.7952      0             -5774.231       0              0             -190.90059      130594.41      50.735062      50.735062      50.735062      0.86374645     271.51947      724.03319     -381.50327    
     13600   13600          294.69665      507.45458      5004.6012      4036.3155      4250.7457     -214.43017      1427.7314      1471.2297      2646.8548      0             -5760.2461      0              0             -190.5467       130836.95      50.766452      50.766452      50.766452      0.86214522     598.89808      600.04008      323.42558    
     13700   13700          300.21031     -561.20543      3042.7626      4116.0321      4330.2755     -214.2434       1478.9013      1434.9772      2635.0785      0             -5763.2004      0              0             -190.11694      131132.71      50.804675      50.804675      50.804675      0.86020077     197.90969     -917.16782     -964.35816    
     13800   13800          300.5677       624.59513      5339.3888      4148.3564      4335.4305     -187.07408      1462.4283      1433.5388      2662.1951      0             -5745.2363      0              0             -190.67017      130752.22      50.75549       50.75549       50.75549       0.86270391     594.61149      666.8275       612.34641    
     13900   13900          303.58967     -91.472141      3930.9048      4105.1038      4379.0198     -273.91607      1401.1296      1423.1417      2653.2522      0             -5751.4395      0              0             -190.91977      130581.29      50.733363      50.733363      50.733363      0.8638332     -1351.4537      508.03925      568.99803    
     14000   14000          296.13111      595.67704      5094.8035      3964.3992      4271.4365     -307.03729      1412.4773      1426.892       2645.0345      0             -5791.4411      0              0             -191.59528      130120.9       50.673669      50.673669      50.673669      0.86688962     938.32021      744.17118      104.53972    
     14100   14100          296.88949      170.66592      4325.3179      4001.9728      4282.3755     -280.40267      1414.4892      1415.496       2649.7442      0             -5760.132       0              0             -191.90589      129910.29      50.646314      50.646314      50.646314      0.86829503    -87.737569      503.96667      95.768657    
     14200   14200          299.27195     -308.93646      3500.4713      4085.9188      4316.7405     -230.82171      1447.5973      1452.9342      2641.8009      0             -5773.1541      0              0             -191.86199      129940.02      50.650178      50.650178      50.650178      0.86809637    -746.05032      122.33448     -303.09354    
     14300   14300          299.13224      237.32915      4560.0666      4111.1024      4314.7252     -203.62281      1432.5813      1450.0481      2693.697       0             -5779.9492      0              0             -192.19724      129713.36      50.620711      50.620711      50.620711      0.86961323     28.22973       416.63177      267.12596    
     14400   14400          301.58439     -61.485357      4040.2676      4156.6626      4350.0954     -193.4328       1423.5067      1455.0197      2684.0233      0             -5755.9824      0              0             -192.06361      129803.6       50.632447      50.632447      50.632447      0.86900865    -528.39328      17.659736      326.27747    
     14500   14500          305.62647      443.42238      5078.7285      4237.0208      4408.3989     -171.37816      1483.2913      1454.5479      2665.9569      0             -5775.1743      0              0             -191.54201      130157.08      50.678366      50.678366      50.678366      0.86664862     379.33931      811.84749      139.08033    
     14600   14600          299.80437      64.050544      4352.9245      4231.1214      4324.4201     -93.298698      1528.3964      1460.526       2666.9457      0             -5749.1668      0              0             -191.19319      130394.55      50.709167      50.709167      50.709167      0.86507032     275.54409     -111.84813      28.455676    
     14700   14700          302.71109      382.75073      4819.838       4093.6875      4366.347      -272.65957      1374.68        1495.723       2621.7867      0             -5764.8493      0              0             -191.64483      130087.25      50.669301      50.669301      50.669301      0.86711382     139.067        500.00283      509.18236    
     14800   14800          298.48802     -251.00053      3567.2831      4043.2729      4305.4329     -262.15997      1427.677       1427.1426      2649.8101      0             -5766.7897      0              0             -191.72761      130031.09      50.662008      50.662008      50.662008      0.86748836    -266.48293      94.665337     -581.18399    
     14900   14900          301.48027      303.67935      4638.0059      4062.3982      4348.5936     -286.19538      1421.8517      1425.8073      2633.6997      0             -5767.554       0              0             -191.82113      129967.69      50.653773      50.653773      50.653773      0.86791151     779.39163      226.71095     -95.064532    
     15000   15000          296.87767      17.088799      4199.0593      4166.6272      4282.205      -115.57784      1470.3496      1425.3196      2737.3378      0             -5748.5847      0              0             -191.57714      130133.22      50.675268      50.675268      50.675268      0.86680756     385.46286     -72.601554     -261.5949     
     15100   15100          301.88895      104.69659      4442.1245      4242.6927      4354.4884     -111.79561      1503.5752      1426.4027      2699.1008      0             -5740.8742      0              0             -190.87365      130612.84      50.737449      50.737449      50.737449      0.86362455     686.80089      181.85697     -554.56809    
     15200   15200          305.23041     -200.54007      3822.2878      4204.0998      4402.6862     -198.58635      1439.478       1434.9867      2661.3246      0             -5734.3756      0              0             -190.9674       130548.72      50.729144      50.729144      50.729144      0.86404875    -293.23814      175.84724     -484.22931    
     15300   15300          300.02326      260.53058      4655.3016      4160.4133      4327.5775     -167.16423      1417.3516      1523.3297      2612.4978      0             -5720.3433      0              0             -191.40762      130248.47      50.690224      50.690224      50.690224      0.86604053     461.44021     -261.64691      581.79843    
     15400   15400          300.081        3.3907389      4135.8951      4129.4603      4328.4103     -198.95004      1463.1314      1406.6146      2660.7567      0             -5729.4528      0              0             -191.5891       130125.09      50.674213      50.674213      50.674213      0.86686168     444.95334      51.95783      -486.73895    
     15500   15500          296.50358     -151.95502      3702.5129      3991.4185      4276.8091     -285.39063      1385.8276      1454.9649      2616.7813      0             -5742.9644      0              0             -191.23477      130366.19      50.705491      50.705491      50.705491      0.86525849     449.54826     -241.2873      -664.12601    
     15600   15600          298.3356      -259.0533       3458.1978      3953.0461      4303.2344     -350.18834      1402.0167      1372.2508      2618.941       0             -5743.3968      0              0             -190.33771      130980.61      50.785025      50.785025      50.785025      0.86119963    -400.85932     -711.32819      335.02762    
     15700   15700          295.26181     -595.25074      2907.1777      4045.8263      4258.8977     -213.07138      1437.5057      1410.5241      2660.744       0             -5721.8452      0              0             -190.07192      131163.77      50.808686      50.808686      50.808686      0.85999705    -619.67865     -278.62398     -887.4496     
     15800   15800          298.48047     -114.84536      3899.4829      4118.7388      4305.3241     -186.58532      1429.1265      1438.047       2655.3353      0             -5709.0941      0              0             -190.4452       130906.68      50.775469      50.775469      50.775469      0.86168598    -278.51077      170.75832     -236.78364    
     15900   15900          298.64847      311.85424      4774.7131      4180.2514      4307.7474     -127.49597      1470.0443      1426.5543      2691.6564      0             -5715.751       0              0             -190.73725      130706.24      50.74954       50.74954       50.74954       0.86300741    -247.53835      324.94265      858.15841    
     16000   16000          303.36985      379.75321      4911.8642      4189.5891      4375.8491     -186.26006      1421.5764      1454.4614      2696.928       0             -5759.2258      0              0             -191.1642       130414.32      50.711731      50.711731      50.711731      0.86493916     440.26131      669.03835      29.959973    
     16100   16100          302.90343     -263.29837      3572.4373      4072.2632      4369.1214     -296.85816      1406.7842      1415.9056      2655.7294      0             -5775.2774      0              0             -191.53014      130165.15      50.679413      50.679413      50.679413      0.86659492    -465.94025     -280.23451     -43.720353    
     16200   16200          291.26657      267.7284       4515.6001      4008.7903      4201.2697     -192.47948      1413.59        1458.198       2691.3756      0             -5755.6431      0              0             -192.06894      129800.01      50.631979      50.631979      50.631979      0.86903273    -40.366597      227.83221      615.71958    
     16300   16300          297.94426     -19.202001      4036.1858      4072.4538      4297.5896     -225.13577      1402.9531      1427.6044      2713.1511      0             -5768.8444      0              0             -192.4995       129509.69      50.594202      50.594202      50.594202      0.87098083     293.29226     -433.50363      82.605366    
     16400   16400          300.14937     -152.65176      3878.1195      4166.9578      4329.3965     -162.43876      1472.771       1439.4999      2702.893       0             -5777.6027      0              0             -192.15641      129740.92      50.624296      50.624296      50.624296      0.86942849    -938.37847      504.31961     -23.896422    
     16500   16500          304.35585     -534.22648      3176.8181      4189.0068      4390.0713     -201.06453      1434.718       1448.1352      2699.3619      0             -5783.2796      0              0             -191.89853      129915.27      50.646962      50.646962      50.646962      0.86826172    -859.58278     -100.18419     -642.91248    
     16600   16600          296.40337     -387.4681       3417.3546      4150.6237      4275.3636     -124.73994      1439.0852      1488.1973      2754.9684      0             -5806.9908      0              0             -192.12344      129763.18      50.627191      50.627191      50.627191      0.86927935    -370.45576     -29.067867     -762.88068    
     16700   16700          295.1765      -407.65436      3252.4587      4023.5601      4257.6672     -234.10705      1416.5965      1436.756       2697.2704      0             -5784.7299      0              0             -192.21546      129701.06      50.619111      50.619111      50.619111      0.8696957      180.64163     -715.10287     -688.50184    
     16800   16800          291.18373     -414.01638      3217.3261      3998.1256      4200.0749     -201.94922      1426.3493      1508.293       2667.3709      0             -5803.9624      0              0             -192.79053      129314.18      50.568731      50.568731      50.568731      0.87229763    -14.925524     -929.6303      -297.49331    
     16900   16900          302.39427      429.57585      4866.2793      4057.1463      4361.7772     -304.63085      1390.8947      1424.3945      2665.5139      0             -5785.4339      0              0             -193.03128      129152.9       50.547699      50.547699      50.547699      0.87338694     551.76523      247.04493      489.91738    
     17000   17000          299.83674     -324.17277      3473.8921      4086.234       4324.8871     -238.65308      1442.8878      1413.0764      2691.4231      0             -5786.0404      0              0             -192.48208      129521.4       50.595728      50.595728      50.595728      0.87090204    -72.694346     -764.51696     -135.30699    
     17100   17100          296.67265     -148.75178      3822.8598      4104.4023      4279.2477     -174.84541      1435.5159      1448.1557      2696.0123      0             -5754.5292      0              0             -192.09936      129779.45      50.629306      50.629306      50.629306      0.86917039    -1017.0634      384.40224      186.40579    
     17200   17200          302.16558     -223.20329      3769.7639      4193.2255      4358.4786     -165.25304      1429.3755      1492.5479      2670.9597      0             -5758.1362      0              0             -191.64357      130088.11      50.669413      50.669413      50.669413      0.86710811    -247.30839      100.04512     -522.34661    
     17300   17300          305.16885     -109.22073      4081.8761      4289.4644      4401.7982     -112.33386      1486.8354      1453.7139      2690.3714      0             -5743.2545      0              0             -191.2978       130323.24      50.699922      50.699922      50.699922      0.86554364    -220.11287     -363.41443      255.8651     
     17400   17400          303.2308       273.18652      4733.8966      4213.644       4373.8435     -160.19944      1399.0246      1517.4318      2659.1465      0             -5735.8023      0              0             -190.92057      130580.74      50.733292      50.733292      50.733292      0.86383686    -43.906882      517.82723      345.63921    
     17500   17500          301.02243     -602.51466      2981.5595      4133.7996      4341.9897     -208.19005      1451.7211      1445.8328      2637.7462      0             -5743.4902      0              0             -190.122        131129.22      50.804224      50.804224      50.804224      0.86022364    -416.45565     -1046.9995     -344.08885    
     17600   17600          306.73243      120.55021      4342.4385      4111.9398      4424.3514     -312.41161      1387.4438      1418.5914      2626.1949      0             -5744.6417      0              0             -190.15481      131106.59      50.801302      50.801302      50.801302      0.86037211     1096.0001     -257.10167     -477.24776    
     17700   17700          300.05693     -27.227237      4062.0146      4113.962       4328.0632     -214.10116      1449.729       1439.1892      2631.0828      0             -5734.1022      0              0             -190.56676      130823.18      50.76467       50.76467       50.76467       0.86223598     110.86127      7.5789269     -200.12191    
     17800   17800          296.3782      -163.48311      3807.596       4118.3899      4275.0006     -156.61062      1432.0978      1450.8105      2712.0573      0             -5751.5762      0              0             -191.25292      130353.83      50.703888      50.703888      50.703888      0.86534058    -709.8778       496.15382     -276.72537    
     17900   17900          303.28715     -399.83091      3429.4731      4189.4426      4374.6562     -185.21365      1457.8604      1406.9199      2679.2305      0             -5729.2245      0              0             -191.28809      130329.86      50.70078       50.70078       50.70078       0.86549973     202.21685     -744.55978     -657.14981    
     18000   18000          305.05834     -211.29332      3838.8191      4241.1707      4400.2041     -159.03345      1416.6725      1461.244       2708.9347      0             -5745.8847      0              0             -190.93601      130570.18      50.731925      50.731925      50.731925      0.86390669    -374.96334     -253.6207      -5.2959298    
     18100   18100          300.67482     -313.57596      3627.627       4227.3192      4336.9757     -109.65648      1472.871       1474.2493      2672.1339      0             -5728.9106      0              0             -190.11751      131132.32      50.804624      50.804624      50.804624      0.86020333    -732.52434      96.6995       -304.90304    
     18200   18200          300.69778     -220.45006      3710.582       4132.9811      4337.3068     -204.32569      1410.2045      1467.5578      2635.6993      0             -5717.7874      0              0             -189.7558       131382.28      50.836885      50.836885      50.836885      0.85856673     316.95592     -606.26499     -372.04112    
     18300   18300          294.43308     -193.79286      3700.4215      4071.605       4246.944      -175.339        1436.21        1438.6225      2668.7725      0             -5718.9441      0              0             -189.82655      131333.31      50.830568      50.830568      50.830568      0.85888685    -849.14692     -397.09131      664.85965    
     18400   18400          300.09342     -102.07057      3968.0369      4163.1044      4328.5895     -165.4851       1454.9833      1439.7243      2670.239       0             -5730.4317      0              0             -190.24949      131041.35      50.792873      50.792873      50.792873      0.8608005     -228.71572     -191.76492      114.26895    
     18500   18500          298.06369     -15.8658        4233.6224      4263.8159      4299.3124     -35.496502      1538.3307      1461.0159      2689.6174      0             -5724.4605      0              0             -191.0541       130489.48      50.72147       50.72147       50.72147       0.86444102    -259.07094     -136.73395      348.20748    
     18600   18600          307.54615     -146.76862      3956.755       4235.3362      4436.0887     -200.75256      1422.2703      1438.557       2687.9569      0             -5749.5368      0              0             -191.55309      130149.56      50.677389      50.677389      50.677389      0.86669873     260.43596     -178.18553     -522.55631    
     18700   18700          300.18707      200.67176      4515.9371      4135.3855      4329.9403     -194.55475      1436.97        1470.7284      2650.2253      0             -5752.4784      0              0             -191.72578      130032.33      50.662169      50.662169      50.662169      0.86748009     721.13086      440.60456     -559.72013    
     18800   18800          295.09062     -309.40247      3497.8642      4085.4939      4256.4283     -170.93445      1439.775       1460.1267      2691.6585      0             -5762.4947      0              0             -191.43786      130227.9       50.687555      50.687555      50.687555      0.86617735    -614.12973     -30.608876     -283.46881    
     18900   18900          299.53244      303.93581      4672.0327      4094.6171      4320.4979     -225.88073      1394.8239      1471.6876      2670.3732      0             -5762.7654      0              0             -191.38201      130265.9       50.692485      50.692485      50.692485      0.86592467     258.61325      397.67795      255.51622    
     19000   19000          302.85888      35.869655      4265.561       4197.3722      4368.4788     -171.1066       1458.3078      1445.3569      2685.8016      0             -5760.5728      0              0             -191.25902      130349.66      50.703348      50.703348      50.703348      0.86536821     457.53744      187.51535     -537.44382    
     19100   19100          307.24569      18.842647      4329.6454      4293.8893      4431.7548     -137.86557      1463.6789      1405.619       2753.7748      0             -5760.9383      0              0             -191.60155      130116.64      50.673116      50.673116      50.673116      0.86691801    -115.3777      -166.31193      338.21757    
     19200   19200          302.3726       277.97685      4803.3122      4276.3491      4361.4646     -85.115528      1472.0146      1421.5725      2740.9409      0             -5719.6435      0              0             -191.79452      129985.72      50.656115      50.656115      50.656115      0.86779113    -206.32379      782.52316      257.73117    
     19300   19300          300.48992     -152.1754       3935.9136      4224.9567      4334.3086     -109.35188      1444.1421      1482.7493      2729.048       0             -5765.2913      0              0             -191.42101      130239.36      50.689042      50.689042      50.689042      0.86610112     307.29909     -494.56065     -269.26463    
     19400   19400          304.15449      374.85818      4873.3327      4160.8768      4387.1669     -226.29001      1404.9928      1453.1808      2661.8798      0             -5746.3434      0              0             -191.3008       130321.2       50.699657      50.699657      50.699657      0.86555724     405.06556      227.05737      492.4516     
     19500   19500          295.34481     -19.71343       4083.8437      4121.355       4260.0948     -138.73975      1450.4726      1440.5372      2725.1907      0             -5754.9402      0              0             -191.07648      130474.19      50.719489      50.719489      50.719489      0.86454228    -255.28717      322.5261      -126.37923    
     19600   19600          296.30069      386.68086      4868.9578      4133.0243      4273.8825     -140.85824      1468.8401      1413.5121      2737.4954      0             -5760.7058      0              0             -191.0389       130499.86      50.722815      50.722815      50.722815      0.86437226     303.53184     -54.244697      910.75543    
     19700   19700          299.07345      593.52559      5304.3888      4176.5001      4313.8772     -137.3771       1455.3765      1443.6375      2731.7291      0             -5768.1202      0              0             -191.32907      130301.94      50.69716       50.69716       50.69716       0.86568516     276.41672      651.85668      852.30338    
     19800   19800          300.91714      216.82062      4616.8276      4205.0513      4340.4709     -135.41956      1447.4444      1427.641       2744.8883      0             -5755.3932      0              0             -191.44632      130222.14      50.686808      50.686808      50.686808      0.86621566    -175.79296      962.79599     -136.54116    
     19900   19900          297.84663     -223.09519      3782.6812      4206.7422      4296.1814     -89.439182      1486.4299      1453.4944      2741.7188      0             -5771.0824      0              0             -191.28001      130335.37      50.701494      50.701494      50.701494      0.86546315    -772.04765      212.99481     -110.23274    
     20000   20000          301.75843      239.9986       4631.1333      4175.9013      4352.6057     -176.70439      1428.6844      1437.524       2711.0051      0             -5753.9178      0              0             -191.68305      130061.31      50.665933      50.665933      50.665933      0.86728677     647.91584     -107.48213      179.56209    
     20100   20100          298.38761      482.15882      4927.8297      4014.4347      4303.9846     -289.54995      1423.672       1375.7208      2682.8612      0             -5771.8039      0              0             -191.92839      129895.06      50.644335      50.644335      50.644335      0.86839683     367.91882      893.24891      185.30874    
     20200   20200          295.31738     -107.54611      3788.4224      3992.696       4259.6992     -267.00322      1424.5294      1406.1499      2678.9141      0             -5776.5967      0              0             -191.42134      130239.13      50.689012      50.689012      50.689012      0.86610264    -283.37526     -360.73093      321.46785    
     20300   20300          301.7871      -86.681755      3919.5785      4084.4264      4353.0194     -268.59297      1453.0757      1402.4926      2642.0294      0             -5766.1907      0              0             -191.18423      130400.66      50.709959      50.709959      50.709959      0.86502979     282.36166      215.68474     -758.09167    
     20400   20400          303.31561      123.78604      4391.905       4157.0133      4375.0668     -218.05349      1419.0803      1442.9745      2688.7402      0             -5768.8485      0              0             -191.60713      130112.85      50.672624      50.672624      50.672624      0.86694325     65.480551      618.69693     -312.81936    
     20500   20500          297.73543      36.171409      4236.5115      4167.9398      4294.5775     -126.63778      1469.0801      1425.9288      2739.005       0             -5760.6517      0              0             -191.79085      129988.21      50.656439      50.656439      50.656439      0.86777451    -552.53501      126.75427      534.29497    
     20600   20600          295.94958     -226.0002       3726.1696      4154.4557      4268.8182     -114.36244      1454.7915      1477.0967      2712.8236      0             -5759.0742      0              0             -191.85918      129941.91      50.650424      50.650424      50.650424      0.86808369     441.12235     -252.34655     -866.7764     
     20700   20700          295.2258      -437.75923      3222.6558      4053.6618      4258.3783     -204.71652      1457.2693      1431.8642      2675.2894      0             -5769.1394      0              0             -191.53093      130164.61      50.679343      50.679343      50.679343      0.86659847    -310.99001     -276.85699     -725.43068    
     20800   20800          294.71413     -513.48664      3018.6828      3995.8298      4250.9979     -255.16812      1414.5169      1432.2749      2653.9113      0             -5755.8712      0              0             -191.06317      130483.28      50.720667      50.720667      50.720667      0.86448205    -938.40154     -650.90379      48.845418    
[...]
    495000   495000         302.68096     -253.39435      3609.2441      4090.2089      4365.9125     -275.70355      1484.8069      1425.2972      2570.6929      0             -5756.5005      0              0             -191.55404      130148.91      50.677305      50.677305      50.677305      0.86670303    -524.09807      463.65303     -699.73801    
    495100   495100         301.97622     -161.43991      3808.3232      4115.2373      4355.7473     -240.50995      1510.1387      1391.7557      2623.3271      0             -5765.7314      0              0             -191.25013      130355.73      50.704134      50.704134      50.704134      0.86532797    -908.34478      627.24818     -203.22315    
    495200   495200         297.3509       358.19073      4800.784       4120.6038      4289.0309     -168.42716      1499.6177      1447.6429      2647.9118      0             -5763.5995      0              0             -191.46882      130206.84      50.684823      50.684823      50.684823      0.86631745    -180.44818      356.25027      898.77011    
    495300   495300         298.17467      17.821121      4099.2217      4065.4305      4300.9131     -235.48255      1516.9927      1391.5821      2633.5004      0             -5777.5578      0              0             -191.75206      130014.51      50.659854      50.659854      50.659854      0.867599       399.19539     -121.10229     -224.62974    
    495400   495400         301.7819       668.56057      5260.8101      3997.3423      4352.9444     -355.60204      1442.3802      1418.1836      2570.6125      0             -5786.7784      0              0             -192.39081      129582.85      50.603727      50.603727      50.603727      0.87048909     984.98428      610.87115      409.82628    
    495500   495500         297.96012      206.75597      4404.7451      4013.907       4297.8185     -283.91153      1498.0212      1448.4599      2562.8266      0             -5793.2191      0              0             -192.33968      129617.3       50.608211      50.608211      50.608211      0.87025773     47.213883      440.41583      132.6382     
    495600   495600         301.50185      65.449056      4231.9892      4108.0045      4348.9049     -240.90038      1500.0121      1432.1529      2588.3753      0             -5761.4406      0              0             -191.93001      129893.96      50.644193      50.644193      50.644193      0.86840413     649.41984     -173.89868     -279.174      
    495700   495700         302.31514      359.44986      4865.0317      4185.0197      4360.6359     -175.61615      1513.5056      1495.2173      2599.0643      0             -5783.4033      0              0             -192.18943      129718.63      50.621396      50.621396      50.621396      0.86957794     358.03575      804.52229     -84.208467    
    495800   495800         301.01464      195.27374      4505.2257      4135.3803      4341.8773     -206.49702      1480.5594      1446.4262      2607.1213      0             -5740.604       0              0             -191.96914      129867.48      50.640752      50.640752      50.640752      0.8685812      108.85525     -276.1216       753.08758    
    495900   495900         299.45145     -411.97642      3212.437       3995.1031      4319.3296     -324.22655      1447.218       1398.1069      2600.0981      0             -5769.6496      0              0             -191.38311      130265.15      50.692388      50.692388      50.692388      0.86592966    -21.819284     -1112.8984     -101.21157    
    496000   496000         297.00661      194.35864      4355.6119      3987.513       4284.0649     -296.55182      1451.9855      1397.8482      2655.292       0             -5801.6775      0              0             -191.97607      129862.79      50.640142      50.640142      50.640142      0.86861257    -145.23001      361.09661      367.20933    
    496100   496100         297.82107      564.20947      5113.9709      4048.7927      4295.8128     -247.02009      1495.286       1413.4848      2625.3537      0             -5781.1445      0              0             -192.5865       129451.18      50.586582      50.586582      50.586582      0.87137451     1004.5667      541.83322      146.22853    
    496200   496200         294.91975      402.49325      4883.0801      4121.9562      4253.9636     -132.00747      1525.6048      1430.3934      2691.4282      0             -5779.4339      0              0             -192.26976      129664.44      50.614345      50.614345      50.614345      0.86994136     942.66262     -259.3816       524.19875    
    496300   496300         304.82875     -43.02233       4086.6369      4168.219       4396.8926     -228.67361      1468.3421      1447.15        2647.4462      0             -5791.6119      0              0             -191.73758      130024.33      50.66113       50.66113       50.66113       0.86753346    -693.60418      970.17288     -405.63569    
    496400   496400         297.76602      155.3661       4394.4662      4098.8519      4295.0187     -196.16678      1505.805       1423.4521      2628.6379      0             -5754.0619      0              0             -191.09028      130464.77      50.718269      50.718269      50.718269      0.86460469     379.13985      444.70935     -357.75088    
    496500   496500         293.72907      290.77806      4521.7049      3968.5221      4236.7891     -268.26705      1479.1255      1396.0302      2617.756       0             -5761.1787      0              0             -191.1176       130446.12      50.715851      50.715851      50.715851      0.86472835     862.2374      -476.20691      486.30369    
    496600   496600         294.3368      -188.2382       3614.8364      3972.1307      4245.5552     -273.42452      1499.6413      1379.4215      2617.3895      0             -5769.8768      0              0             -191.55318      130149.5       50.677381      50.677381      50.677381      0.86669914    -1003.8043      526.98008     -87.890427    
    496700   496700         296.27668      431.44493      4855.2636      4040.6939      4273.5363     -232.8424       1471.2916      1427.113       2648.8531      0             -5780.1001      0              0             -192.5772       129457.43      50.587397      50.587397      50.587397      0.8713324      859.97212      800.77684     -366.41417    
    496800   496800         300.61775      486.89228      5057.0755      4141.077       4336.1525     -195.07549      1518.4816      1406.2494      2688.0108      0             -5807.8174      0              0             -193.26172      128998.9       50.5276        50.5276        50.5276        0.87442959     758.32762      122.86074      579.48849    
    496900   496900         301.75424      98.646933      4347.529       4162.1266      4352.5453     -190.41868      1529.3145      1489.1787      2618.6718      0             -5827.5836      0              0             -193.4532       128871.22      50.510924      50.510924      50.510924      0.87529596    -1089.3598      864.05527      521.24537    
    497000   497000         300.63793     -58.348923      3960.3275      4070.3958      4336.4435     -266.04768      1475.0911      1432.8921      2649.5258      0             -5823.5567      0              0             -192.74286      129346.17      50.572899      50.572899      50.572899      0.87208194     88.796036     -166.88501     -96.957792    
    497100   497100         298.43846      425.42506      4819.8521      4014.4771      4304.7181     -290.24098      1488.8482      1396.926       2628.4124      0             -5804.4277      0              0             -192.0581       129807.33      50.632931      50.632931      50.632931      0.86898372     503.80272      105.769        666.70346    
    497200   497200         297.41338     -240.31865      3582.77        4038.653       4289.9322     -251.27922      1499.9749      1429.4755      2593.5294      0             -5774.259       0              0             -191.66457      130073.86      50.667562      50.667562      50.667562      0.86720314    -495.16861     -114.1202      -111.66714    
    497300   497300         299.02527     -173.48074      3747.8399      4076.3059      4313.1823     -236.87639      1497.5039      1398.0114      2675.757       0             -5808.1487      0              0             -192.02979      129826.47      50.63542       50.63542       50.63542       0.86885559     20.889478     -201.56902     -339.76269    
    497400   497400         294.92384      142.65517      4366.3353      4097.2809      4254.0228     -156.74191      1529.6968      1450.439       2672.2487      0             -5809.1265      0              0             -192.77694      129323.3       50.569919      50.569919      50.569919      0.87223616     378.84512      41.816189      7.3042037    
    497500   497500         301.82481      106.5505       4305.8881      4105.2539      4353.5633     -248.30939      1462.0595      1467.7593      2619.812       0             -5797.9402      0              0             -193.08933      129114.07      50.542633      50.542633      50.542633      0.87364959     496.26212      167.60306     -344.21368    
    497600   497600         292.78775     -233.64749      3602.1027      4042.9379      4223.2115     -180.2735       1523.3151      1442.2493      2634.9962      0             -5780.8341      0              0             -192.70481      129371.7       50.576228      50.576228      50.576228      0.87190979     339.27446     -482.7382      -557.47872    
    497700   497700         301.03162      239.64115      4398.1065      3943.973       4342.1222     -398.14925      1436.5065      1403.5249      2564.3984      0             -5802.5791      0              0             -191.86049      129941.03      50.650309      50.650309      50.650309      0.86808959    -79.139105      1189.0336     -390.9711     
    497800   497800         298.60567      275.07155      4478.9817      3957.1072      4307.1299     -350.02268      1446.8572      1419.8316      2571.4531      0             -5788.1645      0              0             -191.64053      130090.17      50.66968       50.66968       50.66968       0.86709435     139.68105      203.4008       482.13279    
    497900   497900         300.71752      592.39254      5202.7126      4078.9948      4337.5916     -258.5968       1456.3494      1490.1933      2548.9045      0             -5754.0439      0              0             -191.67261      130068.4       50.666853      50.666853      50.666853      0.86723952     598.79149      212.74009      965.64605    
    498000   498000         299.67026      448.17999      4964.5088      4114.092       4322.4858     -208.3938       1512.2564      1440.0469      2608.9056      0             -5769.6027      0              0             -191.6145       130107.84      50.671974      50.671974      50.671974      0.8669766      177.20093      427.84943      739.4896     
    498100   498100         294.4787       454.00467      4980.2274      4118.4985      4247.602      -129.10348      1519.7286      1477.9184      2664.3074      0             -5791.058       0              0             -191.55673      130147.09      50.677068      50.677068      50.677068      0.86671519     447.51892      641.87412      272.62097    
    498200   498200         301.6269      -178.51428      3798.0743      4137.2204      4350.7086     -213.48819      1508.0807      1388.7585      2667.9986      0             -5778.326       0              0             -191.37882      130268.07      50.692767      50.692767      50.692767      0.86591024    -395.01809     -294.93274      154.408      
    498300   498300         301.2521       237.9984       4569.4833      4118.2071      4345.3024     -227.09533      1489.6299      1439.0105      2626.5375      0             -5782.2732      0              0             -191.75175      130014.71      50.659881      50.659881      50.659881      0.86759761     48.170175      311.04004      354.78497    
    498400   498400         302.23644     -571.93819      2974.6813      4058.0137      4359.5007     -301.48702      1451.0365      1398.0925      2639.186       0             -5789.8019      0              0             -191.9531       129878.34      50.642162      50.642162      50.642162      0.86850862    -11.474679     -821.94349     -882.39641    
    498500   498500         293.27891      282.7721       4534.554       4001.6931      4230.296      -228.60295      1469.0648      1445.7919      2632.6521      0             -5776.1118      0              0             -192.94361      129211.59      50.555354      50.555354      50.555354      0.87299026     311.15736      49.446654      487.71228    
    498600   498600         297.74962      537.41743      5112.1         4099.9748      4294.7821     -194.80729      1497.602       1474.2532      2610.3557      0             -5777.0182      0              0             -193.05687      129135.78      50.545465      50.545465      50.545465      0.87350271     645.47067      139.51078      827.27085    
    498700   498700         306.72961      324.20607      4767.3597      4153.948       4424.3108     -270.36284      1475.396       1441.5023      2608.4987      0             -5795.7599      0              0             -192.16613      129734.36      50.623442      50.623442      50.623442      0.86947249     564.59767      383.88979      24.130773    
    498800   498800         295.61528     -661.2036       2836.3405      4095.1221      4263.9962     -168.8741       1520.3429      1429.7735      2645.364       0             -5764.3545      0              0             -190.98206      130538.7       50.727846      50.727846      50.727846      0.86411507    -979.02123     -718.91048     -285.67908    
    498900   498900         301.6109      -54.073293      3963.323       4066.3377      4350.4778     -284.14018      1483.9941      1395.2932      2602.1699      0             -5765.5974      0              0             -190.8498       130629.16      50.739562      50.739562      50.739562      0.86351664     258.68174     -513.23225      92.330622    
    499000   499000         297.03379     -138.26882      3795.7616      4058.2292      4284.4569     -226.22771      1473.7726      1451.5841      2625.2271      0             -5776.8116      0              0             -191.53854      130159.44      50.678672      50.678672      50.678672      0.86663292     421.13154     -531.04644     -304.89156    
    499100   499100         298.49799     -137.63903      3830.3063      4090.9561      4305.5767     -214.62063      1514.7481      1411.9554      2634.0914      0             -5775.4156      0              0             -191.99595      129849.35      50.638394      50.638394      50.638394      0.86870251    -586.5219       221.07316     -47.468359    
    499200   499200         303.65655      311.58692      4729.9436      4140.6854      4379.9846     -239.29916      1506.4037      1430.5421      2618.1995      0             -5794.4444      0              0             -192.25663      129673.29      50.615498      50.615498      50.615498      0.86988196     434.94845      344.0881       155.7242     
    499300   499300         302.19967     -286.32527      3562.531       4104.7276      4358.9703     -254.24273      1494.7415      1395.5622      2605.8414      0             -5750.3879      0              0             -192.00414      129843.81      50.637675      50.637675      50.637675      0.86873955    -176.0239      -85.317343     -597.63456    
    499400   499400         297.42647      592.30343      5149.3839      4028.8769      4290.1209     -261.24403      1468.4154      1416.6367      2622.0866      0             -5768.3828      0              0             -192.19293      129716.27      50.621089      50.621089      50.621089      0.86959375     745.52801      403.73113      627.65113    
    499500   499500         291.99687     -152.59866      3706.905       3996.1019      4211.8037     -215.70179      1443.6651      1472.4078      2641.0409      0             -5772.8156      0              0             -191.85138      129947.2       50.651111      50.651111      50.651111      0.86804838     352.58564     -795.16176     -15.219868    
    499600   499600         302.61147     -442.76247      3282.3138      4122.6859      4364.9101     -242.22422      1442.8973      1451.8646      2623.4017      0             -5760.3879      0              0             -191.56092      130144.23      50.676698      50.676698      50.676698      0.86673418     18.092539     -506.92735     -839.4526     
    499700   499700         302.62298     -326.65657      3536.1229      4155.6649      4365.0762     -209.41128      1506.6092      1446.8854      2617.1122      0             -5780.0181      0              0             -191.70277      130047.93      50.664196      50.664196      50.664196      0.86737599    -1076.8776     -193.23551      290.14336    
    499800   499800         304.53883      259.36333      4601.0111      4109.9773      4392.7107     -282.73339      1449.6107      1413.229       2634.2391      0             -5779.8121      0              0             -192.04586      129815.61      50.634008      50.634008      50.634008      0.8689283      839.39384     -384.89131      323.58745    
    499900   499900         297.99628     -446.92993      3229.3831      4076.5687      4298.3401     -221.77138      1485.1078      1472.8897      2610.4278      0             -5790.1966      0              0             -191.80883      129976.02      50.654856      50.654856      50.654856      0.86785588    -609.71262      81.082595     -812.15975    
    500000   500000         297.99378     -529.31512      3031.7454      4034.9447      4298.304      -263.35932      1475.5881      1422.9126      2608.1682      0             -5770.0283      0              0             -191.83807      129956.21      50.652282      50.652282      50.652282      0.86798818    -1012.5866     -93.395341     -481.96345    
Loop time of 531.946 on 1 procs for 500000 steps with 4840 atoms

Performance: 81.211 ns/day, 0.296 hours/ns, 939.944 timesteps/s, 4.549 Matom-step/s
99.3% CPU use with 1 MPI tasks x 1 OpenMP threads

MPI task timing breakdown:
Section |  min time  |  avg time  |  max time  |%varavg| %total
---------------------------------------------------------------
Pair    | 49.324     | 49.324     | 49.324     |   0.0 |  9.27
Bond    | 376.29     | 376.29     | 376.29     |   0.0 | 70.74
Neigh   | 0.06859    | 0.06859    | 0.06859    |   0.0 |  0.01
Comm    | 36.366     | 36.366     | 36.366     |   0.0 |  6.84
Output  | 5.4024     | 5.4024     | 5.4024     |   0.0 |  1.02
Modify  | 49.281     | 49.281     | 49.281     |   0.0 |  9.26
Other   |            | 15.21      |            |       |  2.86

Nlocal:           4840 ave        4840 max        4840 min
Histogram: 1 0 0 0 0 0 0 0 0 0
Nghost:          16177 ave       16177 max       16177 min
Histogram: 1 0 0 0 0 0 0 0 0 0
Neighs:              0 ave           0 max           0 min
Histogram: 1 0 0 0 0 0 0 0 0 0

Total # of neighbors = 0
Ave neighs/atom = 0
Ave special neighs/atom = 5.9504132
Neighbor list builds = 6793
Dangerous builds = 0

# --- Cleanup ---
unfix npt_fix
undump dump_npt

# --- Write Output ---
write_dump all custom /home/arz2/PolyJarvis/data/PE2/lammps/mechanical/bm_series/bm_P100/bm_P100_last.dump id type mol x y z xu yu zu vx vy vz modify sort id
write_data /home/arz2/PolyJarvis/data/PE2/lammps/mechanical/bm_series/bm_P100/bm_P100_out.data
System init for write_data ...
Generated 1 of 1 mixed pair_coeff terms from arithmetic mixing rule

print "STAGE COMPLETE: NPT T=300.0->300.0K P=100.0->100.0atm steps=500000"
STAGE COMPLETE: NPT T=300.0->300.0K P=100.0->100.0atm steps=500000
quit
