LAMMPS data file via write_data, version 22 Jul 2025, timestep = 500000, units = real

4520 atoms
7 atom types
4510 bonds
10 bond types
8000 angles
18 angle types
9970 dihedrals
23 dihedral types
4500 impropers
11 improper types

3.865249564525598 41.76787386547663 xlo xhi
3.865249564525598 41.76787386547663 ylo yhi
3.865249564525598 41.76787386547663 zlo zhi

Masses

1 12.01115
2 12.01115
3 12.01115
4 1.00797
5 1.008
6 15.9994
7 15.9994

Pair Coeffs # lj/class2/coul/long/kk

1 0.054 4.01
2 0.054 4.01
3 0.12 3.81
4 0.02 2.995
5 0.013 1.11
6 0.267 3.3
7 0.24 3.42

Bond Coeffs # class2/kk

1 1.53 299.67 -501.77 679.81
2 1.53 299.67 -501.77 679.81
3 1.5202 253.707 -423.037 396.9
4 1.101 345 -691.89 844.6
5 1.5202 253.707 -423.037 396.9
6 1.101 345 -691.89 844.6
7 1.43 326.727 -608.531 689.033
8 1.202 851.14 -1918.49 2160.77
9 1.3683 367.148 -794.791 1055.23
10 0.952 534.299 -1287.19 1889.14

Angle Coeffs # class2/kk

1 108.53 51.9747 -9.4851 -10.9985
2 110.77 41.453 -10.604 5.129
3 108.53 51.9747 -9.4851 -10.9985
4 110.77 41.453 -10.604 5.129
5 107.41 63.3907 -13.4513 1.665
6 123.145 55.5431 -17.2123 0.1348
7 100.318 38.8631 -3.8323 -7.9802
8 110.77 41.453 -10.604 5.129
9 123.145 55.5431 -17.2123 0.1348
10 100.318 38.8631 -3.8323 -7.9802
11 113.288 61.2868 -28.9786 7.9929
12 107.734 40.6099 -28.8121 0
13 107.734 40.6099 -28.8121 0
14 109.5 60 0 0
15 112.874 53.2512 -14.9979 2.464
16 107.66 39.641 -12.921 -2.4318
17 107.688 65.4801 -10.3498 5.8866
18 120.797 95.3446 -32.2869 6.3778

BondBond Coeffs

1 5.4199 1.53 1.5202
2 3.3872 1.53 1.101
3 5.4199 1.53 1.5202
4 3.3872 1.53 1.101
5 23.2647 1.53 1.43
6 46.0685 1.5202 1.202
7 19.1069 1.5202 1.3683
8 3.3872 1.53 1.101
9 46.0685 1.5202 1.202
10 19.1069 1.5202 1.3683
11 45.4503 1.43 1.3683
12 0.7115 1.5202 1.101
13 0.7115 1.5202 1.101
14 0 1.5202 1.43
15 9.5671 1.3683 0.952
16 5.3316 1.101 1.101
17 5.6454 1.101 1.43
18 121.488 1.202 1.3683

BondAngle Coeffs

1 18.1678 15.8758 1.53 1.5202
2 20.754 11.421 1.53 1.101
3 18.1678 15.8758 1.53 1.5202
4 20.754 11.421 1.53 1.101
5 23.392 47.9487 1.53 1.43
6 34.9982 37.1298 1.5202 1.202
7 1.3435 4.6978 1.5202 1.3683
8 20.754 11.421 1.53 1.101
9 34.9982 37.1298 1.5202 1.202
10 1.3435 4.6978 1.5202 1.3683
11 41.9116 46.4608 1.43 1.3683
12 12.4632 9.1765 1.5202 1.101
13 12.4632 9.1765 1.5202 1.101
14 0 0 1.5202 1.43
15 37.9163 21.4364 1.3683 0.952
16 18.103 18.103 1.101 1.101
17 8.6864 57.4975 1.101 1.43
18 76.2614 71.8761 1.202 1.3683

Dihedral Coeffs # class2/kk

1 0.0442 0 0.0292 0 0.0562 0
2 1.8341 0 2.0603 0 -0.0195 0
3 0.0442 0 0.0292 0 0.0562 0
4 1.8341 0 2.0603 0 -0.0195 0
5 0 0 0 0 -0.1932 0
6 -2.5594 0 2.2013 0 0.0325 0
7 -2.5594 0 2.2013 0 0.0325 0
8 -2.9126 0 1.0199 0 -0.2077 0
9 0 0 2.2089 0 0 0
10 -0.0228 0 0.028 0 -0.1863 0
11 -0.0228 0 0.028 0 -0.1863 0
12 0 0 0 0 -0.1932 0
13 0 0 0 0 -0.1932 0
14 -0.1432 0 0.0617 0 -0.1083 0
15 -0.1432 0 0.0617 0 -0.1083 0
16 0 0 0 0 -0.25 0
17 -0.1804 0 0.0012 0 0.0371 0
18 -0.6359 0 1.4807 0 -0.0438 0
19 -0.1804 0 0.0012 0 0.0371 0
20 -0.6359 0 1.4807 0 -0.0438 0
21 0 0 2.2089 0 0 0
22 0 180 0 0 0 0
23 0 180 0 0 0 0

AngleAngleTorsion Coeffs

1 -8.019 108.53 123.145
2 0 108.53 100.318
3 -8.019 108.53 123.145
4 0 108.53 100.318
5 0 107.41 113.288
6 0 100.318 113.288
7 0 100.318 113.288
8 0 100.318 112.874
9 0 113.288 120.797
10 -5.3624 108.53 110.77
11 -5.3624 108.53 110.77
12 0 109.5 113.288
13 0 113.288 107.688
14 -12.564 110.77 110.77
15 -12.564 110.77 110.77
16 0 110.77 107.41
17 -15.3496 107.734 123.145
18 0 107.734 100.318
19 -15.3496 107.734 123.145
20 0 107.734 100.318
21 0 112.874 120.797
22 0 123.145 109.5
23 0 109.5 100.318

EndBondTorsion Coeffs

1 0.2654 0.0503 0.1046 -0.281 0.0816 -0.1522 1.53 1.202
2 0 0 0 0 0 0 1.53 1.3683
3 0.2654 0.0503 0.1046 -0.281 0.0816 -0.1522 1.53 1.202
4 0 0 0 0 0 0 1.53 1.3683
5 0 0 0 0 0 0 1.53 1.3683
6 0 0 0 0 0 0 1.5202 1.43
7 0 0 0 0 0 0 1.5202 1.43
8 0 0 0 0 0 0 1.5202 0.952
9 0 0 0 0 0 0 1.43 1.202
10 -0.0204 0.3628 -0.4426 -0.0097 -0.0315 -0.0755 1.5202 1.101
11 -0.0204 0.3628 -0.4426 -0.0097 -0.0315 -0.0755 1.5202 1.101
12 0 0 0 0 0 0 1.5202 1.3683
13 0 0 0 0 0 0 1.3683 1.101
14 0.213 0.312 0.0777 0.213 0.312 0.0777 1.101 1.101
15 0.213 0.312 0.0777 0.213 0.312 0.0777 1.101 1.101
16 0 0 0 0 0 0 1.101 1.43
17 1.2143 0.2831 0.3916 -0.2298 0.0354 0.3853 1.101 1.202
18 0 0 0 0 0 0 1.101 1.3683
19 1.2143 0.2831 0.3916 -0.2298 0.0354 0.3853 1.101 1.202
20 0 0 0 0 0 0 1.101 1.3683
21 0 0 0 0 0 0 0.952 1.202
22 0 0 0 0 0 0 1.202 1.43
23 0 0 0 0 0 0 1.43 1.3683

MiddleBondTorsion Coeffs

1 0.3388 -0.1096 0.1219 1.5202
2 -17.328 -5.79 -3.2114 1.5202
3 0.3388 -0.1096 0.1219 1.5202
4 -17.328 -5.79 -3.2114 1.5202
5 -5.435 0 0 1.43
6 1.3445 3.5515 -4.9202 1.3683
7 1.3445 3.5515 -4.9202 1.3683
8 2.1452 0.5482 -2.3693 1.3683
9 4.26 0 0 1.3683
10 -3.5039 1.2458 -0.761 1.53
11 -3.5039 1.2458 -0.761 1.53
12 0 0 0 1.43
13 0 0 0 1.43
14 -14.261 -0.5322 -0.4864 1.53
15 -14.261 -0.5322 -0.4864 1.53
16 0 0 0 1.53
17 0.2359 0.9139 0.9594 1.5202
18 -13.7686 -2.5959 1.1934 1.5202
19 0.2359 0.9139 0.9594 1.5202
20 -13.7686 -2.5959 1.1934 1.5202
21 4.26 0 0 1.3683
22 0 0 0 1.5202
23 0 0 0 1.5202

BondBond13 Coeffs

1 0 1.53 1.202
2 0 1.53 1.3683
3 0 1.53 1.202
4 0 1.53 1.3683
5 0 1.53 1.3683
6 0 1.5202 1.43
7 0 1.5202 1.43
8 0 1.5202 0.952
9 0 1.43 1.202
10 0 1.5202 1.101
11 0 1.5202 1.101
12 0 1.5202 1.3683
13 0 1.3683 1.101
14 0 1.101 1.101
15 0 1.101 1.101
16 0 1.101 1.43
17 0 1.101 1.202
18 0 1.101 1.3683
19 0 1.101 1.202
20 0 1.101 1.3683
21 0 0.952 1.202
22 0 1.202 1.43
23 0 1.43 1.3683

AngleTorsion Coeffs

1 0.0885 -1.3703 -0.5452 0.675 0.5965 0.6725 108.53 123.145
2 0 0 0 0 0 0 108.53 100.318
3 0.0885 -1.3703 -0.5452 0.675 0.5965 0.6725 108.53 123.145
4 0 0 0 0 0 0 108.53 100.318
5 0 0 0 0 0 0 107.41 113.288
6 0 0 0 0 0 0 100.318 113.288
7 0 0 0 0 0 0 100.318 113.288
8 0 0 0 0 0 0 100.318 112.874
9 0 0 0 0 0 0 113.288 120.797
10 -0.7466 -0.9448 -0.6321 0.0162 1.4211 -1.4092 108.53 110.77
11 -0.7466 -0.9448 -0.6321 0.0162 1.4211 -1.4092 108.53 110.77
12 0 0 0 0 0 0 109.5 113.288
13 0 0 0 0 0 0 113.288 107.688
14 -0.8085 0.5569 -0.2466 -0.8085 0.5569 -0.2466 110.77 110.77
15 -0.8085 0.5569 -0.2466 -0.8085 0.5569 -0.2466 110.77 110.77
16 0 0 0 0 0 0 110.77 107.41
17 9.1299 -0.4847 0.3582 -1.4946 0.7308 -0.2083 107.734 123.145
18 0 0 0 0 0 0 107.734 100.318
19 9.1299 -0.4847 0.3582 -1.4946 0.7308 -0.2083 107.734 123.145
20 0 0 0 0 0 0 107.734 100.318
21 0 0 0 0 0 0 112.874 120.797
22 0 0 0 0 0 0 123.145 109.5
23 0 0 0 0 0 0 109.5 100.318

Improper Coeffs # class2/kk

1 0 0
2 0 0
3 0 0
4 0 0
5 0 0
6 0 0
7 0 0
8 0 0
9 0 0
10 46.9264 0
11 46.9264 0

AngleAngle Coeffs

1 1.0827 -1.8202 2.0403 110.77 108.53 107.734
2 0.2738 -0.4825 0.2738 110.77 110.77 107.66
3 0.2738 -0.4825 0.2738 110.77 110.77 107.66
4 -3.3867 -3.4976 -3.3867 107.734 107.734 107.66
5 -0.3157 -0.3157 -0.3157 107.66 107.66 107.66
6 1.0827 -1.8202 2.0403 110.77 108.53 107.734
7 0 0 0 110.77 107.41 107.688
8 0 0 0 107.41 108.53 109.5
9 0 0 0 107.734 109.5 107.688
10 0 0 0 100.318 123.145 120.797
11 0 0 0 100.318 123.145 120.797

Atoms # full/kk

3069 7 4 0.053 6.059411976179266 4.857032003235848 7.812376233569985 0 0 1
3071 7 6 -0.531 7.426230983952602 9.150450119749355 8.01921145784614 0 0 1
3065 7 4 0.053 5.605569651515125 7.1282531596724645 7.523822149093035 0 0 1
3066 7 1 -0.159 6.926040421212122 5.50815257435305 7.56358951290881 0 0 1
3064 7 2 0.172 6.484663084254073 6.767095080720885 8.035194380350944 0 0 1
3070 7 3 0.702 7.556257247583069 8.016863589945483 7.762589185001802 0 0 1
3067 7 4 0.053 7.168450971635789 5.440342496546267 6.4581086890464885 0 0 1
1495 4 4 0.053 4.820602616587491 6.093802288967504 41.40258771457058 0 0 -1
3068 7 4 0.053 7.882367138712778 5.271861164191648 8.089200934207167 0 0 1
1494 4 1 -0.159 5.042096196202621 6.819752354924054 4.329408681862506 0 0 0
1491 4 7 -0.396 6.166994070690664 8.7677526000112 4.909450615209022 0 0 0
1496 4 4 0.053 5.350182988993557 6.1958305956738045 5.251737802266917 0 0 0
1493 4 4 0.053 7.18624783908232 7.2880604601607075 4.038691069362047 0 0 0
3078 7 4 0.053 11.813138340734895 8.305019286961931 6.078075734660844 0 0 1
1492 4 2 0.172 6.202175631900227 7.811185113438773 3.914248607062878 0 0 0
3063 7 7 -0.396 6.1490028189478485 6.691152459256751 9.478075740721296 0 0 1
3072 7 7 -0.396 8.762527812451992 7.458193456319456 7.359945988517644 0 0 1
2616 6 4 0.053 8.884506233085217 40.80159193802959 5.31491287421775 0 1 1
3074 7 4 0.053 9.632484540746615 9.334508195453532 7.073701852293349 0 0 1
3073 7 2 0.172 9.936623129332272 8.238018826961039 7.3167847512802195 0 0 1
3076 7 4 0.053 11.09814528829838 6.750349707085363 6.291625010536691 0 0 1
3899 9 4 0.053 3.9264090477090434 5.26838262479256 8.20571264422464 1 1 1
2608 6 4 0.053 10.950620926429666 41.746375489976785 9.049040946715255 0 1 1
2607 6 4 0.053 12.10756976295874 41.0406913776325 7.941637172498913 0 1 1
2605 6 1 -0.159 11.659196493212079 40.966150817026126 8.952677136528054 0 1 1
2606 6 4 0.053 12.544308208708575 41.24479792987171 9.603414716805283 0 1 1
3075 7 1 -0.159 10.797602053458522 7.767024113714234 6.167268053442599 0 0 1
3085 7 4 0.053 11.971923578333044 6.110919887699468 10.571962759755289 0 0 1
3077 7 4 0.053 10.280429794047542 7.880834528920116 5.1611032150259915 0 0 1
3080 7 6 -0.531 10.392408612297782 9.087776449344602 9.593849107192082 0 0 1
3082 7 2 0.172 12.836494929097364 7.704693133070666 9.536317229198724 0 0 1
3079 7 3 0.702 10.659473608859578 8.323928233220427 8.679488169299976 0 0 1
3083 7 4 0.053 13.185134607126034 8.725711449019764 9.461009403859013 0 0 1
3081 7 7 -0.396 11.666992115885574 7.476860464361886 8.695965134005329 0 0 1
1538 4 4 0.053 13.729290528328201 10.87367167402072 6.4131080489080095 0 0 0
3095 7 4 0.053 15.381079770001746 41.516812768394004 7.229221503370452 0 -1 1
1535 4 6 -0.531 10.911709094911568 11.157842231880768 6.202397850338776 0 0 0
3097 7 3 0.702 16.283643283473307 4.390382662474513 9.987443115330452 0 0 1
3093 7 1 -0.159 15.211428246584411 4.628236541699665 7.490054663244594 0 0 1
3090 7 7 -0.396 14.552162647062696 5.896040426317054 9.504228333083033 0 0 1
3088 7 3 0.702 14.068336879421283 7.022538467741094 8.874474171464525 0 0 1
3091 7 2 0.172 15.738598560758083 5.335213855525135 8.874361981163718 0 0 1
3096 7 4 0.053 14.14800357338033 4.877073482229894 7.375829925285719 0 0 1
3089 7 6 -0.531 14.469161369869903 7.631398143540483 7.931355711335575 0 0 1
404 1 6 -0.531 15.35636909382375 7.104806329038455 4.509982770511091 1 0 1
3092 7 4 0.053 16.45156203171122 6.101035673165968 8.690575791814592 0 0 1
3150 7 4 0.053 20.25708462921884 11.029408816697853 8.310137224394962 0 0 1
3149 7 4 0.053 20.885906299289857 11.185371013723897 10.106744272031078 0 0 1
3147 7 1 -0.159 19.99131245112616 10.887648517335364 9.51030567151381 0 0 1
386 1 6 -0.531 21.519063379508637 6.146193461278319 41.5875056169176 1 0 0
399 1 1 -0.159 17.445013369605938 9.42728544017286 6.286802158198123 1 0 1
3136 7 2 0.172 22.206124981955565 6.578643367320089 9.214829252293548 0 0 1
3148 7 4 0.053 19.239712374383508 11.638977985366846 9.848528164776408 0 0 1
401 1 4 0.053 16.424933986543262 9.852141952748703 6.6018360632981565 1 0 1
403 1 3 0.702 16.293491089622407 7.782179725920535 4.493524544901638 1 0 1
398 1 4 0.053 16.61654938106546 7.37461813434334 6.451855615991454 1 0 1
400 1 4 0.053 18.099625691722395 9.660560903623985 7.165330916041471 1 0 1
388 1 2 0.172 19.920294218231355 5.203834869069554 5.855021027993429 1 0 1
389 1 4 0.053 19.498587219741093 5.193093385963808 4.744274153527337 1 0 1
3141 7 4 0.053 23.646638204453193 6.815547073878309 7.575684567332516 0 0 1
394 1 3 0.702 19.131496969699825 6.4699267206494575 6.497422571707206 1 0 1
397 1 2 0.172 17.233504693618634 7.975925774754689 5.731248969804847 1 0 1
396 1 7 -0.396 18.54433852119788 7.281127837763297 5.603637560580185 1 0 1
395 1 6 -0.531 18.760686592932487 6.501377737643965 7.690394344456603 1 0 1
387 1 7 -0.396 21.484115514052647 5.402707371414868 5.7831261070599345 1 0 1
3137 7 4 0.053 21.814445853361036 5.808318735835476 8.590698001526526 0 0 1
402 1 4 0.053 17.881309594069275 10.073339647350355 5.433182193032729 1 0 1
385 1 3 0.702 22.08303594839073 5.720008687678818 4.620935055637439 1 0 1
382 1 4 0.053 25.187837692841686 4.560067593114063 6.115826746149839 1 0 1
380 1 4 0.053 24.07210357898312 5.565163084789308 41.66750155442214 1 0 0
3138 7 1 -0.159 23.014340203473285 7.444131325874089 8.318158369051492 0 0 1
3938 9 3 0.702 28.34157102975124 4.829765354992768 10.109854972998875 0 1 1
3939 9 6 -0.531 27.21435391876851 5.099878990849195 10.473720601298359 0 1 1
3948 9 6 -0.531 27.721749661451554 4.293159732480146 5.530787476451842 0 1 1
371 1 4 0.053 24.754563112932278 9.908777445221276 5.28506023889862 1 0 1
3139 7 4 0.053 23.545402159472616 8.181179090245852 8.926064248964849 0 0 1
376 1 3 0.702 24.215335514776942 8.051638680551033 4.477578280841695 1 0 1
373 1 4 0.053 26.878498605946696 7.78108197294614 5.960455700025092 1 0 1
370 1 2 0.172 25.332558599627138 9.062265994078723 4.949029869092199 1 0 1
374 1 4 0.053 27.015229568792613 9.5145699793414 6.4315597372581825 1 0 1
3942 9 4 0.053 27.051382025681644 5.729553489729149 7.864323106566274 0 1 1
3947 9 3 0.702 28.244269224830404 5.203115995258895 6.141081379209288 0 1 1
375 1 4 0.053 25.686683147622812 8.54451353975767 6.944274698519196 1 0 1
378 1 7 -0.396 24.27467326619604 6.898242621860449 5.309987178324579 1 0 1
372 1 1 -0.159 26.308454149692086 8.755433986817756 6.129131831328893 1 0 1
379 1 2 0.172 23.666834441248298 5.698216734425046 4.782810580045646 1 0 1
384 1 4 0.053 24.169445909835254 41.63816856658058 5.202252380318938 1 -1 1
381 1 1 -0.159 24.14324911151149 4.612128500529536 5.747915034759138 1 0 1
3941 9 2 0.172 28.141137892859607 5.621619209285809 7.778285367147954 0 1 1
3940 9 7 -0.396 28.674000246316222 4.747454336544838 8.797135996153338 0 1 1
809 2 4 0.053 30.202300198800938 9.821518086724925 9.721266459997224 0 1 -1
3838 9 4 0.053 36.12218670304058 8.929973897726356 7.691585485438908 0 1 1
3835 9 1 -0.159 36.13437337776812 10.001149404861174 7.754842312696653 0 1 1
3833 9 2 0.172 34.71888541657743 10.633897208228463 7.9804250311221185 0 1 1
350 1 6 -0.531 30.962125005521546 11.597442496809265 6.9309033229937365 1 0 1
3834 9 4 0.053 34.40841880366361 10.595098612645195 9.001833695359746 0 1 1
3945 9 4 0.053 28.54173599521372 7.404444093861923 8.928147632001457 0 1 1
3943 9 1 -0.159 28.923281382239743 7.014006032166037 7.991990677554597 0 1 1
3836 9 4 0.053 36.86197541244357 10.148642954098616 8.521573658010439 0 1 1
3946 9 4 0.053 28.615296347591485 7.791769364735781 7.130087490624413 0 1 1
359 1 6 -0.531 29.610400623495828 9.687473580903331 4.055008567123215 1 0 1
3957 9 6 -0.531 30.904577213611553 4.089261046473729 4.721901668668717 0 1 1
3949 9 7 -0.396 28.838149503634668 6.198695312870257 5.432637819546486 0 1 1
353 1 4 0.053 31.679716547849168 11.05836967136503 4.998789223660027 1 0 1
3944 9 4 0.053 29.950087014133565 6.80597682479458 7.979141223585171 0 1 1
3927 9 4 0.053 32.93243987608298 4.60650970431111 8.890694590486614 0 1 1
3837 9 4 0.053 36.67793142984505 10.313683634887049 6.857958987052272 0 1 1
3832 9 7 -0.396 33.81321809776824 9.641488899230875 7.3196245698525475 0 1 1
3830 9 3 0.702 33.94283944212036 9.69826818787271 5.969846795111443 0 1 1
3828 9 4 0.053 32.01663822598162 7.450049209901055 7.035129786682848 0 1 1
3829 9 4 0.053 31.285759265731578 8.916284329426489 6.4789478860155505 0 1 1
3824 9 2 0.172 33.126325667905206 8.472200841830919 5.336118798567653 0 1 1
3826 9 1 -0.159 31.91963970461561 8.106955632187013 6.22016498059557 0 1 1
3885 9 6 -0.531 37.285800727698394 8.243727192899886 4.403707800590876 0 1 1
1497 4 4 0.053 4.056378926455001 7.337092463116534 4.440117735216457 0 0 0
3819 9 4 0.053 35.96871515199263 6.030261784333733 6.23156490043635 0 1 1
3823 9 7 -0.396 34.007091716289956 7.352645595317902 5.234924163885269 0 1 1
3831 9 6 -0.531 34.356318132700494 10.635480596440104 5.2928474666190795 0 1 1
3886 9 7 -0.396 39.167499158402215 8.436458316029054 5.551217687970087 0 1 1
3893 9 3 0.702 39.16851939623824 6.373481962118169 6.7734827846586585 0 1 1
3878 9 2 0.172 39.39875137726363 9.295313361582945 41.23346795826379 0 1 0
3888 9 4 0.053 37.82620083075003 7.951751107951562 7.199147399030466 0 1 1
3887 9 2 0.172 38.786195058970456 7.914161357765569 6.783418603649061 0 1 1
3895 9 7 -0.396 39.13384590042491 6.039913706346587 8.045731399830084 0 1 1
3894 9 6 -0.531 39.445876893736816 5.658526619590761 5.829542671439508 0 1 1
3896 9 2 0.172 39.7136299605198 4.701162705855577 8.398169843890296 0 1 1
3817 9 1 -0.159 35.298005534771264 5.223103692276506 6.03754444694547 0 1 1
3891 9 4 0.053 40.706014141383626 8.877952367044276 7.440647378814354 0 1 1
3889 9 1 -0.159 39.6252677457525 8.809604693699063 7.625772666468532 0 1 1
3884 9 3 0.702 38.44537669508309 8.59131917247943 4.514018693273286 0 1 1
3890 9 4 0.053 39.18189153186696 9.875942298889557 7.77229782037652 0 1 1
3892 9 4 0.053 39.517765232204866 8.30546061671011 8.640311215033922 0 1 1
2869 7 4 0.053 8.654848293148195 18.04085584835498 6.835532604620468 0 0 1
2868 7 1 -0.159 8.324374307391135 17.01415472594786 6.937900364224214 0 0 1
1489 4 3 0.702 7.0699286644447845 9.854878246163263 4.981162798748361 0 0 0
1487 4 4 0.053 4.7175402096525225 12.01996660199589 6.3846694776312845 0 0 0
1486 4 4 0.053 5.676680747521619 10.649719889994266 7.144608292964037 0 0 0
1485 4 1 -0.159 5.419526256145564 11.092158517905947 6.1576346107451485 0 0 0
2873 7 6 -0.531 8.689923844845616 16.86294082983438 10.00952782655766 0 0 1
1484 4 4 0.053 7.515663284415249 11.698650713400292 5.889223840227754 0 0 0
2867 7 4 0.053 9.551450704829401 15.35771882265825 7.147937957355666 0 0 1
2874 7 7 -0.396 9.931486434582656 14.965031701257338 9.769552046696427 0 0 1
1490 4 6 -0.531 8.248687161683096 9.592326071655124 4.895749549953228 0 0 0
1488 4 4 0.053 4.682149007696998 10.464061044744946 5.661387111544024 0 0 0
2872 7 3 0.702 9.308552074934035 16.059723758457416 9.287818266545626 0 0 1
2866 7 2 0.172 9.416417983247914 16.274535769163617 7.7450293747201115 0 0 1
1483 4 2 0.172 6.661283521219858 11.317246170997937 5.283346785821641 0 0 0
2871 7 4 0.053 8.228657534702203 16.661384303022203 5.921418111954433 0 0 1
1531 4 4 0.053 12.15284827628937 14.312668084592007 41.49937872338139 0 0 -1
1481 4 6 -0.531 6.838504540735279 13.956214534235936 5.233610099291013 0 0 0
1450 4 4 0.053 5.105059657267541 16.447254863159372 9.974639598759342 0 0 0
2877 7 1 -0.159 9.027052878861246 14.125217409039829 11.790542812373303 0 0 1
2880 7 4 0.053 8.132452640402448 14.738330849618988 11.801468652427427 0 0 1
1529 4 4 0.053 9.676227449606156 12.94806222010002 5.01901473641147 0 0 0
2879 7 4 0.053 8.95180065646744 13.104287833262328 11.435680455262045 0 0 1
2863 7 3 0.702 11.924760699669335 16.33428756495827 7.557193496637367 0 0 1
1539 4 1 -0.159 13.020711264317448 11.772907534687732 8.18729600636041 0 0 0
1542 4 4 0.053 12.196421386600774 12.531990408584559 8.440158045893266 0 0 0
1541 4 4 0.053 13.834323911949557 11.65996952443731 8.888088593276622 0 0 0
1540 4 4 0.053 12.492608499977026 10.837054236822073 8.405518221849706 0 0 0
1537 4 2 0.172 13.61540395024377 11.845947091555884 6.8215024805120965 0 0 0
1543 4 3 0.702 15.055490043438212 12.584778158101445 6.665391100749519 0 0 0
1532 4 4 0.053 11.865804234528776 14.74833588686009 5.127203190390014 0 0 0
2889 7 4 0.053 11.7825915008128 10.676633674661378 10.73029400924977 0 0 1
1534 4 3 0.702 11.409683306060959 12.106408990202162 5.690629594271149 0 0 0
2864 7 6 -0.531 12.106631020353591 15.174847101402712 7.529961553358998 0 0 1
1528 4 2 0.172 10.710807997871608 12.913509838961476 4.561571594094043 0 0 0
1545 4 7 -0.396 15.29741904064036 13.339832898692485 7.824080424003669 0 0 0
1536 4 7 -0.396 12.663160070924198 12.614619638796523 5.948041880504009 0 0 0
1530 4 1 -0.159 11.353810410875386 14.332535675699486 4.353627573350824 0 0 0
1533 4 4 0.053 10.472186447079615 14.965323487193153 3.942783573762015 0 0 0
1544 4 6 -0.531 15.787183517906518 12.543736535008728 5.749215483740189 0 0 0
1553 4 6 -0.531 16.322743610201062 16.242120215941863 6.779074607561624 0 0 0
2826 7 4 0.053 18.856790654094112 17.313197657669775 8.964955742581006 0 0 1
2821 7 2 0.172 20.62579922319741 16.490846712431832 9.810748617055634 0 0 1
322 1 3 0.702 21.454785865762744 12.624516001971907 5.1327316315687685 1 0 1
2822 7 4 0.053 20.827078871264494 16.314159992876057 8.805717170235303 0 0 1
1547 4 4 0.053 16.31290466722679 14.539585667808293 8.97377780559884 0 0 0
1546 4 2 0.172 16.54963908351486 14.069078975658897 8.06324249290388 0 0 0
1552 4 3 0.702 16.97737146409544 15.304653305474988 6.992004882761804 0 0 0
1549 4 4 0.053 17.52611174175476 12.501243133889226 9.256526727789991 0 0 0
1548 4 1 -0.159 17.59117210927425 13.004800183216526 8.332485784907766 0 0 0
323 1 6 -0.531 21.146132456885258 13.754254797254397 5.319107848992354 1 0 1
1550 4 4 0.053 17.499497094139656 12.155953037857577 7.588818439074427 0 0 0
1551 4 4 0.053 18.673920818084984 13.23738202444443 8.319562014472048 0 0 0
2827 7 3 0.702 20.231417847669487 15.026140478080533 10.257765537501255 0 0 1
2828 7 6 -0.531 20.877114445662396 13.97864368484556 10.130560180231138 0 0 1
326 1 4 0.053 21.98905427325213 13.128974434138096 7.682589319299308 1 0 1
1565 4 4 0.053 22.737258364311174 16.232537755068563 5.093020945882343 0 0 0
854 2 4 0.053 24.767463955907214 9.466564951192296 12.332872506544993 0 1 -1
328 1 4 0.053 22.732126930417433 11.434555491735933 9.135164605320975 1 0 1
329 1 4 0.053 22.692593658636447 10.317883267043026 7.5650322687405405 1 0 1
330 1 4 0.053 24.180167527816252 11.027998470022817 8.163276973976688 1 0 1
2816 7 4 0.053 24.20141797678579 16.557568038846668 11.441976505972256 0 0 1
327 1 1 -0.159 23.051602595413673 11.253112182223187 8.118396359918497 1 0 1
325 1 2 0.172 22.729858955980596 12.46813178977984 7.255889505009632 1 0 1
324 1 7 -0.396 22.17919420941877 11.883867093356871 6.0813019080858295 1 0 1
336 1 1 -0.159 26.31954306192165 15.204561344010331 7.394883172943282 1 0 1
339 1 4 0.053 27.146935856788243 15.770515297232466 6.799981877387982 1 0 1
338 1 4 0.053 26.243880906379097 15.1906204560275 8.487648940633067 1 0 1
337 1 4 0.053 25.375422542321015 15.771701504999415 7.080971187812495 1 0 1
332 1 6 -0.531 23.797784909125788 14.611737798502357 6.485676083248508 1 0 1
331 1 3 0.702 23.939639009527312 13.526191048492201 6.9587395458879024 1 0 1
334 1 2 0.172 26.40857492762164 13.805996217824475 6.928357951925536 1 0 1
340 1 3 0.702 27.79340937585487 13.08349559909545 7.213123073126966 1 0 1
333 1 7 -0.396 25.228939147116062 13.025760162734844 7.312988259473708 1 0 1
335 1 4 0.053 26.440944043790484 13.729058831052932 5.898393460270221 1 0 1
341 1 6 -0.531 28.033679234551283 11.88501621988159 6.93218838521047 1 0 1
342 1 7 -0.396 28.68200740554247 13.912325605987364 7.91815186964787 1 0 1
807 2 4 0.053 31.87056477795308 9.784307902579737 10.270366619045975 0 1 -1
2009 5 1 -0.159 29.614169254388337 17.013039224499185 41.73346254337116 -1 0 0
3852 9 4 0.053 35.03544179802667 16.87978612036325 41.69189800444339 0 1 0
2011 5 4 0.053 29.61871214188134 16.019953706660793 41.26887306017694 -1 0 0
3853 9 1 -0.159 34.20662755775205 14.906811247097002 40.67530462215728 0 1 0
3855 9 4 0.053 34.668154543051834 13.98590136150614 40.266988308974895 0 1 0
351 1 7 -0.396 30.644122710828846 12.915466715279257 5.18008784071003 1 0 1
3854 9 4 0.053 33.80300410660889 15.39169079655123 39.80333167745471 0 1 0
3856 9 4 0.053 33.313382494108865 14.850861029922003 41.28919237460636 0 1 0
344 1 4 0.053 30.731839146183827 13.753805564094645 8.38566477296998 1 0 1
814 2 4 0.053 33.32517507384562 14.074640675809327 9.964616784867744 0 1 -1
343 1 2 0.172 30.14658920380703 13.944438705744474 7.468905508195091 1 0 1
346 1 4 0.053 29.973230674377024 16.069208820033474 7.226392842373143 1 0 1
352 1 2 0.172 31.068278702982937 11.742014423500365 4.323923514912656 1 0 1
347 1 4 0.053 29.3030820803015 15.17852026603359 5.856047225224344 1 0 1
349 1 3 0.702 30.63295585262033 12.671016614671043 6.511949162824925 1 0 1
345 1 1 -0.159 30.17193537666117 15.208912326800275 6.567731632665198 1 0 1
2012 5 4 0.053 30.173756632658794 16.911066928890214 4.76504481474627 -1 0 1
348 1 4 0.053 30.986394898044285 15.233554729827832 5.927602672778539 1 0 1
3840 9 6 -0.531 33.53901913546233 12.856529334071613 7.725752392942473 0 1 1
3839 9 3 0.702 34.607646809782324 12.313028354796625 7.793826207980658 0 1 1
3851 9 2 0.172 35.20375821408769 15.757824619752132 41.572119434106796 0 1 0
3850 9 7 -0.396 35.030443757391 15.327783858288829 5.102692936494626 0 1 1
3841 9 7 -0.396 35.79744297976883 12.900237015628376 7.7922911662777485 0 1 1
3846 9 4 0.053 34.27667112609122 15.407590498365751 8.104447068117215 0 1 1
3859 9 7 -0.396 36.65824547470416 15.300667499074738 39.80779157035675 0 1 0
3861 9 4 0.053 38.67274048263921 15.40203120204798 39.56437688217007 0 1 0
3857 9 3 0.702 36.7369905608492 15.802731780348957 41.049410084904785 0 1 0
1444 4 3 0.702 40.726838527603405 13.162556853893548 9.945276498542444 -1 0 0
3845 9 4 0.053 35.46955925035208 16.396602865423063 7.394472541272955 0 1 1
3844 9 1 -0.159 35.31188687678503 15.385760456517396 7.886354655733466 0 1 1
1454 4 6 -0.531 38.93138356102197 16.182365023874013 9.252850046496743 -1 0 0
1453 4 3 0.702 40.05900722073646 16.120381578295948 9.290656363426429 -1 0 0
3882 9 4 0.053 40.6922197699103 10.580098152341392 4.820259190420834 0 1 1
3883 9 4 0.053 41.33185632933666 10.491404821544844 41.07142046600141 0 1 0
1463 4 6 -0.531 41.333981776834484 14.79309325377709 5.5511135247225285 -1 0 0
1456 4 2 0.172 40.11429019978749 16.243476581992844 6.957814453503525 -1 0 0
1457 4 4 0.053 39.515717084704846 15.288736543814645 7.088930842673962 -1 0 0
1445 4 6 -0.531 39.52062913499501 13.253011493359148 9.755895455567117 -1 0 0
3873 9 4 0.053 36.39053670634415 12.051636245353704 41.38635694057643 0 1 0
3880 9 1 -0.159 40.8048058840101 9.824109489131304 3.968490045286428 0 1 1
1462 4 3 0.702 40.93180367140171 15.896138387547653 5.664425901066803 -1 0 0
3881 9 4 0.053 41.43544462868501 8.971556981204605 4.3882789634874415 0 1 1
1439 4 4 0.053 41.44033639445911 11.348010234793247 8.819361145664379 -1 0 0
3849 9 6 -0.531 36.55145156703139 13.708515346224544 4.748687361703408 0 1 1
3848 9 3 0.702 35.96721616628397 14.369162403216347 5.529849969139059 0 1 1
3842 9 2 0.172 36.05610272938626 14.204762282913219 7.160117516007774 0 1 1
3843 9 4 0.053 37.10172250215175 14.305100010694414 7.368145218719972 0 1 1
1455 4 7 -0.396 40.88142909632057 16.393022404226457 8.233287763531044 -1 0 0
2542 6 1 -0.159 9.772560599399103 21.689576471655315 8.784036501217349 0 1 1
909 3 4 0.053 5.6190811755234575 18.66696284601212 6.343014238819333 0 0 0
908 3 4 0.053 6.815701559527825 19.745964889854168 7.073538073523835 0 0 0
907 3 1 -0.159 5.634385364241478 19.44942845609158 7.081386593171351 0 0 0
2870 7 4 0.053 7.358992052504366 17.13596534916691 7.4735088279661515 0 0 1
2535 6 4 0.053 5.9113025817146685 22.587772255244644 5.588445108727116 0 1 1
910 3 4 0.053 5.004377850612666 20.216217312351908 6.628938397775951 0 0 0
1472 4 6 -0.531 6.250493841971217 16.50062577676723 4.077082417104009 0 0 0
1355 3 4 0.053 5.523313066056609 18.11432700939484 8.88609813926754 0 0 0
905 3 1 -0.106 5.057337368940038 19.009713774737847 8.476305930130072 0 0 0
906 3 4 0.053 4.030442804804852 18.80188761161009 8.177213887492561 0 0 0
2545 6 4 0.053 9.113645169613937 21.46386541558042 9.603629986986457 0 1 1
548 2 4 0.053 9.476805785342936 18.53262834099834 40.70098977478684 0 0 -1
546 2 4 0.053 9.86227199855442 18.6818172330276 4.45181245682685 0 0 0
547 2 4 0.053 9.55616338506692 20.158196286023028 41.215328584125025 0 0 -1
545 2 1 -0.159 10.04931445369268 19.203736121832556 41.36440570361082 0 0 -1
2543 6 4 0.053 9.413566851473954 21.267924847899096 7.907938536705418 0 1 1
1886 5 4 0.053 41.35855326121374 19.8999585931407 41.265785491509305 -1 0 0
2529 6 6 -0.531 8.703405104650065 22.887570371092828 5.4899213481099975 0 1 1
911 3 3 0.702 4.8496759027993415 20.137423394885282 9.419630739330534 0 0 0
913 3 7 -0.396 6.043758608826877 20.770343574148903 9.803831074630617 0 0 0
2544 6 4 0.053 10.964408065720637 21.592398030558435 8.958956697866308 0 1 1
2861 7 4 0.053 13.119561488341924 19.695981183369703 7.472033874841805 0 0 1
2862 7 4 0.053 11.918142246418594 19.482020390950787 6.310350530506225 0 0 1
2860 7 4 0.053 11.426226504722331 19.182113556053764 7.848513768344358 0 0 1
2859 7 1 -0.159 12.310189544072292 19.01897509888314 7.243754168842286 0 0 1
2857 7 2 0.172 12.918016483868177 17.564737835669646 7.443972039274714 0 0 1
2856 7 7 -0.396 13.745689692272512 17.73875027232431 8.594869775397083 0 0 1
528 2 4 0.053 15.31973911186481 21.042697692349854 7.636373295228607 0 0 0
2858 7 4 0.053 13.557703000095731 17.170853706117832 6.595114408946383 0 0 1
533 2 7 -0.396 14.914687288041915 21.917217198924426 5.103783624325323 0 0 0
531 2 3 0.702 16.1368529853074 21.64985469482152 4.721548887470408 0 0 0
2853 7 4 0.053 15.406739638396463 19.239772581515073 9.534307464181834 0 0 1
550 2 6 -0.531 12.066835339822973 17.284648747368422 4.404224668582892 0 0 0
2865 7 7 -0.396 10.698145873258042 16.969959435820456 7.370579952512571 0 0 1
536 2 1 -0.159 12.760085508410825 22.70749583036517 5.4683175388173915 0 0 0
539 2 4 0.053 12.340526394083389 22.01867727054617 6.109654395233358 0 0 0
534 2 2 0.172 13.764803727688113 22.375326937543313 4.402467918066219 0 0 0
527 2 1 -0.159 16.092942530744963 20.563231426149574 6.980572829235164 0 0 0
530 2 4 0.053 15.413665155902512 19.883040978133593 6.428861585859252 0 0 0
542 2 7 -0.396 11.906353206952524 20.638643370729216 41.558113411518335 0 0 -1
2819 7 6 -0.531 21.03133345010859 17.88028891225555 12.352568183418217 0 0 1
529 2 4 0.053 16.70341215480145 19.922031899663352 7.677628612764159 0 0 0