units real
atom_style full
boundary p p p

# --- Force Field Styles ---
pair_style lj/class2/coul/long 9.5 9.5
kspace_style pppm 1e-6
dielectric 1.000000
bond_style class2
angle_style class2
dihedral_style class2
improper_style class2
special_bonds lj/coul 0 0 1
pair_modify mix sixthpower tail yes
neighbor 2.0 bin
neigh_modify delay 0 every 1 check yes
neigh_modify one 4000

read_data /home/arz2/PolyJarvis/data/PSU1/lammps/npt_production/npt_production_out.data
Reading data file ...
  orthogonal box = (4.5891084 4.5891084 4.5891084) to (52.867803 52.867803 52.867803)
  1 by 1 by 1 MPI processor grid
  reading atoms ...
  8656 atoms
  reading velocities ...
  8656 velocities
  scanning bonds ...
  4 = max bonds/atom
  scanning angles ...
  16 = max angles/atom
  scanning dihedrals ...
  38 = max dihedrals/atom
  scanning impropers ...
  12 = max impropers/atom
  orthogonal box = (4.5891084 4.5891084 4.5891084) to (52.867803 52.867803 52.867803)
  1 by 1 by 1 MPI processor grid
  reading bonds ...
  9288 bonds
  reading angles ...
  15680 angles
  reading dihedrals ...
  23344 dihedrals
  reading impropers ...
  6400 impropers
Finding 1-2 1-3 1-4 neighbors ...
  special bond factors lj:    0        0        1       
  special bond factors coul:  0        0        1       
     4 = max # of 1-2 neighbors
    10 = max # of 1-3 neighbors
    14 = max # of special neighbors
  special bonds CPU = 0.005 seconds
  read_data CPU = 0.366 seconds
include /home/arz2/PolyJarvis/data/PSU1/lammps/cell/emc_build.params
# LAMMPS parameters created by EMC v9.4.4, build Jul 31 2025 20:33:44

# Variables

variable	seed		index	-1
variable	ntotal		index	8656
variable	fshape		index	1
variable	output		index	emc_build
variable	field		index	pcff/pcff
variable	location1	index	/home/arz2/emc/field/
variable	nav		index	0.6022141179
variable	temperature	index	300
variable	radius		index	5
variable	nrelax		index	100
variable	weight_nonbond	index	0.0001
variable	weight_bond	index	0.0001
variable	weight_focus	index	1
variable	cutoff		index	9.5
variable	charge_cutoff	index	9.5
variable	kappa		index	4
variable	density1	index	0.62
variable	lprevious	index	0
variable	lphase		index	57.4569112838
variable	f_poly		index	8
variable	chem_repeat	index	*Oc1ccc(C(C)(C)c2ccc(Oc3ccc(S(=O)(=O)c4ccc(*)cc4)cc3)cc2)cc1
variable	chem_cap	index	*[H]
variable	lg_repeat	index	54
variable	lg_cap		index	1
variable	norm_poly	index	100
variable	l_poly		index	1082
variable	mg_repeat	index	414.52744
variable	mg_cap		index	0
variable	m_poly		index	8290.5488
variable	n_poly		index	8
variable	mtotal		index	70822.20592
variable	nphase1		index	8656
variable	mphase1		index	70822.20592
variable	vphase1		index	189682.308986
variable	lbox		index	57.4569112838
variable	lphase1		index	57.4569112838
variable	lxx		index	57.4569112838
variable	lyy		index	57.4569112838
variable	lzz		index	57.4569112838
variable	lzy		index	0
variable	lzx		index	0
variable	lyx		index	0
variable	vtotal		index	189682.308986
variable	nl_poly		index	8

# Types

variable	type_c		index	1
variable	type_cp		index	2
variable	type_hc		index	3
variable	type_ho		index	4
variable	type_oe		index	5
variable	type_oc		index	6
variable	type_oh		index	7
variable	type_sf		index	8

variable	type_bond_c_c	index	1
variable	type_bond_c_cp	index	2
variable	type_bond_c_hc	index	3
variable	type_bond_cp_cp	index	4
variable	type_bond_cp_hc	index	5
variable	type_bond_cp_oc	index	6
variable	type_bond_cp_oh	index	7
variable	type_bond_cp_sf	index	8
variable	type_bond_ho_oh	index	9
variable	type_bond_oe_sf	index	10

variable	type_angle_c_c_c index	1
variable	type_angle_c_c_cp index	2
variable	type_angle_c_c_hc index	3
variable	type_angle_c_cp_cp index	4
variable	type_angle_cp_c_cp index	5
variable	type_angle_cp_cp_cp index	6
variable	type_angle_cp_cp_hc index	7
variable	type_angle_cp_cp_oc index	8
variable	type_angle_cp_cp_oh index	9
variable	type_angle_cp_cp_sf index	10
variable	type_angle_cp_oc_cp index	11
variable	type_angle_cp_oh_ho index	12
variable	type_angle_cp_sf_cp index	13
variable	type_angle_cp_sf_oe index	14
variable	type_angle_hc_c_hc index	15
variable	type_angle_oe_sf_oe index	16

# Clusters

variable	n0_poly		index	1
variable	n1_poly		index	8
variable	nl_poly		index	8

# Flags

variable	flag_charged	index	1

# Masses

mass		1    12.01115  # c
mass		2    12.01115  # cp
mass		3     1.00797  # hc
mass		4     1.00797  # ho
mass		5    15.99940  # o=
mass		6    15.99940  # oc
mass		7    15.99940  # oh
mass		8    32.06400  # sf

# Potentials

pair_modify	mix sixthpower tail yes
special_bonds	lj/coul 0 0 1

# Pair Coeffs

pair_coeff	 1  1    0.05400    4.01000  # c,c
pair_coeff	 2  2    0.06400    4.01000  # cp,cp
pair_coeff	 3  3    0.02000    2.99500  # hc,hc
pair_coeff	 4  4    0.01300    1.09800  # ho,ho
pair_coeff	 5  5    0.06000    3.53500  # o=,o=
pair_coeff	 6  6    0.24000    3.53500  # oc,oc
pair_coeff	 7  7    0.24000    3.53500  # oh,oh
pair_coeff	 8  8    0.25000    4.02700  # sf,sf

# Bond Coeffs

bond_coeff	 1    1.53000  299.67000 -501.77000  679.81000  # c,c
bond_coeff	 2    1.50100  321.90210 -521.82080  572.16280  # c,cp
bond_coeff	 3    1.10100  345.00000 -691.89000  844.60000  # c,hc
bond_coeff	 4    1.41700  470.83610 -627.61790 1327.63450  # cp,cp
bond_coeff	 5    1.09820  372.82510 -803.45260  894.31730  # cp,hc
bond_coeff	 6    1.37680  428.87980 -738.23510 1114.96550  # cp,oc
bond_coeff	 7    1.37680  428.87980 -738.23510 1114.96550  # cp,oh
bond_coeff	 8    1.72000  239.80240    0.00000    0.00000  # cp,sf
bond_coeff	 9    0.96500  532.50620 -1282.90500 2004.76580  # ho,oh
bond_coeff	10    1.43080  743.76000    0.00000    0.00000  # o=,sf

# Angle Coeffs

angle_coeff	 1  112.67000   39.51600   -7.44300   -9.55830  # c,c,c
angle_coeff	 2  108.40000   43.95940   -8.39240   -9.33790  # c,c,cp
angle_coeff	 3  110.77000   41.45300  -10.60400    5.12900  # c,c,hc
angle_coeff	 4  120.05000   44.71480  -22.73520    0.00000  # c,cp,cp
angle_coeff	 5  111.00000   44.32340   -9.44540    0.00000  # cp,c,cp
angle_coeff	 6  118.90000   61.02260  -34.99310    0.00000  # cp,cp,cp
angle_coeff	 7  117.94000   35.15580  -12.46820    0.00000  # cp,cp,hc
angle_coeff	 8  123.42000   73.67810  -21.67870    0.00000  # cp,cp,oc
angle_coeff	 9  123.42000   73.67810  -21.67870    0.00000  # cp,cp,oh
angle_coeff	10  120.00000   60.00000    0.00000    0.00000  # cp,cp,sf
angle_coeff	11  109.50000   60.00000    0.00000    0.00000  # cp,oc,cp
angle_coeff	12  108.19000   53.12500   -8.50160    0.00000  # cp,oh,ho
angle_coeff	13  102.00000   58.00000    0.00000    0.00000  # cp,sf,cp
angle_coeff	14  113.10000   42.30000    0.00000    0.00000  # cp,sf,o=
angle_coeff	15  107.66000   39.64100  -12.92100   -2.43180  # hc,c,hc
angle_coeff	16  119.32900  135.00000    0.00000    0.00000  # o=,sf,o=

# BondBond Coeffs

angle_coeff	 1 bb    0.00000    1.53000    1.53000  # c,c,c
angle_coeff	 2 bb    0.00000    1.53000    1.50100  # c,c,cp
angle_coeff	 3 bb    3.38720    1.53000    1.10100  # c,c,hc
angle_coeff	 4 bb   12.06760    1.50100    1.41700  # c,cp,cp
angle_coeff	 5 bb    0.00000    1.50100    1.50100  # cp,c,cp
angle_coeff	 6 bb   68.28560    1.41700    1.41700  # cp,cp,cp
angle_coeff	 7 bb    1.07950    1.41700    1.09820  # cp,cp,hc
angle_coeff	 8 bb   48.47540    1.41700    1.37680  # cp,cp,oc
angle_coeff	 9 bb   48.47540    1.41700    1.37680  # cp,cp,oh
angle_coeff	10 bb    0.00000    1.41700    1.72000  # cp,cp,sf
angle_coeff	11 bb    0.00000    1.37680    1.37680  # cp,oc,cp
angle_coeff	12 bb   20.65770    1.37680    0.96500  # cp,oh,ho
angle_coeff	13 bb    0.00000    1.72000    1.72000  # cp,sf,cp
angle_coeff	14 bb    0.00000    1.72000    1.43080  # cp,sf,o=
angle_coeff	15 bb    5.33160    1.10100    1.10100  # hc,c,hc
angle_coeff	16 bb   40.00000    1.43080    1.43080  # o=,sf,o=

# BondAngle Coeffs

angle_coeff	 1 ba    8.01600    8.01600    1.53000    1.53000  # c,c,c
angle_coeff	 2 ba    0.00000    0.00000    1.53000    1.50100  # c,c,cp
angle_coeff	 3 ba   20.75400   11.42100    1.53000    1.10100  # c,c,hc
angle_coeff	 4 ba   47.05790   31.07710    1.50100    1.41700  # c,cp,cp
angle_coeff	 5 ba    0.00000    0.00000    1.50100    1.50100  # cp,c,cp
angle_coeff	 6 ba   28.87080   28.87080    1.41700    1.41700  # cp,cp,cp
angle_coeff	 7 ba   20.00330   24.21830    1.41700    1.09820  # cp,cp,hc
angle_coeff	 8 ba   58.47900  107.68060    1.41700    1.37680  # cp,cp,oc
angle_coeff	 9 ba   58.47900  107.68060    1.41700    1.37680  # cp,cp,oh
angle_coeff	10 ba    0.00000    0.00000    1.41700    1.72000  # cp,cp,sf
angle_coeff	11 ba    0.00000    0.00000    1.37680    1.37680  # cp,oc,cp
angle_coeff	12 ba   53.86140   23.92240    1.37680    0.96500  # cp,oh,ho
angle_coeff	13 ba    0.00000    0.00000    1.72000    1.72000  # cp,sf,cp
angle_coeff	14 ba    0.00000    0.00000    1.72000    1.43080  # cp,sf,o=
angle_coeff	15 ba   18.10300   18.10300    1.10100    1.10100  # hc,c,hc
angle_coeff	16 ba    0.00000    0.00000    1.43080    1.43080  # o=,sf,o=

# Dihedral Coeffs

dihedral_coeff	 1    0.00000    0.00000    0.03160    0.00000   -0.16810    0.00000  # c,c,c,hc
dihedral_coeff	 2   -0.28020    0.00000   -0.06780    0.00000   -0.01220    0.00000  # c,c,cp,cp
dihedral_coeff	 3    0.00000    0.00000    4.40720    0.00000    0.00000    0.00000  # c,cp,cp,cp
dihedral_coeff	 4    0.00000    0.00000    1.55900    0.00000    0.00000    0.00000  # c,cp,cp,hc
dihedral_coeff	 5   -0.02280    0.00000    0.02800    0.00000   -0.18630    0.00000  # cp,c,c,hc
dihedral_coeff	 6   -0.28020    0.00000   -0.06780    0.00000   -0.01220    0.00000  # cp,c,cp,cp
dihedral_coeff	 7    8.36670    0.00000    1.19320    0.00000    0.00000    0.00000  # cp,cp,cp,cp
dihedral_coeff	 8    0.00000    0.00000    3.96610    0.00000    0.00000    0.00000  # cp,cp,cp,hc
dihedral_coeff	 9    0.00000    0.00000    4.84980    0.00000    0.00000    0.00000  # cp,cp,cp,oc
dihedral_coeff	10    0.00000    0.00000    4.84980    0.00000    0.00000    0.00000  # cp,cp,cp,oh
dihedral_coeff	11    0.00000    0.00000    3.00000    0.00000    0.00000    0.00000  # cp,cp,cp,sf
dihedral_coeff	12    0.00000    0.00000    1.80000    0.00000    0.00000    0.00000  # cp,cp,oc,cp
dihedral_coeff	13   -0.69000    0.00000    0.50970    0.00000    0.00950    0.00000  # cp,cp,oh,ho
dihedral_coeff	14    0.00000    0.00000    1.50000    0.00000    0.00000    0.00000  # cp,cp,sf,cp
dihedral_coeff	15    0.00000    0.00000    1.50000    0.00000    0.00000    0.00000  # cp,cp,sf,o=
dihedral_coeff	16    0.00000    0.00000    1.87690    0.00000    0.00000    0.00000  # hc,cp,cp,hc
dihedral_coeff	17    0.00000    0.00000    1.72340    0.00000    0.00000    0.00000  # hc,cp,cp,oc
dihedral_coeff	18    0.00000    0.00000    1.72340    0.00000    0.00000    0.00000  # hc,cp,cp,oh
dihedral_coeff	19    0.00000    0.00000    3.00000    0.00000    0.00000    0.00000  # hc,cp,cp,sf

# MiddleBondTorsion Coeffs

dihedral_coeff	 1 mbt  -14.87900   -3.65810   -0.31380    1.53000  # c,c,c,hc
dihedral_coeff	 2 mbt    0.00000    0.00000    0.00000    1.50100  # c,c,cp,cp
dihedral_coeff	 3 mbt    0.00000    9.17920    0.00000    1.41700  # c,cp,cp,cp
dihedral_coeff	 4 mbt    0.00000    3.94210    0.00000    1.41700  # c,cp,cp,hc
dihedral_coeff	 5 mbt    0.00000    0.00000    0.00000    1.53000  # cp,c,c,hc
dihedral_coeff	 6 mbt    0.00000    0.00000    0.00000    1.50100  # cp,c,cp,cp
dihedral_coeff	 7 mbt   27.59890   -2.31200    0.00000    1.41700  # cp,cp,cp,cp
dihedral_coeff	 8 mbt    0.00000   -1.15210    0.00000    1.41700  # cp,cp,cp,hc
dihedral_coeff	 9 mbt    0.00000    4.82550    0.00000    1.41700  # cp,cp,cp,oc
dihedral_coeff	10 mbt    0.00000    4.82550    0.00000    1.41700  # cp,cp,cp,oh
dihedral_coeff	11 mbt    0.00000    0.00000    0.00000    1.41700  # cp,cp,cp,sf
dihedral_coeff	12 mbt    0.00000    0.00000    0.00000    1.37680  # cp,cp,oc,cp
dihedral_coeff	13 mbt    1.15800    3.26970    3.51320    1.37680  # cp,cp,oh,ho
dihedral_coeff	14 mbt    0.00000    0.00000    0.00000    1.72000  # cp,cp,sf,cp
dihedral_coeff	15 mbt    0.00000    0.00000    0.00000    1.72000  # cp,cp,sf,o=
dihedral_coeff	16 mbt    0.00000    4.82280    0.00000    1.41700  # hc,cp,cp,hc
dihedral_coeff	17 mbt    0.00000    5.54320    0.00000    1.41700  # hc,cp,cp,oc
dihedral_coeff	18 mbt    0.00000    5.54320    0.00000    1.41700  # hc,cp,cp,oh
dihedral_coeff	19 mbt    0.00000    0.00000    0.00000    1.41700  # hc,cp,cp,sf

# EndBondTorsion Coeffs

dihedral_coeff	 1 ebt    0.24860    0.24220   -0.09250    0.08140    0.05910    0.22190    1.53000    1.10100  # c,c,c,hc
dihedral_coeff	 2 ebt    0.00000    0.00000    0.00000    0.00000    0.00000    0.00000    1.53000    1.41700  # c,c,cp,cp
dihedral_coeff	 3 ebt    0.00000    0.24210    0.00000    0.00000   -0.69180    0.00000    1.50100    1.41700  # c,cp,cp,cp
dihedral_coeff	 4 ebt    0.00000   -1.79700    0.00000    0.00000   -0.48790    0.00000    1.50100    1.09820  # c,cp,cp,hc
dihedral_coeff	 5 ebt    0.00000    0.00000    0.00000    0.00000    0.00000    0.00000    1.50100    1.10100  # cp,c,c,hc
dihedral_coeff	 6 ebt    0.00000    0.00000    0.00000    0.00000    0.00000    0.00000    1.50100    1.41700  # cp,c,cp,cp
dihedral_coeff	 7 ebt   -0.11850    6.32040    0.00000   -0.11850    6.32040    0.00000    1.41700    1.41700  # cp,cp,cp,cp
dihedral_coeff	 8 ebt    0.00000   -6.89580    0.00000    0.00000   -0.46690    0.00000    1.41700    1.09820  # cp,cp,cp,hc
dihedral_coeff	 9 ebt    0.00000    0.26550    0.00000    0.00000    4.89050    0.00000    1.41700    1.37680  # cp,cp,cp,oc
dihedral_coeff	10 ebt    0.00000    0.26550    0.00000    0.00000    4.89050    0.00000    1.41700    1.37680  # cp,cp,cp,oh
dihedral_coeff	11 ebt    0.00000    0.00000    0.00000    0.00000    0.00000    0.00000    1.41700    1.72000  # cp,cp,cp,sf
dihedral_coeff	12 ebt    0.00000    0.00000    0.00000    0.00000    0.00000    0.00000    1.41700    1.37680  # cp,cp,oc,cp
dihedral_coeff	13 ebt    0.90000   -1.34560    1.19000    3.41320    0.58730   -0.13230    1.41700    0.96500  # cp,cp,oh,ho
dihedral_coeff	14 ebt    0.00000    0.00000    0.00000    0.00000    0.00000    0.00000    1.41700    1.72000  # cp,cp,sf,cp
dihedral_coeff	15 ebt    0.00000    0.00000    0.00000    0.00000    0.00000    0.00000    1.41700    1.43080  # cp,cp,sf,o=
dihedral_coeff	16 ebt    0.00000   -0.68900    0.00000    0.00000   -0.68900    0.00000    1.09820    1.09820  # hc,cp,cp,hc
dihedral_coeff	17 ebt    0.00000   -1.58670    0.00000    0.00000    4.26410    0.00000    1.09820    1.37680  # hc,cp,cp,oc
dihedral_coeff	18 ebt    0.00000   -1.58670    0.00000    0.00000    4.26410    0.00000    1.09820    1.37680  # hc,cp,cp,oh
dihedral_coeff	19 ebt    0.00000    0.00000    0.00000    0.00000    0.00000    0.00000    1.09820    1.72000  # hc,cp,cp,sf

# AngleTorsion Coeffs

dihedral_coeff	 1 at   -0.24540    0.00000   -0.11360    0.31130    0.45160   -0.19880  112.67000  110.77000  # c,c,c,hc
dihedral_coeff	 2 at    0.00000    0.00000    0.00000    0.00000    0.00000    0.00000  108.40000  120.05000  # c,c,cp,cp
dihedral_coeff	 3 at    0.00000   -4.46830    0.00000    0.00000    3.89870    0.00000  120.05000  118.90000  # c,cp,cp,cp
dihedral_coeff	 4 at    0.00000   -0.12420    0.00000    0.00000    3.46010    0.00000  120.05000  117.94000  # c,cp,cp,hc
dihedral_coeff	 5 at    0.00000    0.00000    0.00000    0.00000    0.00000    0.00000  108.40000  110.77000  # cp,c,c,hc
dihedral_coeff	 6 at    0.00000    0.00000    0.00000    0.00000    0.00000    0.00000  111.00000  120.05000  # cp,c,cp,cp
dihedral_coeff	 7 at    1.97670    1.02390    0.00000    1.97670    1.02390    0.00000  118.90000  118.90000  # cp,cp,cp,cp
dihedral_coeff	 8 at    0.00000    2.50140    0.00000    0.00000    2.71470    0.00000  118.90000  117.94000  # cp,cp,cp,hc
dihedral_coeff	 9 at    0.00000   10.01550    0.00000    0.00000    1.74040    0.00000  118.90000  123.42000  # cp,cp,cp,oc
dihedral_coeff	10 at    0.00000   10.01550    0.00000    0.00000    1.74040    0.00000  118.90000  123.42000  # cp,cp,cp,oh
dihedral_coeff	11 at    0.00000    0.00000    0.00000    0.00000    0.00000    0.00000  118.90000  120.00000  # cp,cp,cp,sf
dihedral_coeff	12 at    0.00000    0.00000    0.00000    0.00000    0.00000    0.00000  123.42000  109.50000  # cp,cp,oc,cp
dihedral_coeff	13 at   -5.13600   -1.01220    0.00000    4.68520    0.02300   -0.59800  123.42000  108.19000  # cp,cp,oh,ho
dihedral_coeff	14 at    0.00000    0.00000    0.00000    0.00000    0.00000    0.00000  120.00000  102.00000  # cp,cp,sf,cp
dihedral_coeff	15 at    0.00000    0.00000    0.00000    0.00000    0.00000    0.00000  120.00000  113.10000  # cp,cp,sf,o=
dihedral_coeff	16 at    0.00000    2.45010    0.00000    0.00000    2.45010    0.00000  117.94000  117.94000  # hc,cp,cp,hc
dihedral_coeff	17 at    0.00000    1.87290    0.00000    0.00000    2.57060    0.00000  117.94000  123.42000  # hc,cp,cp,oc
dihedral_coeff	18 at    0.00000    1.87290    0.00000    0.00000    2.57060    0.00000  117.94000  123.42000  # hc,cp,cp,oh
dihedral_coeff	19 at    0.00000    0.00000    0.00000    0.00000    0.00000    0.00000  117.94000  120.00000  # hc,cp,cp,sf

# AngleAngleTorsion Coeffs

dihedral_coeff	 1 aat  -16.16400  112.67000  110.77000  # c,c,c,hc
dihedral_coeff	 2 aat    0.00000  108.40000  120.05000  # c,c,cp,cp
dihedral_coeff	 3 aat  -14.40970  120.05000  118.90000  # c,cp,cp,cp
dihedral_coeff	 4 aat    4.44440  120.05000  117.94000  # c,cp,cp,hc
dihedral_coeff	 5 aat    0.00000  108.40000  110.77000  # cp,c,c,hc
dihedral_coeff	 6 aat    0.00000  111.00000  120.05000  # cp,c,cp,cp
dihedral_coeff	 7 aat    0.00000  118.90000  118.90000  # cp,cp,cp,cp
dihedral_coeff	 8 aat   -4.81410  118.90000  117.94000  # cp,cp,cp,hc
dihedral_coeff	 9 aat  -21.02470  118.90000  123.42000  # cp,cp,cp,oc
dihedral_coeff	10 aat  -21.02470  118.90000  123.42000  # cp,cp,cp,oh
dihedral_coeff	11 aat    0.00000  118.90000  120.00000  # cp,cp,cp,sf
dihedral_coeff	12 aat    0.00000  123.42000  109.50000  # cp,cp,oc,cp
dihedral_coeff	13 aat   -4.60720  123.42000  108.19000  # cp,cp,oh,ho
dihedral_coeff	14 aat    0.00000  120.00000  102.00000  # cp,cp,sf,cp
dihedral_coeff	15 aat    0.00000  120.00000  113.10000  # cp,cp,sf,o=
dihedral_coeff	16 aat    0.35980  117.94000  117.94000  # hc,cp,cp,hc
dihedral_coeff	17 aat    4.22960  117.94000  123.42000  # hc,cp,cp,oc
dihedral_coeff	18 aat    4.22960  117.94000  123.42000  # hc,cp,cp,oh
dihedral_coeff	19 aat    0.00000  117.94000  120.00000  # hc,cp,cp,sf

# BondBond13 Coeffs

dihedral_coeff	 1 bb13    0.00000    1.53000    1.10100  # c,c,c,hc
dihedral_coeff	 2 bb13    0.00000    1.53000    1.41700  # c,c,cp,cp
dihedral_coeff	 3 bb13    2.50850    1.50100    1.41700  # c,cp,cp,cp
dihedral_coeff	 4 bb13    0.87430    1.50100    1.09820  # c,cp,cp,hc
dihedral_coeff	 5 bb13    0.00000    1.50100    1.10100  # cp,c,c,hc
dihedral_coeff	 6 bb13    0.00000    1.50100    1.41700  # cp,c,cp,cp
dihedral_coeff	 7 bb13   53.00000    1.41700    1.41700  # cp,cp,cp,cp
dihedral_coeff	 8 bb13   -6.27410    1.41700    1.09820  # cp,cp,cp,hc
dihedral_coeff	 9 bb13   -2.24360    1.41700    1.37680  # cp,cp,cp,oc
dihedral_coeff	10 bb13   -2.24360    1.41700    1.37680  # cp,cp,cp,oh
dihedral_coeff	11 bb13    0.00000    1.41700    1.72000  # cp,cp,cp,sf
dihedral_coeff	12 bb13    0.00000    1.41700    1.37680  # cp,cp,oc,cp
dihedral_coeff	13 bb13    1.15900    1.41700    0.96500  # cp,cp,oh,ho
dihedral_coeff	14 bb13    0.00000    1.41700    1.72000  # cp,cp,sf,cp
dihedral_coeff	15 bb13    0.00000    1.41700    1.43080  # cp,cp,sf,o=
dihedral_coeff	16 bb13   -1.70770    1.09820    1.09820  # hc,cp,cp,hc
dihedral_coeff	17 bb13    2.05170    1.09820    1.37680  # hc,cp,cp,oc
dihedral_coeff	18 bb13    2.05170    1.09820    1.37680  # hc,cp,cp,oh
dihedral_coeff	19 bb13    0.00000    1.09820    1.72000  # hc,cp,cp,sf

# Improper Coeffs

improper_coeff	 1    0.00000    0.00000  # c,c,c,cp
improper_coeff	 2    0.00000    0.00000  # c,c,cp,cp
improper_coeff	 3    0.00000    0.00000  # c,c,hc,hc
improper_coeff	 4    0.00000    0.00000  # c,hc,hc,hc
improper_coeff	 5    7.81530    0.00000  # cp,c,cp,cp
improper_coeff	 6    4.89120    0.00000  # cp,cp,cp,hc
improper_coeff	 7   13.04210    0.00000  # cp,cp,cp,oc
improper_coeff	 8   13.04210    0.00000  # cp,cp,cp,oh
improper_coeff	 9    0.00000    0.00000  # cp,cp,cp,sf
improper_coeff	10    0.00000    0.00000  # sf,cp,cp,o=
improper_coeff	11    0.00000    0.00000  # sf,cp,o=,o=

# AngleAngle Coeffs

improper_coeff	 1 aa    0.00000    0.00000    0.00000  112.67000  108.40000  108.40000  # c,c,c,cp
improper_coeff	 2 aa    0.00000    0.00000    0.00000  108.40000  108.40000  111.00000  # c,c,cp,cp
improper_coeff	 3 aa    0.27380   -0.48250    0.27380  110.77000  110.77000  107.66000  # c,c,hc,hc
improper_coeff	 4 aa   -0.31570   -0.31570   -0.31570  107.66000  107.66000  107.66000  # c,hc,hc,hc
improper_coeff	 5 aa    0.00000    0.00000    0.00000  120.05000  120.05000  118.90000  # cp,c,cp,cp
improper_coeff	 6 aa    0.00000    0.00000    0.00000  118.90000  117.94000  117.94000  # cp,cp,cp,hc
improper_coeff	 7 aa    0.00000    0.00000    0.00000  118.90000  123.42000  123.42000  # cp,cp,cp,oc
improper_coeff	 8 aa    0.00000    0.00000    0.00000  118.90000  123.42000  123.42000  # cp,cp,cp,oh
improper_coeff	 9 aa    0.00000    0.00000    0.00000  118.90000  120.00000  120.00000  # cp,cp,cp,sf
improper_coeff	10 aa    0.00000    0.00000    0.00000  102.00000  113.10000  113.10000  # sf,cp,cp,o=
improper_coeff	11 aa    0.00000    0.00000    0.00000  113.10000  113.10000  119.32900  # sf,cp,o=,o=


# --- Thermo Output ---
thermo_style custom step time temp press enthalpy etotal ke pe ebond eangle edihed eimp evdwl ecoul elong etail vol lx ly lz density pxx pyy pzz
thermo_modify flush yes
thermo 500

# --- Velocity initialization at T_START (once only — Rule A) ---
velocity all create 750.0 385703 mom yes rot yes dist gaussian

# --- Temperature staircase (inherits momenta across steps — Rule A) ---
variable temps index 750 730 710 690 670 650 630 610 590 570 550 530 510 490 470 450 430 410 390 370 350 330 310 290 270 250
label TEMP_LOOP
  timestep 1
  fix npt_tg all npt temp ${temps} ${temps} 100 iso 1.0 1.0 1000.0
  fix npt_tg all npt temp 750 ${temps} 100 iso 1.0 1.0 1000.0
  fix npt_tg all npt temp 750 750 100 iso 1.0 1.0 1000.0
  run 125000
PPPM Kokkos initialization ...
  using 12-bit tables for long-range coulomb
  G vector (1/distance) = 0.29474978
  grid = 32 32 32
  stencil order = 5
  estimated absolute RMS force accuracy = 0.00040018158
  estimated relative force accuracy = 1.2051349e-06
  using double precision cuFFT
  3d grid and FFT values/proc = 59319 32768
Generated 28 of 28 mixed pair_coeff terms from sixthpower/sixthpower mixing rule
Neighbor list info ...
  update: every = 1 steps, delay = 0 steps, check = yes
  max neighbors/atom: 4000, page size: 100000
  master list distance cutoff = 11.5
  ghost atom cutoff = 11.5
  binsize = 11.5, bins = 5 5 5
  1 neighbor lists, perpetual/occasional/extra = 1 0 0
  (1) pair lj/class2/coul/long/kk, perpetual
      attributes: full, newton off, kokkos_device
      pair build: full/bin/kk/device
      stencil: full/bin/3d
      bin: kk/device
Per MPI rank memory allocation (min/avg/max) = 52.22 | 52.22 | 52.22 Mbytes
   Step          Time           Temp          Press         Enthalpy        TotEng         KinEng         PotEng         E_bond        E_angle        E_dihed        E_impro         E_vdwl         E_coul         E_long         E_tail         Volume           Lx             Ly             Lz          Density          Pxx            Pyy            Pzz      
         0   0              750            137.33734      42701.511      42476.123      19349.183      23126.94       7731.7064      7097.9168      5638.7099      688.06256      1149.3835      6424.1301     -5602.9697     -621.94023      112529.54      48.278694      48.278694      48.278694      1.0450858     -1639.7717      1542.7158      509.06792    
       500   500            759.07077     -126.23663      43859.682      44069.586      19583.199      24486.387      8280.7536      7650.2403      5755.9292      736.79791      1213.4235      6448.5584     -5599.3159     -613.84047      114014.39      48.490117      48.490117      48.490117      1.0314753     -98.720485     -578.84794      298.85853    
      1000   1000           753.23169      587.61486      45202.111      44213.841      19432.557      24781.284      8247.6444      7682.469       5892.1244      736.45382      1371.0987      6451.9529     -5600.4597     -606.88719      115320.69      48.674602      48.674602      48.674602      1.0197912      188.66234      1348.5538      225.62842    
      1500   1500           758.88457     -1623.6648      41740.874      44500.719      19578.396      24922.324      8313.7344      7623.081       6016.9615      760.33662      1368.5584      6436.1768     -5596.5248     -600.48571      116550.07      48.846956      48.846956      48.846956      1.0090344     -2274.5986     -1055.0795     -1541.3164    
      2000   2000           752.11929      885.84478      45467.328      43967.312      19403.859      24563.453      8185.8538      7571.3305      5825.0085      754.48343      1389.3886      6439.9849     -5602.5964     -602.77155      116108.08      48.785132      48.785132      48.785132      1.0128755      1265.5909      258.96225      1132.9812    
      2500   2500           744.19416      1837.436       46920.831      43823.415      19199.399      24624.016      8294.2337      7521.2115      5855.5214      761.59168      1361.0267      6433.9166     -5603.4855     -605.48555      115587.65      48.712132      48.712132      48.712132      1.017436       1251.8133      2853           1407.4946    
      3000   3000           748.344        202.75299      44250.877      43909.702      19306.46       24603.242      8168.491       7614.2171      5898.8095      750.10358      1332.0584      6442.3137     -5602.7516     -606.56946      115381.1       48.6831        48.6831        48.6831        1.0192573     -743.40105      1028.7559      322.9041     
      3500   3500           760.82119     -31.520099      44251.193      44304.291      19628.358      24675.933      8250.1669      7551.6563      5997.2329      767.65528      1273.5886      6438.3712     -5602.7381     -605.90172      115508.25      48.700977      48.700977      48.700977      1.0181353     -2387.1289      1758.1747      534.39394    
      4000   4000           759.00713     -1884.4971      41162.681      44348.398      19581.557      24766.841      8331.8713      7508.4228      6087.1118      757.19427      1253.7985      6432.8134     -5604.3711     -603.7809       115913.98      48.757932      48.757932      48.757932      1.0145715     -2070.0717      462.77088     -4046.1906    
      4500   4500           757.74659     -1203.9879      41997.207      44029.858      19549.037      24480.821      8120.2371      7486.4661      5964.47        752.95094      1337.4753      6418.6845     -5599.4632     -604.57557      115761.62      48.73656       48.73656       48.73656       1.0159069     -2158.6417     -760.38545     -692.93663    
      5000   5000           754.53393     -621.49807      42768.449      43806.774      19466.154      24340.621      8162.2708      7447.4614      5846.6971      729.28838      1331.25        6429.1062     -5605.4532     -610.93855      114555.96      48.56677       48.56677       48.56677       1.026599       373.67604     -1075.4899     -1162.6803    
      5500   5500           744.35135      452.54588      44772.667      44018.714      19203.454      24815.26       8444.7727      7508.2444      6008.4974      761.135        1265.0671      6428.0855     -5600.5425     -612.64552      114236.78      48.521622      48.521622      48.521622      1.0294673      1163.1183      335.46189     -140.94257    
      6000   6000           745.15021      1164.5867      45669.136      43723.905      19224.064      24499.841      8350.3823      7470.4673      5819.0608      707.57272      1327.2145      6429.5385     -5604.395      -611.07122      114531.08      48.563255      48.563255      48.563255      1.0268219      1969.5962      665.97464      858.1892     
      6500   6500           735.10462     -265.68318      43144.618      43594.757      18964.899      24629.858      8373.7039      7550.8057      5873.3146      749.46508      1240.4         6437.5023     -5595.3333     -602.43334      116173.27      48.79426       48.79426       48.79426       1.0123072     -712.77011     -642.02932      557.74988    
      7000   7000           754.82009      371.68271      44890.387      44262.746      19473.536      24789.21       8540.849       7394.2753      5922.0034      768.6404       1316.9697      6447.338      -5600.8661     -604.43891      115787.8       48.740233      48.740233      48.740233      1.0156772      505.93647      827.51865     -218.40698    
      7500   7500           762.28341      1701.8717      47200.558      44346.344      19666.082      24680.262      8650.2115      7275.9314      5825.6355      764.62782      1321.2979      6443.3523     -5600.7941     -608.59932      114996.27      48.628915      48.628915      48.628915      1.0226682      1426.6639      597.8113       3081.1399    
      8000   8000           751.67593     -28.814089      43676.117      43724.806      19392.42       24332.385      8220.4471      7483.98        5814.6088      740.35087      1234.6134      6438.7411     -5600.3561     -604.04107      115864.06      48.750931      48.750931      48.750931      1.0150087      521.74182     -187.60007     -420.58402    
      8500   8500           758.86528      448.52495      44819.972      44057.614      19577.898      24479.716      8243.8338      7468.6583      5836.0456      759.5576       1344.5328      6429.8771     -5602.7892     -600.5078       116545.78      48.846357      48.846357      48.846357      1.0090715      1835.1409     -132.04998     -357.51608    
      9000   9000           755.28961     -1327.8472      42165.944      44425.197      19485.65       24939.548      8577.5657      7492.3385      5990.3928      740.75402      1285.885       6451.585      -5598.9732     -599.89359      116665.11      48.863022      48.863022      48.863022      1.0080395     -2528.3505     -139.66279     -1315.5283    
      9500   9500           756.38489      907.15415      45911.011      44374.809      19513.906      24860.903      8626.3237      7481.9022      5844.0756      742.21325      1326.0121      6441.0286     -5600.6527     -602.73171      116115.76      48.786207      48.786207      48.786207      1.0128085      1231.8773      999.44509      490.14009    
     10000   10000          748.84351      671.63128      45084.117      43963.225      19319.347      24643.878      8487.5996      7299.6612      6058.8331      768.26011      1205.388       6431.3649     -5607.2286     -611.58744      114434.41      48.549588      48.549588      48.549588      1.0276894      828.34383      176.46756      1010.0824    
     10500   10500          738.35293     -42.615387      43612.298      43683.84       19048.701      24635.139      8194.2346      7524.6006      6036.4401      744.02053      1298.9988      6437.6265     -5600.7824     -607.9894       115111.63      48.645171      48.645171      48.645171      1.0216434      1610.6551     -203.11814     -1535.3832    
     11000   11000          754.40151     -440.90806      43259.394      43997.759      19462.737      24535.021      8260.2584      7464.0151      5992.8011      768.97097      1208.5426      6441.4583     -5601.025      -609.49186      114827.87      48.605166      48.605166      48.605166      1.024168      -1357.4824      707.20356     -672.44534    
     11500   11500          748.60809      1062.1608      45619.26       43861.665      19313.273      24548.391      8427.549       7436.7041      5909.8418      730.23136      1207.8313      6432.716      -5596.4824     -616.82563      113462.62      48.411767      48.411767      48.411767      1.0364914      1474.1939      359.48256      1352.8059    
     12000   12000          752.3677      -987.78665      42509.188      44174.117      19410.267      24763.849      8293.2849      7514.9369      6087.568       771.21269      1224.5781      6469.4409     -5597.1722     -605.56185      115573.08      48.710086      48.710086      48.710086      1.0175642     -439.2241       383.97238     -2908.1082    
     12500   12500          748.50712     -102.56573      43995.968      44169.875      19310.668      24859.207      8187.4097      7617.5809      5979.9733      781.08018      1438.8219      6452.2945     -5597.9537     -601.97179      116262.34      48.806727      48.806727      48.806727      1.0115316      1483.707       692.66881     -2484.0731    
     13000   13000          751.96523     -1436.5245      41741.471      44173.88       19399.884      24773.996      8328.871       7486.7947      6069.6801      747.37882      1294.6627      6443.9225     -5597.3141     -602.79223      116104.1       48.784574      48.784574      48.784574      1.0129102     -1623.9441     -2274.72       -410.9093     
     13500   13500          744.51493      328.9139       44362.621      43814.971      19207.674      24607.297      8379.3755      7329.9832      6026.3493      772.42355      1255.6841      6441.3578     -5597.8766     -613.01412      114168.09      48.511895      48.511895      48.511895      1.0300867      151.48644      857.73859     -22.483341    
     14000   14000          754.07434      1690.942       46389.073      43564.445      19454.297      24110.148      7978.41        7396.6986      5846.1735      775.91156      1254.6735      6455.894      -5597.6133     -611.02431      114539.88      48.564498      48.564498      48.564498      1.0267431     -4.1494553      3119.1966      1957.7788    
     14500   14500          749.32036      504.07108      44814.087      43967.338      19331.649      24635.689      8376.9872      7535.1535      5843.2266      759.1212       1283.4345      6439.219      -5601.4534     -607.61445      115182.66      48.655175      48.655175      48.655175      1.0210133      959.81369     -202.43007      754.82962    
     15000   15000          749.88653      1721.1365      47218.206      44315.425      19346.256      24969.169      8455.7629      7595.8417      5937.2273      759.84811      1391.924       6433.0029     -5604.4377     -605.19058      115643.98      48.720045      48.720045      48.720045      1.0169403      2028.3622      2375.9961      759.05126    
     15500   15500          756.26737      1107.0396      46037.135      44177.493      19510.874      24666.619      8470.9769      7480.6247      5830.5796      753.67765      1294.0063      6438.8851     -5602.1314     -607.61014      115183.48      48.65529       48.65529       48.65529       1.0210061     -469.06584      18.699583      3771.485     
     16000   16000          743.13296      852.06451      45298.031      43879.938      19172.021      24707.917      8364.6038      7466.1542      5931.1151      745.43194      1363.1327      6441.0555     -5603.576      -613.28028      114118.54      48.504876      48.504876      48.504876      1.030534       926.94996      1462.4435      166.80004    
     16500   16500          756.47703      1092.9062      45891.406      44061.887      19516.284      24545.603      8232.5606      7298.8999      6017.8637      761.49391      1407.5841      6433.7617     -5606.5608     -609.72918      114783.17      48.598859      48.598859      48.598859      1.0245668      645.94054      1513.546       1119.2321    
     17000   17000          742.36997     -891.02872      42190.367      43683.001      19152.337      24530.664      8113.7527      7631.4568      5974.4215      753.33785      1231.3701      6428.6346     -5602.3097     -609.29783      114864.43      48.610325      48.610325      48.610325      1.023842      -2248.1225     -649.33466      224.37099    
     17500   17500          738.86658      694.08358      44680.15       43526.504      19061.953      24464.551      8081.0635      7583.7465      5892.5595      721.70941      1343.4274      6445.4265     -5603.3818     -614.08758      113968.51      48.483612      48.483612      48.483612      1.0318905      1575.788      -543.93246      1050.3952    
     18000   18000          744.98783      378.42508      44416.235      43781.715      19219.875      24561.84       8322.1273      7526.4892      5873.5735      735.70361      1249.3139      6453.9156     -5599.2831     -608.7312       114971.35      48.625403      48.625403      48.625403      1.0228898      31.356943     -178.5948       1282.5131    
     18500   18500          747.12233      605.59699      44933.58       43908.724      19274.942      24633.781      8218.5641      7588.3889      5858.4706      772.80205      1369.2039      6430.5814     -5604.2297     -603.13142      116038.81      48.775427      48.775427      48.775427      1.0134802      31.803298      1721.0467      63.940954    
     19000   19000          756.79868     -737.32764      42910.163      44155.574      19524.582      24630.992      8298.9229      7460.0398      5952.571       731.29946      1328.4878      6453.531      -5593.8598     -604.28097      115818.06      48.744479      48.744479      48.744479      1.0154118      95.631164     -2231.9095     -75.704633    
     19500   19500          760.50174      145.93356      44642.773      44396.388      19620.117      24776.271      8309.499       7566.5112      5929.8401      730.15418      1372.7702      6456.1046     -5588.6081     -604.54888      115766.73      48.737277      48.737277      48.737277      1.015862      -67.032848      485.33949      19.494051    
     20000   20000          757.17935      990.94856      46009.354      44338.1        19534.403      24803.697      8381.1149      7384.4517      6089.3398      799.89233      1308.002       6439.0369     -5598.1403     -605.20117      115641.96      48.719761      48.719761      48.719761      1.0169581      825.49632      322.98268      1824.3667    
     20500   20500          745.37631      245.51267      44302.145      43891.607      19229.897      24661.709      8307.5965      7630.1227      5901.4694      743.33284      1222.8309      6447.467      -5591.1098     -610.3948       114658         48.581188      48.581188      48.581188      1.0256853      1091.4727     -1142.8706      787.93593    
     21000   21000          749.44298     -864.01109      42369.895      43816.044      19334.813      24481.231      8210.4565      7499.2402      5917.0878      751.76572      1257.89        6441.6754     -5596.8848     -609.81426      114767.16      48.596599      48.596599      48.596599      1.0247098      326.48967     -1490.5995     -1427.9234    
     21500   21500          742.5661      -398.31405      42978.229      43649.407      19157.397      24492.01       8357.9719      7328.8067      5967.9971      774.55799      1226.6219      6437.9791     -5601.9246     -605.73023      115540.96      48.705572      48.705572      48.705572      1.0178471     -2709.6453      1805.489      -290.78582    
     22000   22000          756.94114      211.68995      44214.556      43859.943      19528.257      24331.686      8122.111       7506.9509      5785.2278      743.37611      1343.1019      6430.1424     -5599.2237     -609.30933      114862.26      48.610019      48.610019      48.610019      1.0238613      303.24413      8.6943527      323.13136    
     22500   22500          757.94265     -2031.5116      40672.361      44085.648      19554.095      24531.553      8254.5804      7445.7206      6058.8134      766.05979      1169.2191      6434.0158     -5596.8559     -607.48779      115206.68      48.658556      48.658556      48.658556      1.0208005     -832.65772     -4036.5354     -1225.3418    
     23000   23000          744.78947      892.53043      45482.37       44000.928      19214.757      24786.171      8489.1428      7409.6954      5997.5817      756.81396      1292.3576      6440.0723     -5599.4926     -614.93544      113811.38      48.461319      48.461319      48.461319      1.0333152      1892.3653     -417.7855       1203.0114    
     23500   23500          741.14791     -976.83615      42140.923      43760.983      19120.809      24640.174      8181.7183      7572.3193      6147.0826      784.16622      1108.8011      6442.2328     -5596.1457     -615.43425      113719.13      48.448222      48.448222      48.448222      1.0341534     -738.8163      -30.495743     -2161.1964    
     24000   24000          746.22315     -1375.5034      41436.319      43749.068      19251.744      24497.323      8176.4959      7575.491       5972.4142      745.06791      1179.2709      6451.2073     -5602.6239     -607.04961      115289.84      48.670261      48.670261      48.670261      1.0200642     -626.08481     -1637.3048     -1863.1205    
     24500   24500          748.52581     -192.10626      43728          44051.217      19311.151      24740.066      8460.5663      7407.2896      5969.1933      757.49825      1287.2246      6459.3202     -5601.0259     -606.65067      115365.65      48.680927      48.680927      48.680927      1.0193938      165.94126     -511.09038     -231.16965    
     25000   25000          750.99629     -853.41904      42386.631      43822.236      19374.886      24447.349      8242.234       7328.0195      6027.2132      768.84152      1231.9825      6444.0638     -5595.0052     -606.76207      115344.47      48.677948      48.677948      48.677948      1.019581       188.08282     -764.55431     -1983.7856    
     25500   25500          748.73089      1282.5787      45715.124      43573.049      19316.442      24256.607      8026.8224      7375.337       5956.2815      757.84061      1305.2273      6436.7919     -5601.6933     -611.13974      114518.24      48.56144       48.56144       48.56144       1.0269371      1696.7802      1883.1773      267.77873    
     26000   26000          743.73916     -170.74139      43397.264      43684.815      19187.66       24497.155      8339.6986      7462.3957      5830.1822      724.61025      1284.4066      6453.5081     -5597.6467     -606.05964      115478.16      48.696747      48.696747      48.696747      1.0184006     -3005.6841      1139.4419      1354.018     
     26500   26500          752.0632       904.65942      45579.592      44049.385      19402.412      24646.973      8234.8458      7522.7243      5956.5734      754.88053      1321.3088      6454.1879     -5597.5476     -603.42859      115981.66      48.767419      48.767419      48.767419      1.0139795      1949.8274      1140.7322     -376.58139    
     27000   27000          752.83883      1489.0007      46515.849      43994.161      19422.422      24571.739      8151.8188      7512.6523      5865.0524      754.90149      1454.5083      6439.07       -5606.2642     -602.69097      116123.61      48.787306      48.787306      48.787306      1.0127401      965.92623      1963.0674      1538.0083    
     27500   27500          743.75825      1287.6416      45869.797      43696.517      19188.153      24508.364      8168.1917      7566.9695      5828.2371      759.18999      1350.5149      6440.8593     -5605.5987     -604.74234      115729.7       48.732079      48.732079      48.732079      1.0161871      667.8949       1366.7081      1828.3217    
     28000   28000          751.53875      712.48945      44958.598      43765.68       19388.881      24376.799      8086.5755      7336.146       6018.7823      774.58122      1315.4561      6444.8319     -5599.5739     -609.61985      114803.76      48.601764      48.601764      48.601764      1.0243831      2546.3345     -157.46394     -251.4022     
     28500   28500          734.92884      844.69265      45230.446      43802.474      18960.364      24842.11       8381.08        7684.6747      5824.8811      746.74674      1353.9715      6442.4464     -5591.6904     -603.76821      115916.42      48.758274      48.758274      48.758274      1.0145502      142.19871      2885.2777     -493.39843    
     29000   29000          740.35596     -149.34195      43917.845      44170.824      19100.378      25070.446      8345.2686      7698.6764      6003.1346      766.74131      1410.0377      6445.4943     -5598.9067     -602.5442       116151.89      48.791267      48.791267      48.791267      1.0124934     -51.670993     -648.4689       252.11404    
     29500   29500          753.85688     -924.87194      42504.591      44071.511      19448.687      24622.825      8217.0592      7348.7171      6137.948       788.79584      1284.3911      6444.9711     -5599.0577     -602.45676      116168.75      48.793628      48.793628      48.793628      1.0123465     -503.91813      324.98603     -2595.6837    
     30000   30000          754.09372      1255.3263      45942.098      43832.754      19454.797      24377.957      8108.4748      7420.6246      5887.1268      783.09759      1336.0761      6442.079      -5599.5215     -607.4357       115216.56      48.659947      48.659947      48.659947      1.0207129      2142.313       480.44923      1143.2166    
     30500   30500          754.7978      -72.432344      43792.058      43915.088      19472.961      24442.126      8276.3905      7511.7613      5812.8895      722.31026      1299.195       6425.0274     -5605.4476     -600.91405      116466.99      48.835347      48.835347      48.835347      1.0097542     -209.78458      81.333735     -88.846186    
     31000   31000          752.63566     -659.92751      43049.98       44174.537      19417.18       24757.357      8327.4428      7415.337       5997.9885      775.50934      1397.6732      6437.0616     -5593.6557     -598.97098      116844.81      48.888098      48.888098      48.888098      1.0064891     -916.67551     -308.55055     -754.55646    
     31500   31500          745.43595      970.68225      45804.183      44162.118      19231.436      24930.682      8296.8871      7692.4205      5863.1267      779.01337      1441.2063      6453.7901     -5595.7619     -603.36189      115994.48      48.769216      48.769216      48.769216      1.0138675     -256.61023      2313.4782      855.17876    
     32000   32000          748.38974      360.77107      44479.541      43871.057      19307.64       24563.416      8155.73        7506.542       6081.0599      761.08494      1241.9525      6418.2586     -5601.2116     -605.16442      115648.98      48.720747      48.720747      48.720747      1.0168964      351.01162      1452.3913     -721.08973    
     32500   32500          752.04246      1827.0272      46961.555      43881.83       19401.876      24479.954      8184.5659      7506.4848      5781.8066      742.60726      1414.1766      6445.6676     -5595.355      -605.51391      115582.23      48.711372      48.711372      48.711372      1.0174836      2384.1987      2215.6428      881.24001    
     33000   33000          753.11668      742.62894      45931.41       44673.987      19429.59       25244.397      8423.2596      7740.4957      5973.5425      796.96692      1457.2335      6452.708      -5599.8091     -602.81156      116100.38      48.784053      48.784053      48.784053      1.0129427      2611.2371     -442.88959      59.539303    
     33500   33500          754.39029      1212.0838      45984.956      43955.862      19462.448      24493.414      8319.3338      7485.8353      5829.924       757.15264      1245.8674      6453.4684     -5598.1673     -609.70746      114787.26      48.599436      48.599436      48.599436      1.0245303      727.22987      1275.8776      1633.144     
     34000   34000          751.5918       1329.2852      45978.157      43774.485      19390.25       24384.235      8121.3581      7448.502       6027.8326      771.34118      1177.5146      6442.1462     -5604.4598     -615.69029      113671.84      48.441506      48.441506      48.441506      1.0345837      2311.7822      396.88823      1279.1851    
     34500   34500          744.08009     -378.71326      42875.704      43507.106      19196.456      24310.65       8245.1138      7331.4747      5937.0881      729.04582      1232.68        6437.2266     -5601.9793     -612.20399      114319.17      48.533284      48.533284      48.533284      1.0287254     -1182.2335     -963.98502      1010.0787    
     35000   35000          751.59772     -546.8917       42796.26       43710.676      19390.403      24320.274      8104.2132      7364.8791      6090.6748      753.18838      1178.2767      6435.2362     -5606.1948     -610.44798      114648.02      48.579777      48.579777      48.579777      1.0257747     -1166.7051      1141.7057     -1615.6757    
     35500   35500          746.86555      269.37012      44385.605      43938.144      19268.318      24669.826      8258.5062      7604.9048      6017.1462      754.22125      1187.2188      6445.4992     -5597.67       -614.44865      113901.54      48.474113      48.474113      48.474113      1.0324972      601.21569     -1284.4597      1491.3544    
     36000   36000          749.12203     -1239.6083      42044.962      44094.38       19326.533      24767.847      8424.4282      7543.7808      6071.731       766.60388      1117.7963      6444.7608     -5601.2538     -617.36945      113362.67      48.397548      48.397548      48.397548      1.0374053     -1651.3542     -851.98743     -1215.4832    
     36500   36500          753.11358     -279.17325      43797.144      44266.387      19429.51       24836.877      8534.5145      7285.4284      6091.5119      769.01765      1302.9416      6454.3834     -5600.9204     -607.24871      115252.04      48.664941      48.664941      48.664941      1.0203987     -144.06548     -923.92655      230.47228    
     37000   37000          757.0392       174.82019      44421.944      44127.899      19530.787      24597.112      8307.0842      7385.1492      6005.2651      770.13034      1287.3856      6440.5055     -5598.4079     -606.8336       115330.87      48.676035      48.676035      48.676035      1.0197012     -181.47335      388.77687      317.15706    
     37500   37500          750.30254     -790.0425       42574.592      43891.762      19356.988      24534.773      8420.2882      7446.1223      5880.464       720.80222      1242.7016      6430.925      -5606.5298     -612.20894      114318.24      48.533154      48.533154      48.533154      1.0287337     -336.50053     -194.81603     -1838.8109    
     38000   38000          760.93993      520.30479      44957.159      44098.941      19631.422      24467.52       8291.7698      7369.2523      5988.8254      756.93855      1226.4752      6440.4256     -5606.1669     -618.80203      113100.23      48.360171      48.360171      48.360171      1.0398125      2404.2636     -720.55669     -122.79251    
     38500   38500          747.9041       416.23969      44696.743      44006.831      19295.111      24711.72       8335.8006      7552.7363      5904.7589      780.59453      1298.2575      6441.8883     -5602.3161     -615.80184      113651.25      48.438581      48.438581      48.438581      1.0347711      843.16054      748.91607     -343.35756    
     39000   39000          744.51958      2347.817       47589.671      43641.044      19207.794      24433.249      8174.3819      7586.262       5764.6754      748.40857      1304.1935      6456.8792     -5601.5513     -606.88884      115320.38      48.674558      48.674558      48.674558      1.019794       2780.6533      1976.426       2286.3717    
     39500   39500          744.25038     -923.49911      41946.822      43498.274      19200.849      24297.425      8188.1537      7446.6681      5948.6658      737.34081      1149.0912      6433.5477     -5606.0425     -607.56024      115192.94      48.656622      48.656622      48.656622      1.0209222     -2827.623      -1428.2857      1485.4114    
     40000   40000          748.20016      647.91346      44757.878      43670.014      19302.749      24367.265      8264.9643      7403.3374      5869.3556      731.95611      1259.8616      6444.5997     -5606.8096     -607.90195      115128.19      48.647503      48.647503      48.647503      1.0214964     -355.5707       1620.3009      679.0102     
     40500   40500          755.79597     -772.58199      42714.295      44010.814      19498.713      24512.101      8188.908       7485.3574      5938.415       723.18761      1316.7499      6457.5916     -5598.1087     -608.21473      115068.98      48.639163      48.639163      48.639163      1.022022      -578.53831     -665.25298     -1073.9547    
     41000   41000          761.03287     -140.89023      44090.239      44326.409      19633.819      24692.59       8293.669       7435.9823      6079.4783      746.83188      1301.6254      6433.0026     -5597.9995     -608.90141      114939.21      48.620872      48.620872      48.620872      1.0231759     -183.06721     -862.83507      623.23158    
     41500   41500          752.09497      671.0861       45301.381      44166.84       19403.231      24763.608      8260.0929      7523.406       5916.4796      747.42598      1468.5452      6442.4645     -5594.8057     -603.73845      115922.13      48.759075      48.759075      48.759075      1.0145002      845.18419      270.75739      897.31672    
     42000   42000          753.75733     -64.547398      43865.034      43974.788      19446.118      24528.669      8227.575       7510.2886      5808.8069      753.31285      1389.9868      6437.915      -5599.2159     -600.27753      116590.49      48.852603      48.852603      48.852603      1.0086846     -980.07456      444.28511      342.14726    
     42500   42500          746.95444      645.62421      44698.963      43622.18       19270.611      24351.569      8344.9734      7318.9781      5752.9282      741.30258      1355.9178      6437.7937     -5600.3252     -611.98736      114359.63      48.53901       48.53901       48.53901       1.0283614      874.30243     -219.43073      1282.0009    
     43000   43000          738.40308     -1027.4111      41803.949      43542.968      19049.995      24492.973      8295.8289      7369.0049      5860.6466      734.45554      1394.0161      6436.4526     -5597.4318     -603.01893      116060.45      48.77846       48.77846       48.77846       1.0132911     -1255.1894     -1390.9782     -436.06586    
     43500   43500          755.10235      8.7205041      44188.876      44174.033      19480.818      24693.215      8441.3886      7543.6969      5828.3282      775.05706      1267.5592      6436.9482     -5599.763      -599.67773      116707.1       48.868885      48.868885      48.868885      1.0076767     -30.179849     -1769.5297      1825.8711    
     44000   44000          751.78995     -289.70643      43709.713      44199.502      19395.362      24804.14       8382.1719      7599.566       5885.8894      750.90437      1359.0653      6426.5095     -5599.966      -603.72557      115924.61      48.759422      48.759422      48.759422      1.0144786     -1074.5866     -719.85175      925.3191     
     44500   44500          755.40967      1858.9042      47576.544      44435.187      19488.747      24946.44       8398.0611      7577.4344      5993.1941      756.22562      1385.461       6437.3781     -5601.3141     -603.99143      115873.58      48.752266      48.752266      48.752266      1.0149253      2901.9251      1527.4177      1147.3697    
     45000   45000          759.98374      754.85251      45272.716      43998.175      19606.753      24391.422      8312.1032      7475.761       5735.2906      726.23962      1292.325       6445.0544     -5595.352      -604.5042       115775.29      48.738478      48.738478      48.738478      1.015787       2047.2012     -513.94319      731.29955    
     45500   45500          747.91922     -1420.5337      41354.037      43769.01       19295.501      24473.508      8281.5947      7476.5331      5919.2678      740.10518      1222.0986      6434.9465     -5601.0375     -600.3857       116569.48      48.849669      48.849669      48.849669      1.0088664     -1514.5415     -1740.3236     -1006.7359    
     46000   46000          749.25775     -1677.4578      41119.093      43974.301      19330.034      24644.267      8231.2744      7652.9704      5920.2217      759.23699      1245.5182      6432.3106     -5597.2656     -599.65984      116710.58      48.869371      48.869371      48.869371      1.0076467     -3508.9028     -1770.3874      246.91676    
     46500   46500          751.20898     -306.41351      43469.798      43987.091      19380.374      24606.717      8412.2272      7392.9072      5861.5408      762.24922      1331.7293      6447.7245     -5601.6609     -604.59166      115758.54      48.736127      48.736127      48.736127      1.0159339      1114.95       -773.98484     -1260.2057    
     47000   47000          766.57382      407.21584      45186.485      44499.62       19776.77       24722.85       8235.3278      7638.511       5926.3202      781.33908      1285.0408      6459.8472     -5603.5358     -605.12437      115656.64      48.721822      48.721822      48.721822      1.0168291      59.788216     -1626.5586      2788.4179    
     47500   47500          759.36254      1869.9614      47282.933      44151.245      19590.726      24560.518      8148.7586      7547.2151      5888.4671      780.90473      1355.1269      6442.7011     -5602.6554     -609.4599       114833.89      48.606016      48.606016      48.606016      1.0241143      3017.9599      707.76685      1884.1576    
     48000   48000          760.25008     -1298.2751      41886.005      44066.865      19613.624      24453.241      8300.8308      7474.554       5896.3885      731.14447      1208.9443      6441.4002     -5600.0213     -607.61715      115182.15      48.655103      48.655103      48.655103      1.0210178     -3405.0895     -478.49858     -11.237089    
     48500   48500          739.67278     -844.97683      42197.012      43630.914      19082.752      24548.162      8371.9167      7474.2206      5930.3431      709.07682      1212.2063      6451.5919     -5601.1938     -601.47357      116358.65      48.8202        48.8202        48.8202        1.0106944     -787.62716      55.758009     -1803.0613    
     49000   49000          747.29077     -1427.3635      41238.4        43645.041      19279.288      24365.752      8283.9891      7348.8081      5956.9673      754.65903      1194.7802      6428.6557     -5602.1069     -605.36094      115611.44      48.715474      48.715474      48.715474      1.0172266     -588.88345     -1603.0371     -2090.17      
     49500   49500          740.32483      278.99988      43863.086      43396.107      19099.574      24296.532      8372.9995      7316.6202      5801.3643      726.80621      1234.7442      6447.8146     -5603.8168     -609.81403      114767.2       48.596605      48.596605      48.596605      1.0247094     -1232.7852      515.55285      1554.232     
     50000   50000          745.71209      398.9666       44296.604      43623.284      19238.56       24384.724      8154.0151      7419.8686      5847.1392      740.8635       1379.7048      6439.7978     -5596.6645     -604.7928       115720.04      48.730724      48.730724      48.730724      1.0162719      819.5361       675.78933     -298.42563    
     50500   50500          746.80974     -381.15707      43482.291      44141.223      19266.878      24874.345      8348.313       7629.0529      5879.9866      748.10049      1428.2563      6441.3417     -5600.7059     -590.41067      118538.93      49.12324       49.12324       49.12324       0.99210469    -1099.7332     -664.74834      621.01037    
     51000   51000          747.24432     -583.98025      42947.195      43950.581      19278.09       24672.492      8069.6524      7431.3315      6153.0571      778.73098      1387.2194      6453.4878     -5600.9875     -594.0473       117813.26      49.022794      49.022794      49.022794      0.99821555     192.11721     -999.41547     -944.64249    
     51500   51500          745.96235      335.33755      44480.552      43912.873      19245.016      24667.857      8306.8729      7476.59        5903.8596      745.64741      1388.7748      6449.2664     -5603.1545     -602.93487      116076.63      48.780727      48.780727      48.780727      1.0131499     -328.84769      366.59119      968.26914    
     52000   52000          743.69396     -746.7112       42461.174      43728.635      19186.494      24542.141      8217.097       7597.4442      5815.5234      737.09238      1343.832       6432.484      -5601.3324     -601.32474      116387.44      48.824227      48.824227      48.824227      1.0104443     -424.40456     -828.18178     -987.54726    
     52500   52500          741.37427     -825.88029      42279.325      43681.762      19126.649      24555.113      8198.1552      7544.6795      5908.2401      739.78763      1338.2911      6429.7294     -5603.7698     -601.06956      116436.86      48.831135      48.831135      48.831135      1.0100155     -561.9787      -350.6853      -1564.9769    
     53000   53000          748.85605      1920.228       47028.661      43798.701      19319.671      24479.031      8280.2684      7449.7185      5823.8288      738.40708      1356.2509      6431.7515     -5601.1946     -606.80166      115336.94      48.676889      48.676889      48.676889      1.0196475      2658.9663      1769.2351      1332.4827    
     53500   53500          751.14247      560.52356      45065.288      44118.462      19378.658      24739.805      8143.7434      7538.5849      6058.381       760.21862      1387.3267      6452.9        -5601.35       -604.24766      115824.45      48.745374      48.745374      48.745374      1.0153559      457.42484      471.05455      753.0913     
     54000   54000          766.03112     -202.37375      44264.556      44610.147      19762.769      24847.379      8481.8011      7474.6522      5986.8336      775.73867      1294.6732      6436.0043     -5602.3244     -597.69807      117093.65      48.922779      48.922779      48.922779      1.0043502     -770.73353     -976.23467      1139.847     
     54500   54500          748.4443       535.27477      44722.248      43817.045      19309.048      24507.998      8242.7091      7407.5586      5897.679       746.30931      1366.4382      6450.4403     -5603.1368     -603.56249      115955.93      48.763813      48.763813      48.763813      1.0142045      1827.5628      374.86632     -596.6048     
     55000   55000          746.2572       2138.7896      47545.763      43936.984      19252.623      24684.361      8261.9451      7540.4057      5889.5442      771.11642      1394.6872      6435.4011     -5608.7389     -604.92133      115695.46      48.727272      48.727272      48.727272      1.0164879      2438.5272      2307.9112      1669.9303    
     55500   55500          753.049       -379.77727      43512.696      44158.057      19427.844      24730.213      8334.1819      7344.8471      6025.1738      768.66577      1422.0604      6437.2685     -5601.9845     -600.64427      116519.3       48.842658      48.842658      48.842658      1.0093009     -144.89092      146.9299      -1141.3708    
     56000   56000          753.15624      405.32603      45069.631      44383.659      19430.611      24953.048      8392.8818      7692.9875      5872.4226      774.46063      1389.5864      6438.0375     -5607.3285     -603.0995       116044.95      48.776288      48.776288      48.776288      1.0134265      1104.4659      1618.2812     -1506.769     
     56500   56500          749.96946      2002.6957      47490.694      44115.039      19348.395      24766.643      8202.6293      7630.0491      5893.1939      738.7222       1484.8404      6426.408      -5609.1995     -605.54714      115575.89      48.710481      48.710481      48.710481      1.0175395      2548.3805      2186.4905      1273.216     
     57000   57000          759.17935      67.625423      44432.361      44317.562      19586          24731.561      8120.0994      7513.2988      6069.8043      758.35284      1423.357       6446.966      -5600.317      -601.26009      116399.96      48.825977      48.825977      48.825977      1.0103357      354.1397       734.05086     -885.31428    
     57500   57500          748.60949     -184.84164      43955.619      44271.629      19313.31       24958.32       8397.233       7568.3697      6014.0812      743.6251       1393.8277      6446.3689     -5605.1859     -597.02156      117226.33      48.941251      48.941251      48.941251      1.0032134      1235.874      -790.43719     -999.96172    
     58000   58000          744.79744      577.01904      44934.411      43944.293      19214.963      24729.331      8228.0893      7533.8247      5813.8505      727.22736      1579.9458      6450.4117     -5604.0188     -594.83198      117657.85      49.001228      49.001228      49.001228      0.9995341      1397.4926      205.28868      128.27583    
     58500   58500          750.91454     -1243.2025      41666.262      43802.44       19372.777      24429.662      8251.6592      7346.9171      5923.671       708.61812      1351.1974      6448.6468     -5601.0474     -594.01245      117820.17      49.023753      49.023753      49.023753      0.99815699    -1473.2157     -1437.6398     -818.75189    
     59000   59000          739.96907     -1382.8441      41360.362      43729          19090.396      24638.604      8321.8162      7328.697       6019.8699      752.18786      1387.3869      6428.8357     -5600.1895     -595.88931      117449.08      48.972229      48.972229      48.972229      1.0013108     -2799.8845     -484.96201     -863.68562    
     59500   59500          748.08173     -1497.6262      41555.324      44119.447      19299.694      24819.753      8267.8588      7538.3857      6076.18        755.3502       1319.8843      6456.2001     -5594.1063     -596.15018      117397.68      48.965084      48.965084      48.965084      1.0017492     -1706.0129     -104.58645     -2682.2793    
     60000   60000          740.94486      1809.4941      47298.426      44236.196      19115.571      25120.625      8475.1458      7639.4382      6013.6764      796.45894      1343.6649      6449.9985     -5597.7576     -603.12929      116039.21      48.775485      48.775485      48.775485      1.0134766      953.63229      744.36845      3730.4815    
     60500   60500          749.34983      865.08416      45473.892      44016.775      19332.409      24684.365      8274.3166      7498.668       5945.6447      780.67923      1337.8284      6441.2916     -5594.0632     -605.97542      115494.21      48.699002      48.699002      48.699002      1.0182591      1683.2372     -911.0954       1823.1107    
     61000   61000          744.673        496.35561      44708.404      43865.054      19211.752      24653.302      8491.3494      7396.3692      5792.3689      732.07897      1409.802       6434.2474     -5602.9143     -600.72543      116503.56      48.840458      48.840458      48.840458      1.0094372      717.62899      936.49243     -165.05459    
     61500   61500          745.25405      329.49667      44177.199      43616.875      19226.743      24390.132      8143.4637      7444.3042      5846.2526      766.33636      1349.1682      6436.5501     -5595.943      -600.20918      116603.76      48.854457      48.854457      48.854457      1.0085697     -379.20496     -90.40301       1458.098     
     62000   62000          745.87775     -117.9362       43503.816      43701.125      19242.834      24458.292      8266.23        7361.5895      5969.1482      766.62382      1285.4655      6413.7947     -5604.56       -610.08462      114716.3       48.589419      48.589419      48.589419      1.0251641      676.50656     -1508.3705      478.05537    
     62500   62500          745.15506      772.23443      45075.483      43790.797      19224.189      24566.608      8260.4407      7586.8685      5859.8629      749.89935      1285.1386      6428.9608     -5604.5631     -613.54049      114070.14      48.498018      48.498018      48.498018      1.0309712      743.92471      2541.1674     -968.38881    
     63000   63000          746.86104      980.99916      45655.018      44025.954      19268.202      24757.753      8275.9461      7671.0377      6002.4773      734.06121      1250.2408      6426.7735     -5602.784      -614.64121      113865.86      48.46905       48.46905       48.46905       1.0328208      411.49684      2914.7697     -383.26907    
     63500   63500          745.94989     -197.11938      43397.215      43724.499      19244.695      24479.804      8134.0137      7547.1649      5923.8313      757.15899      1269.5235      6445.6889     -5597.577      -614.74542      113846.56      48.466311      48.466311      48.466311      1.0329959     -84.216825     -527.34945      20.208117    
     64000   64000          750.48114     -653.94305      42705.497      43790.73       19361.596      24429.134      8178.6112      7449.3154      6023.9906      781.88512      1165.7158      6430.4686     -5600.8526     -615.0465       113790.83      48.458401      48.458401      48.458401      1.0335018      769.68696      1342.1011     -4073.6172    
     64500   64500          755.93504     -478.25235      43250.506      44059.605      19502.301      24557.304      8129.5025      7574.068       5947.2906      742.69938      1328.5556      6436.5177     -5601.33       -603.31834      116002.86      48.77039       48.77039       48.77039       1.0137943     -406.31597     -265.29843     -763.14267    
     65000   65000          748.51374     -2155.6338      40593.232      44231.049      19310.839      24920.209      8441.3265      7519.0032      6108.6906      748.22184      1272.0593      6429.576      -5598.6679     -604.81883      115715.06      48.730025      48.730025      48.730025      1.0163156     -2064.7484     -3464.1144     -938.03867    
     65500   65500          748.19291     -279.15828      43623.61       44092.287      19302.562      24789.724      8406.8624      7517.6807      5879.0703      770.34083      1385.9525      6433.1797     -5603.3621     -607.95102      115118.9       48.646194      48.646194      48.646194      1.0215789     -792.78857     -1345.6031      1300.9168    
     66000   66000          750.41725     -1376.6953      41508.544      43829.575      19359.948      24469.627      8248.4057      7392.4727      6009.053       749.31602      1254.004       6423.2556     -5606.8798     -605.40764      115602.52      48.714222      48.714222      48.714222      1.0173051     -1053.4183     -1305.2683     -1771.3993    
     66500   66500          751.3518      -1906.3911      40360.541      43580.741      19384.058      24196.683      8116.879       7387.3849      5936.0092      737.66932      1164.7118      6451.9559     -5597.9274     -604.25506      115823.03      48.745175      48.745175      48.745175      1.0153683     -2928.9269     -2232.9793     -557.26715    
     67000   67000          746.64327     -856.66082      42185.721      43625.227      19262.583      24362.644      8244.8202      7336.0029      5929.5838      758.65196      1262.4639      6433.3466     -5602.2252     -607.41633      115220.23      48.660464      48.660464      48.660464      1.0206804     -820.55871     -1103.0187     -646.40505    
     67500   67500          759.8559      -891.48207      42587.896      44085.287      19603.455      24481.832      8281.6205      7518.5099      5874.7181      739.75596      1232.3104      6441.5099     -5606.593      -607.67121      115171.9       48.65366       48.65366       48.65366       1.0211087      412.68593     -2973.1279     -114.00427    
     68000   68000          742.09665      1489.2233      46597.556      44069.446      19145.285      24924.161      8455.8712      7611.6268      5811.3751      762.25426      1451.3548      6433.0588     -5601.3802     -601.2499       116401.93      48.826253      48.826253      48.826253      1.0103185      397.56705      2241.4649      1828.638     
     68500   68500          738.70053      954.10241      45416.739      43792.637      19057.669      24734.968      8375.3233      7550.1428      5815.194       717.41064      1453.0076      6423.3422     -5599.453      -599.61531      116719.25      48.870581      48.870581      48.870581      1.0075718      1739.7878      88.747761      1033.7717    
     69000   69000          749.70474     -14.720326      44043.279      44068.418      19341.566      24726.852      8397.5726      7625.6564      5798.5001      724.46196      1352.168       6432.0252     -5603.5328     -597.67818      117097.55      48.923321      48.923321      48.923321      1.0043168     -186.7685       1303.4463     -1160.8388    
     69500   69500          749.16729     -716.34964      43051.821      44274.731      19327.7        24947.031      8367.0474      7586.9634      5836.1024      763.16018      1545.3299      6448.1711     -5599.7434     -597.89067      117055.93      48.917525      48.917525      48.917525      1.0046738     -1748.6385     -337.6762      -62.734229    
     70000   70000          758.50626     -250.5322       43903.657      44330.141      19568.636      24761.506      8309.2641      7451.0994      6020.2635      771.78506      1387.2321      6423.2124     -5601.3509     -599.5868       116724.8       48.871355      48.871355      48.871355      1.0075239     -1807.1498      509.21625      546.33695    
     70500   70500          759.20577      568.38861      45364.951      44403.285      19586.682      24816.603      8246.1082      7619.2842      5956.5743      732.93153      1419.8377      6443.5107     -5601.6436     -603.27072      116012.01      48.771673      48.771673      48.771673      1.0137143      97.93004       991.33523      615.90056    
     71000   71000          748.79869     -2499.3185      39793.289      44056.412      19318.191      24738.221      8125.3845      7480.4393      6160.1571      787.46569      1338.1161      6448.3694     -5601.7112     -598.39075      116958.11      48.903894      48.903894      48.903894      1.0055141     -3393.6112     -2713.6321     -1390.7123    
     71500   71500          749.21923      465.07775      44822.134      44026.393      19329.04       24697.353      8241.1749      7620.396       5882.0659      727.99331      1378.8627      6450.2725     -5603.4123     -596.54737      117319.52      48.954215      48.954215      48.954215      1.0024166      80.246407      119.39266      1195.5942    
     72000   72000          738.99242     -675.32118      42791.291      43945.093      19065.2        24879.893      8309.5216      7706.4321      5898.868       748.03545      1371.7932      6445.8951     -5600.6524     -597.40704      117150.69      48.930722      48.930722      48.930722      1.0038611     -139.49458     -574.70183     -1311.7671    
     72500   72500          758.37311      308.24414      44745.442      44223.678      19565.2        24658.478      8077.358       7646.0796      5980.0554      759.1448       1356.3525      6442.9352     -5603.4474     -602.99309      116065.43      48.779157      48.779157      48.779157      1.0132477     -457.95874      927.86818      454.82298    
     73000   73000          751.81427      1304.7642      46497.941      44307.781      19395.99       24911.792      8473.0436      7444.1533      6037.5659      783.93503      1345.9506      6431.5991     -5604.4558     -608.06113      115098.05      48.643258      48.643258      48.643258      1.0217639      578.98958      2992.1828      343.12018    
     73500   73500          750.71559      241.85829      44389.751      43979.115      19367.645      24611.47       8312.9392      7408.4276      5960.9784      728.20285      1372.8996      6429.0933     -5601.0704     -601.16652      116418.08      48.82851       48.82851       48.82851       1.0101784     -554.07324     -862.4622       2142.1103    
     74000   74000          751.36213     -350.79419      43426.806      44021.656      19384.325      24637.331      8292.3649      7414.1127      5990.9219      742.75186      1369.5766      6430.4725     -5602.8696     -601.91647      116273.03      48.808222      48.808222      48.808222      1.0114386      529.2888       883.39802     -2465.0694    
     74500   74500          753.57574     -1459.8524      41785.515      44247.934      19441.433      24806.501      8232.188       7496.8237      6138.9288      763.77911      1350.354       6429.9311     -5605.5037     -605.11527      115658.38      48.722066      48.722066      48.722066      1.0168138     -2475.1655     -246.49699     -1657.8947    
     75000   75000          757.99398     -940.98905      42594.441      44189.155      19555.419      24633.735      8150.1431      7467.8284      6082.4688      782.35756      1308.3522      6443.3519     -5600.7665     -602.27243      116204.31      48.798605      48.798605      48.798605      1.0120368     -1996.8427      180.18083     -1006.3053    
     75500   75500          760.64711      162.99725      44609.596      44331.527      19623.867      24707.659      8160.1483      7574.8348      5967.1569      747.10255      1430.0753      6425.7662     -5597.4247     -598.29818      116976.2       48.906416      48.906416      48.906416      1.0053586     -1458.5118      953.78993      993.71365    
     76000   76000          749.28487      628.01294      45168.554      44097.523      19330.734      24766.789      8285.4812      7533.728       5957.4249      740.59936      1415.4046      6434.0427     -5599.8915     -598.49119      116938.48      48.901158      48.901158      48.901158      1.0056829      1378.8039      1292.7034     -787.46856    
     76500   76500          745.69487     -905.84033      42268.796      43793.895      19238.115      24555.779      8165.6554      7428.3195      6094.0193      768.47734      1276.0709      6428.1598     -5604.9229     -606.2403       115443.74      48.691909      48.691909      48.691909      1.0187042     -634.86691     -2726.4782      643.82417    
     77000   77000          752.94088      463.23823      44736.182      43952.102      19425.055      24527.048      8317.1554      7436.4378      5893.5984      761.15776      1280.4937      6440.5479     -5602.3434     -603.02525      116059.24      48.77829       48.77829       48.77829       1.0133018      416.43553      2408.5681     -1435.289     
     77500   77500          755.58891      818.61745      45547.446      44154.024      19493.371      24660.653      8234.9142      7483.474       5871.4072      758.35401      1483.8815      6433.4603     -5604.8382     -599.63831      116714.77      48.869956      48.869956      48.869956      1.0076105      612.37633      850.80557      992.67045    
     78000   78000          761.41746      1419.5493      46755.643      44351.855      19643.741      24708.114      8193.478       7539.4474      5932.751       742.73578      1456.9512      6442.3002     -5599.5494     -602.76137      116110.05      48.785407      48.785407      48.785407      1.0128584      1746.4474      2361.0032      151.19729    
[...]
   3225500   3225500        248.35595      586.611        17506.192      16670.281      6407.313       10262.968      3482.2538      3649.8241      2754.3388      260.5342      -639.47204      6447.4993     -5692.0106     -716.27679      97708.945      46.058675      46.058675      46.058675      1.2036056      474.87106      1835.2964     -550.33445    
   3226000   3226000        246.93827      433.24377      17346.566      16728.287      6370.7385      10357.549      3582.7597      3732.6562      2677.5679      257.16428     -662.70705      6459.716      -5689.6085     -715.21837      97853.541      46.081384      46.081384      46.081384      1.201827       2105.9697      93.789946     -900.02831    
   3226500   3226500        250.85299     -1093.2948      15067.427      16630.06       6471.7339      10158.326      3449.6452      3616.4582      2776.4137      254.2234      -701.62639      6453.7237     -5690.5119     -714.12053      98003.973      46.104986      46.104986      46.104986      1.1999823     -1341.0024     -676.51075     -1262.3711    
   3227000   3227000        248.57089      191.88714      16943.557      16669.468      6412.8583      10256.61       3480.2933      3658.3963      2729.1197      260.33174     -626.03739      6447.7844     -5693.2782     -714.57027      97942.292      46.095312      46.095312      46.095312      1.200738       951.48007      1350.1108     -1725.9295    
   3227500   3227500        256.18988     -296.62891      16375.662      16799.574      6609.4198      10190.155      3487.4953      3649.1604      2704.429       252.96825     -658.31747      6445.5785     -5691.1594     -714.21442      97991.091      46.102966      46.102966      46.102966      1.20014       -914.72409     -89.007831      113.84518    
   3228000   3228000        250.36277     -198.98354      16462.644      16747.413      6459.0869      10288.326      3439.934       3754.6042      2718.7845      258.88411     -652.08493      6457.2095     -5689.0055     -713.20757      98129.426      46.12465       46.12465       46.12465       1.1984481     -271.29773      509.23493     -834.8878     
   3228500   3228500        247.4413      -330.26442      16161.431      16634.029      6383.7159      10250.313      3464.1604      3643.3378      2753.6808      258.99688     -633.12028      6454.0729     -5690.8156     -713.28213      98119.169      46.123043      46.123043      46.123043      1.1985734     -1380.0654     -757.57972      1146.8519    
   3229000   3229000        250.28389     -762.47575      15518.173      16612.09       6457.0517      10155.038      3415.6749      3626.2262      2730.8334      258.84734     -635.88672      6451.0594     -5691.7163     -711.43111      98374.457      46.16301       46.16301       46.16301       1.1954631      640.3545      -1850.2168     -1077.5649    
   3229500   3229500        249.73189      582.7292       17409.44       16577.929      6442.8108      10135.118      3439.5028      3710.5173      2648.8085      245.31857     -666.11193      6448.6505     -5691.5674     -715.3028       97841.99       46.079571      46.079571      46.079571      1.2019689      224.58125      1132.558       391.04833    
   3230000   3230000        249.09012      208.4906       16994.756      16696.911      6426.2538      10270.658      3459.9513      3599.5988      2811.3693      258.22184     -623.78639      6453.4595     -5688.1565     -714.47536      97955.302      46.097352      46.097352      46.097352      1.2005785      966.59355     -388.95254      47.830796    
   3230500   3230500        247.75974      106.70997      16836.242      16683.497      6391.9314      10291.565      3406.4753      3714.8484      2783.132       261.81207     -646.20563      6459.862      -5688.3591     -713.06429      98149.144      46.12774       46.12774       46.12774       1.1982074      456.7982      -578.32429      441.656      
   3231000   3231000        247.71936      673.68171      17661.267      16698.034      6390.8898      10307.144      3421.4558      3716.8393      2744.4237      258.18356     -598.54769      6454.5093     -5689.7199     -713.86259      98039.386      46.110538      46.110538      46.110538      1.1995488      987.85112     -122.49977      1155.6938    
   3231500   3231500        252.9532      -621.6662       15959.496      16850.514      6525.9171      10324.597      3464.7858      3648.2381      2835.0026      271.38912     -661.61901      6455.1122     -5688.312      -712.1344       98277.305      46.147808      46.147808      46.147808      1.1966448     -1607.2599      254.3703      -512.10898    
   3232000   3232000        251.82097      1245.0735      18460.645      16693.163      6496.7067      10196.457      3440.5972      3673.7103      2710.0354      268.47451     -652.82882      6449.9508     -5693.4828     -719.00373      97338.369      46.000373      46.000373      46.000373      1.2081878      2009.821       579.54327      1145.8562    
   3232500   3232500        248.27804      694.63492      17722.655      16728.708      6405.3032      10323.405      3456.5558      3712.5679      2723.2399      264.90185     -598.66939      6456.1628     -5691.3537     -713.32044      98113.899      46.122217      46.122217      46.122217      1.1986378      100.76206      427.77383      1555.3689    
   3233000   3233000        248.61188     -355.04517      16119.935      16628.054      6413.9156      10214.138      3361.9978      3674.3354      2775.9413      261.96895     -615.67769      6445.5113     -5689.9391     -713.19761      98130.797      46.124865      46.124865      46.124865      1.1984314      355.34975      382.79826     -1803.2835    
   3233500   3233500        248.506       -774.77139      15530.586      16639.323      6411.1841      10228.139      3421.5454      3665.7937      2761.1889      269.90953     -657.22093      6454.7794     -5687.8574     -713.24085      98124.848      46.123933      46.123933      46.123933      1.1985041     -2211.8405      365.50994     -477.98361    
   3234000   3234000        250.52452      342.40388      17213.15       16726.103      6463.2599      10262.843      3462.4165      3666.2319      2764.4085      259.93257     -644.82713      6443.7763     -5689.0952     -717.56096      97534.082      46.031183      46.031183      46.031183      1.2057634      1050.9224     -882.43983      858.72905    
   3234500   3234500        250.24851      151.25143      16931.359      16714.88       6456.1389      10258.741      3434.7471      3629.5007      2798.0191      260.96116     -616.72643      6442.6185     -5690.3795     -713.13987      98138.742      46.12611       46.12611       46.12611       1.1983344     -601.26506      1172.9512     -117.93181    
   3235000   3235000        249.1868      -334.85739      16211.518      16689.981      6428.7482      10261.232      3479.1392      3638.3785      2740.6506      250.1453      -600.40061      6445.4511     -5692.1317     -714.33642      97974.355      46.100341      46.100341      46.100341      1.200345       319.35009     -112.53866     -1211.3836    
   3235500   3235500        255.15623     -35.547038      16736.355      16787.19       6582.7528      10204.437      3502.391       3669.8627      2691.6567      248.19095     -665.20933      6449.4596     -5691.9143     -713.72125      98058.801      46.113582      46.113582      46.113582      1.1993113     -735.82238      1015.4955     -386.31421    
   3236000   3236000        250.11118      90.127838      16830.014      16701.338      6452.5961      10248.742      3425.9751      3699.3192      2797.7375      256.05184     -701.69796      6460.8266     -5689.47       -714.91112      97895.596      46.087985      46.087985      46.087985      1.2013107      1165.1983     -499.47486     -395.33995    
   3236500   3236500        250.0024       971.61829      18139.169      16747.152      6449.7896      10297.363      3525.6184      3687.4989      2707.6699      265.99993     -642.48967      6445.8836     -5692.8184     -712.43001      98236.527      46.141425      46.141425      46.141425      1.1971416      637.60692      2685.2427     -407.99477    
   3237000   3237000        251.48385      934.22894      18123.036      16784.875      6488.0094      10296.866      3570.8392      3652.9229      2646.1536      262.24199     -591.38078      6446.2361     -5690.1476     -712.58394      98215.306      46.138102      46.138102      46.138102      1.1974002      457.151        1107.6114      1237.9244    
   3237500   3237500        248.22668      131.70486      16797.502      16609.805      6403.9781      10205.827      3448.8923      3666.8596      2676.5383      250.33669     -600.49276      6456.5148     -5692.8219     -716.20095      97719.292      46.060301      46.060301      46.060301      1.2034781     -662.06238      763.15417      294.02279    
   3238000   3238000        249.80767     -761.91593      15528.487      16621.719      6444.7658      10176.953      3448.9898      3604.8593      2743.3188      255.91655     -635.04521      6448.7428     -5689.8288     -711.3543       98385.08       46.164671      46.164671      46.164671      1.195334      -1811.8468      322.91669     -796.81765    
   3238500   3238500        251.63978      218.92574      17057.615      16745.196      6492.0322      10253.164      3476.6722      3595.2111      2747.036       253.09077     -572.65905      6446.2476     -5692.435      -715.23625      97851.095      46.081         46.081         46.081         1.2018571     -348.54774      336.78612      668.53885    
   3239000   3239000        248.57243      808.00292      17779.389      16620.098      6412.8979      10207.2        3535.9346      3605.8208      2622.2417      262.76171     -587.1382       6457.652      -5690.0727     -711.39625      98379.279      46.163764      46.163764      46.163764      1.1954045      1317.7429      520.40543      585.8604     
   3239500   3239500        248.65248     -1079.7254      15092.015      16636.155      6414.9633      10221.192      3441.4038      3672.8074      2740.2099      262.47928     -662.80212      6458.8341     -5691.7406     -713.70357      98061.23       46.113963      46.113963      46.113963      1.1992816     -1077.7352     -810.44241     -1350.9985    
   3240000   3240000        251.08565      301.40496      17060.497      16630.039      6477.7364      10152.303      3418.0749      3599.7692      2732.7237      253.22045     -601.13218      6443.2691     -5693.622      -714.67841      97927.472      46.092986      46.092986      46.092986      1.2009197     -91.536868      1107.4504     -111.69862    
   3240500   3240500        250.3797      -143.69909      16486.327      16691.634      6459.5236      10232.111      3462.096       3696.9921      2677.9116      256.04426     -628.51052      6458.5411     -5690.9638     -714.39984      97965.657      46.098977      46.098977      46.098977      1.2004516      1011.0777     -588.58453     -853.59048    
   3241000   3241000        252.12388     -1273.4479      14897.137      16716.711      6504.5215      10212.189      3393.5383      3639.9821      2838.2746      263.63591     -678.35428      6445.6799     -5690.5671     -714.33615      97974.391      46.100347      46.100347      46.100347      1.2003446     -860.97863     -903.54168     -2055.8234    
   3241500   3241500        253.81921     -723.28812      15882.008      16917.999      6548.2592      10369.74       3527.7245      3722.1176      2749.1457      273.21307     -663.05827      6450.8238     -5690.2262     -712.60082      98212.979      46.137738      46.137738      46.137738      1.1974286     -1160.9544     -152.11066     -856.79931    
   3242000   3242000        251.59678      369.88613      17326.396      16797.815      6490.9228      10306.892      3469.0282      3651.6319      2751.625       259.36139     -582.06775      6448.9236     -5691.6102     -714.24539      97986.842      46.102299      46.102299      46.102299      1.2001921     -151.06598      1418.7462     -158.02179    
   3242500   3242500        249.52973      535.22032      17456.19       16690.454      6437.5954      10252.859      3503.0419      3654.8964      2681.3386      253.98241     -610.8762       6459.4562     -5688.9806     -713.41944      98100.284      46.120084      46.120084      46.120084      1.1988042      1429.9834      325.84298     -150.16545    
   3243000   3243000        252.90558     -230.17731      16338.69       16668.39       6524.6886      10143.701      3450.7738      3568.3932      2705.7107      258.50825     -596.91002      6449.8774     -5692.652      -712.58232      98215.529      46.138137      46.138137      46.138137      1.1973975     -141.1014       125.35095     -674.78149    
   3243500   3243500        246.49113     -538.89375      15876.684      16645.768      6359.2026      10286.566      3444.8843      3692.1632      2770.3357      254.47976     -635.76607      6448.5786     -5688.1095     -715.188        97857.695      46.082036      46.082036      46.082036      1.201776      -323.95735     -482.97432     -809.7496     
   3244000   3244000        249.99607      402.34218      17295.313      16718.622      6449.6264      10268.996      3486.2669      3737.7654      2679.4299      252.94604     -639.07641      6443.1221     -5691.4581     -712.10406      98281.493      46.148464      46.148464      46.148464      1.1965938      333.52256      1584.984      -711.47998    
   3244500   3244500        246.35398     -866.0916       15410.79       16651.559      6355.6644      10295.894      3469.8054      3708.9388      2804.953       258.34961     -715.63714      6457.4203     -5687.9356     -712.46575      98231.598      46.140653      46.140653      46.140653      1.1972016      40.275412     -1602.0259     -1036.5243    
   3245000   3245000        250.55561     -219.55643      16419.672      16732.999      6464.0619      10268.937      3542.8846      3664.154       2696.2581      255.99882     -645.33556      6447.3885     -5692.4118     -715.22162      97853.096      46.081314      46.081314      46.081314      1.2018325     -632.62248     -446.62749      420.58069    
   3245500   3245500        255.82299      720.41285      17925.592      16894.204      6599.9546      10294.25       3604.1389      3680.1701      2598.5639      243.20458     -599.28871      6456.3795     -5688.9187     -712.93612      98166.789      46.130503      46.130503      46.130503      1.197992       1925.8271     -406.14549      641.55697    
   3246000   3246000        252.30743      378.39184      17271.356      16730.099      6509.2568      10220.842      3395.3906      3640.6791      2748.3167      256.71808     -589.57651      6458.6465     -5689.332      -713.55807      98081.225      46.117097      46.117097      46.117097      1.1990371      486.36237      94.636376      554.17678    
   3246500   3246500        251.29475      1137.5042      18321.221      16696.255      6483.1309      10213.124      3492.137       3716.0668      2617.7396      258.22576     -630.53195      6448.5503     -5689.0635     -714.49612      97952.456      46.096906      46.096906      46.096906      1.2006134      1517.7011      275.32751      1619.484     
   3247000   3247000        249.17089     -469.52348      16026.859      16696.801      6428.3375      10268.464      3489.8979      3606.9267      2796.2231      256.49882     -640.04768      6449.1682     -5690.2035     -715.33817      97837.152      46.078811      46.078811      46.078811      1.2020283     -929.00561     -282.32057     -197.24426    
   3247500   3247500        251.40029     -1418.3166      14740.223      16770.492      6485.8537      10284.638      3461.9322      3655.3541      2810.0587      249.62992     -644.03379      6440.8625     -5689.1656     -713.03496      98153.182      46.128372      46.128372      46.128372      1.1981581     -1705.7255     -1455.9251     -1093.2991    
   3248000   3248000        250.12766     -553.719        15926.012      16715.371      6453.0212      10262.35       3499.4261      3648.0458      2720.9039      250.51104     -616.56871      6450.8823     -5690.8503     -715.98828      97748.318      46.064861      46.064861      46.064861      1.2031207     -215.80467     -784.74497     -660.60736    
   3248500   3248500        251.08581     -169.63499      16583.734      16826.323      6477.7404      10348.583      3515.6371      3707.0423      2716.4155      266.17314     -621.59664      6452.2077     -5687.2964     -713.73307      98057.177      46.113328      46.113328      46.113328      1.1993312     -1014.247       142.12842      363.21364    
   3249000   3249000        252.01903      390.94971      17303.234      16744.032      6501.8166      10242.215      3559.4317      3585.4308      2740.913       256.99858     -662.1338       6454.3961     -5692.8212     -713.58083      98078.097      46.116607      46.116607      46.116607      1.1990754      466.37272      909.76988     -203.29346    
   3249500   3249500        250.92403      375.19401      17269.838      16733.736      6473.5668      10260.169      3507.4599      3679.5949      2685.5859      257.88371     -627.43623      6448.5638     -5691.4829     -714.33133      97975.053      46.10045       46.10045       46.10045       1.2003365      2099.1692     -1394.3368      420.74957    
   3250000   3250000        245.97232      1060.218       18113.709      16600.755      6345.8179      10254.937      3450.1277      3681.2472      2746.2676      265.80126     -662.81983      6462.666      -5688.3527     -715.25466      97848.575      46.080605      46.080605      46.080605      1.201888       1686.8657      270.44822      1223.3399    
Loop time of 565.445 on 1 procs for 125000 steps with 8656 atoms

Performance: 19.100 ns/day, 1.257 hours/ns, 221.065 timesteps/s, 1.914 Matom-step/s
100.0% CPU use with 1 MPI tasks x 1 OpenMP threads

MPI task timing breakdown:
Section |  min time  |  avg time  |  max time  |%varavg| %total
---------------------------------------------------------------
Pair    | 286.09     | 286.09     | 286.09     |   0.0 | 50.60
Bond    | 92.013     | 92.013     | 92.013     |   0.0 | 16.27
Kspace  | 114.71     | 114.71     | 114.71     |   0.0 | 20.29
Neigh   | 20.228     | 20.228     | 20.228     |   0.0 |  3.58
Comm    | 3.7053     | 3.7053     | 3.7053     |   0.0 |  0.66
Output  | 0.036596   | 0.036596   | 0.036596   |   0.0 |  0.01
Modify  | 34.891     | 34.891     | 34.891     |   0.0 |  6.17
Other   |            | 13.78      |            |       |  2.44

Nlocal:           8656 ave        8656 max        8656 min
Histogram: 1 0 0 0 0 0 0 0 0 0
Nghost:          20469 ave       20469 max       20469 min
Histogram: 1 0 0 0 0 0 0 0 0 0
Neighs:              0 ave           0 max           0 min
Histogram: 1 0 0 0 0 0 0 0 0 0
FullNghs:  4.87095e+06 ave 4.87095e+06 max 4.87095e+06 min
Histogram: 1 0 0 0 0 0 0 0 0 0

Total # of neighbors = 4870954
Ave neighs/atom = 562.72574
Ave special neighs/atom = 5.7689464
Neighbor list builds = 3480
Dangerous builds = 0
  unfix npt_tg
  print "STAGE COMPLETE: Tg step T=${temps}K P=1.0atm steps=500000"
STAGE COMPLETE: Tg step T=250K P=1.0atm steps=500000
  next temps
  jump SELF TEMP_LOOP

write_data tg_step_out.data
System init for write_data ...
PPPM Kokkos initialization ...
  using 12-bit tables for long-range coulomb
  G vector (1/distance) = 0.29832547
  grid = 32 32 32
  stencil order = 5
  estimated absolute RMS force accuracy = 0.00034972462
  estimated relative force accuracy = 1.0531853e-06
  using double precision cuFFT
  3d grid and FFT values/proc = 59319 32768
Generated 28 of 28 mixed pair_coeff terms from sixthpower/sixthpower mixing rule
Total wall time: 4:14:14
