LAMMPS data file via write_data, version 22 Jul 2025, timestep = 1000000, units = real

4020 atoms
6 atom types
4010 bonds
7 bond types
7600 angles
12 angle types
9570 dihedrals
14 dihedral types
4800 impropers
11 improper types

2.749774835722917 39.57468440428479 xlo xhi
2.749774835722917 39.57468440428479 ylo yhi
2.749774835722917 39.57468440428479 zlo zhi

Masses

1 12.01115
2 12.01115
3 1.00797
4 1.00797
5 32.064
6 32.064

Pair Coeffs # lj/class2/coul/long/gpu

1 0.054 4.01
2 0.054 4.01
3 0.02 2.995
4 0.02 2.995
5 0.071 4.027
6 0.071 4.027

Bond Coeffs # class2

1 1.53 299.67 -501.77 679.81
2 1.101 345 -691.89 844.6
3 1.823 225.277 -327.706 488.972
4 1.101 345 -691.89 844.6
5 1.823 225.277 -327.706 488.972
6 1.823 225.277 -327.706 488.972
7 1.3261 275.112 -531.318 562.963

Angle Coeffs # class2

1 112.67 39.516 -7.443 -9.5583
2 110.77 41.453 -10.604 5.129
3 112.564 47.0276 -10.679 -10.1687
4 112.564 47.0276 -10.679 -10.1687
5 97.5 57.6938 -5.0559 -11.8206
6 110.77 41.453 -10.604 5.129
7 112.564 47.0276 -10.679 -10.1687
8 96.8479 56.7336 14.2713 0
9 107.66 39.641 -12.921 -2.4318
10 107.852 51.4949 -13.527 7.026
11 107.852 51.4949 -13.527 7.026
12 107.852 51.4949 -13.527 7.026

BondBond Coeffs

1 0 1.53 1.53
2 3.3872 1.53 1.101
3 10.9186 1.53 1.823
4 10.9186 1.53 1.823
5 -22.3144 1.823 1.823
6 3.3872 1.53 1.101
7 10.9186 1.53 1.823
8 -0.57 1.823 1.3261
9 5.3316 1.101 1.101
10 7.0463 1.101 1.823
11 7.0463 1.101 1.823
12 7.0463 1.101 1.823

BondAngle Coeffs

1 8.016 8.016 1.53 1.53
2 20.754 11.421 1.53 1.101
3 -3.5621 22.3865 1.53 1.823
4 -3.5621 22.3865 1.53 1.823
5 -13.0015 -13.0015 1.823 1.823
6 20.754 11.421 1.53 1.101
7 -3.5621 22.3865 1.53 1.823
8 10.7325 5.1221 1.823 1.3261
9 18.103 18.103 1.101 1.101
10 9.3225 44.9874 1.101 1.823
11 9.3225 44.9874 1.101 1.823
12 9.3225 44.9874 1.101 1.823

Dihedral Coeffs # class2

1 0 0 0.0316 0 -0.1681 0
2 -0.7017 0 0.0201 0 0.104 0
3 -0.4871 0 -0.4514 0 -0.1428 0
4 -0.5073 0 0.0155 0 -0.0671 0
5 -0.3338 0 -0.0684 0 -0.1706 0
6 -0.5073 0 0.0155 0 -0.0671 0
7 -0.3338 0 -0.0684 0 -0.1706 0
8 -0.1432 0 0.0617 0 -0.1083 0
9 -0.2078 0 -0.106 0 -0.3595 0
10 -0.2078 0 -0.106 0 -0.3595 0
11 -0.2078 0 -0.106 0 -0.3595 0
12 -0.5374 0 -0.5091 0 -0.1361 0
13 -1.2002 0 -1.2999 0 -0.1626 0
14 -1.2002 0 -1.2999 0 -0.1626 0

AngleAngleTorsion Coeffs

1 -16.164 112.67 110.77
2 -26.71 112.67 112.564
3 -28.1728 112.564 96.8479
4 -32.8949 112.564 97.5
5 -26.49 97.5 107.852
6 -32.8949 112.564 97.5
7 -26.49 97.5 107.852
8 -12.564 110.77 110.77
9 -13.1026 110.77 112.564
10 -13.1026 110.77 112.564
11 -13.1026 110.77 112.564
12 -18.6334 107.852 96.8479
13 -13.9674 112.564 112.564
14 -13.9674 112.564 112.564

EndBondTorsion Coeffs

1 0.2486 0.2422 -0.0925 0.0814 0.0591 0.2219 1.53 1.101
2 -0.1586 -0.7244 -0.2608 -0.7991 -0.959 0.5855 1.53 1.823
3 0.1026 0.0936 -0.0404 -0.3008 0.0606 0.4501 1.53 1.3261
4 -0.2542 -0.7984 -0.6525 -0.3047 -0.0109 -0.3763 1.53 1.823
5 0.2592 -0.0166 0.1306 -0.41 0.0668 0.4187 1.823 1.101
6 -0.2542 -0.7984 -0.6525 -0.3047 -0.0109 -0.3763 1.53 1.823
7 0.2592 -0.0166 0.1306 -0.41 0.0668 0.4187 1.823 1.101
8 0.213 0.312 0.0777 0.213 0.312 0.0777 1.101 1.101
9 -0.1526 -0.371 0.1048 1.0661 0.3298 0.425 1.101 1.823
10 -0.1526 -0.371 0.1048 1.0661 0.3298 0.425 1.101 1.823
11 -0.1526 -0.371 0.1048 1.0661 0.3298 0.425 1.101 1.823
12 0.4376 0.2001 -1.0696 0.2902 0.0695 0.1726 1.101 1.3261
13 -0.3252 0.5008 0.5191 -0.3252 0.5008 0.5191 1.823 1.823
14 -0.3252 0.5008 0.5191 -0.3252 0.5008 0.5191 1.823 1.823

MiddleBondTorsion Coeffs

1 -14.879 -3.6581 -0.3138 1.53
2 -4.2593 -5.6468 -3.3835 1.53
3 0.502 -1.0204 -0.9177 1.823
4 -2.5172 -2.0107 -2.8547 1.823
5 -0.6955 -2.9427 -1.2372 1.823
6 -2.5172 -2.0107 -2.8547 1.823
7 -0.6955 -2.9427 -1.2372 1.823
8 -14.261 -0.5322 -0.4864 1.53
9 -5.7537 -2.0104 0.2813 1.53
10 -5.7537 -2.0104 0.2813 1.53
11 -5.7537 -2.0104 0.2813 1.53
12 -0.3729 0.5373 -0.7035 1.823
13 1.7001 -3.3479 -0.8067 1.53
14 1.7001 -3.3479 -0.8067 1.53

BondBond13 Coeffs

1 0 1.53 1.101
2 0 1.53 1.823
3 0 1.53 1.3261
4 0 1.53 1.823
5 0 1.823 1.101
6 0 1.53 1.823
7 0 1.823 1.101
8 0 1.101 1.101
9 0 1.101 1.823
10 0 1.101 1.823
11 0 1.101 1.823
12 0 1.101 1.3261
13 0 1.823 1.823
14 0 1.823 1.823

AngleTorsion Coeffs

1 -0.2454 0 -0.1136 0.3113 0.4516 -0.1988 112.67 110.77
2 -2.0927 -0.1498 -1.7848 1.1179 0.3638 0.9423 112.67 112.564
3 -0.6045 3.8941 0.8885 1.0193 -0.6016 0.2097 112.564 96.8479
4 5.1289 2.0927 -2.4004 -4.5489 0.0886 0.6237 112.564 97.5
5 -1.0888 -0.2 -0.0909 0.5962 3.3479 0.2265 97.5 107.852
6 5.1289 2.0927 -2.4004 -4.5489 0.0886 0.6237 112.564 97.5
7 -1.0888 -0.2 -0.0909 0.5962 3.3479 0.2265 97.5 107.852
8 -0.8085 0.5569 -0.2466 -0.8085 0.5569 -0.2466 110.77 110.77
9 -2.0382 0.2102 -0.9023 0.3322 -0.0519 -0.3553 110.77 112.564
10 -2.0382 0.2102 -0.9023 0.3322 -0.0519 -0.3553 110.77 112.564
11 -2.0382 0.2102 -0.9023 0.3322 -0.0519 -0.3553 110.77 112.564
12 -2.2533 2.6948 -0.1723 1.434 -0.1915 -0.2611 107.852 96.8479
13 -5.0565 -0.6355 0.6015 -5.0565 -0.6355 0.6015 112.564 112.564
14 -5.0565 -0.6355 0.6015 -5.0565 -0.6355 0.6015 112.564 112.564

Improper Coeffs # class2

1 0 0
2 0 0
3 0 0
4 0 0
5 0 0
6 0 0
7 0 0
8 0 0
9 0 0
10 0 0
11 0 0

AngleAngle Coeffs

1 0.2738 -0.4825 0.2738 110.77 110.77 107.66
2 2.7985 -3.0031 -0.0668 110.77 112.564 107.852
3 -0.3157 -0.3157 -0.3157 107.66 107.66 107.66
4 0.5086 0.5086 -0.064 107.66 107.852 107.852
5 -1.3199 -1.3199 0.1184 112.67 110.77 110.77
6 -0.2564 -0.2564 -0.8766 112.67 112.564 112.564
7 -0.2564 -0.2564 -0.8766 112.67 112.564 112.564
8 2.7985 -3.0031 -0.0668 110.77 112.564 107.852
9 2.7985 -3.0031 -0.0668 110.77 112.564 107.852
10 -0.0668 -3.0031 2.7985 112.564 110.77 107.852
11 -0.0668 -3.0031 2.7985 112.564 110.77 107.852

Atoms # full

3528 9 3 0.053 4.901891902690042 5.438161160287535 4.260761734596061 1 1 0
3527 9 1 -0.041 3.9137498228033314 5.031715569902013 4.5322450567963415 1 1 0
3530 9 2 0.012 3.7534858869451067 3.6434619700752995 3.9408709659345824 1 1 0
3526 9 6 -0.13 3.7753182304415382 4.916875246734297 6.375849691093016 1 1 0
3521 9 3 0.053 4.760074466492442 7.309418044535686 6.3865278218033925 1 1 0
3520 9 2 0.012 4.4750166683406825 6.563326241479148 7.177281307964168 1 1 0
3533 9 3 0.053 6.016918123108173 3.3191887978818166 3.9615094793332837 1 1 0
3428 9 3 0.053 2.7761633258864413 16.935792873612282 12.950335263209622 1 1 0
728 2 1 -0.159 20.321555142281458 6.157381493246118 8.986768446379731 -1 0 0
3970 10 3 0.053 16.629444231848836 9.104634405781532 3.3887654652350303 1 2 1
642 2 6 -0.13 8.52050971226786 3.7486260790829267 5.956038616486833 -1 0 0
534 2 3 0.053 19.366481552971962 2.935649366771013 18.47645685147172 -1 0 0
814 3 6 -0.13 20.191750489722097 18.87472740971902 17.087996371958603 0 -1 0
3529 9 3 0.053 3.138688704912648 5.706517706883492 4.057120941397557 1 1 0
649 2 3 0.053 9.759424962150078 6.652588549898525 6.400900661838033 -1 0 0
647 2 3 0.053 11.980712424077893 5.237297289989524 5.888687192309807 -1 0 0
646 2 2 0.012 11.080811730016844 4.91079553066707 6.55436641116932 -1 0 0
648 2 1 -0.159 10.306042876120118 6.076333426839671 7.159912754638832 -1 0 0
651 2 3 0.053 9.571495183559522 5.643702347569638 7.900110609022519 -1 0 0
652 2 6 -0.13 11.96285949826347 4.045232857518809 7.919340650541232 -1 0 0
650 2 3 0.053 10.992423828845485 6.770781858566337 7.664836012002181 -1 0 0
653 2 1 -0.041 13.707699145683817 4.684007886855091 7.833348236101429 -1 0 0
654 2 3 0.053 13.596545510218089 5.643015613768448 7.337682850883931 -1 0 0
643 2 1 -0.041 10.284362112129852 3.970259962288349 5.600033351082265 -1 0 0
645 2 3 0.053 10.269813572688319 4.696376221846503 4.722187253324307 -1 0 0
655 2 3 0.053 14.005942145645726 4.928488282498765 8.854840827332726 -1 0 0
867 3 3 0.053 13.159096035204849 7.925208338589495 8.19451098395037 0 -1 0
1759 5 1 -0.041 9.195202532890635 3.6079099258332086 13.579418338182917 1 1 0
656 2 2 0.012 14.818470470646682 3.756591117465614 7.306175039424093 -1 0 0
659 2 3 0.053 16.152774258884413 5.482014065193862 6.75778754361546 -1 0 0
861 3 3 0.053 17.67537569007517 7.015514468283796 7.634999339643973 0 -1 0
658 2 1 -0.159 16.185307163146714 4.453414446213671 7.24807451058577 -1 0 0
862 3 3 0.053 16.769038024481706 7.946557665306878 6.438946321685939 0 -1 0
661 2 3 0.053 17.09297481837956 3.9121870933041283 6.820983883925847 -1 0 0
657 2 3 0.053 14.926561394609154 2.9893690795370156 8.104839919725677 -1 0 0
660 2 3 0.053 16.549559245887966 4.718228173170756 8.212433547008356 -1 0 0
3961 10 3 0.053 17.75598117618108 6.763046152601132 3.2338235056887306 1 2 1
860 3 1 -0.159 17.445096764995586 7.982511568697841 7.241496850197021 0 -1 0
866 3 3 0.053 14.516528436724476 8.203712111517222 7.206334772339488 0 -1 0
863 3 3 0.053 18.33425651584532 8.455179370010187 6.882801264046981 0 -1 0
3965 10 3 0.053 15.055810013515675 5.45096662171259 3.413077801591183 1 2 1
3322 9 1 -0.159 2.99935639160933 17.928550788136363 2.887568527009305 1 1 0
3966 10 3 0.053 15.105258903400477 7.288670238311279 3.505100369640575 1 2 1
831 3 3 0.053 20.17996569601666 13.903228449463372 17.804505681456426 0 -1 0
847 3 3 0.053 20.182605859723367 10.72562096762551 10.585553241741831 0 -1 0
813 3 3 0.053 20.657926761789188 18.377773119330236 19.80858783706025 0 -1 0
2138 6 3 0.053 16.703250684157638 17.862982528701977 20.84264409584419 0 1 0
3483 9 3 0.053 7.009608649414703 9.11093691070294 6.928354349907441 1 1 0
3977 10 3 0.053 20.05824590067483 9.973309642803429 3.1602067790217006 1 2 1
3484 9 3 0.053 7.99813191045945 10.010240576117177 5.776707186230133 1 1 0
3485 9 3 0.053 6.2723162764155305 10.111326858106818 5.697149697203996 1 1 0
3482 9 1 -0.159 7.119139728013926 10.042340449296315 6.35654606984736 1 1 0
2879 8 3 0.053 4.838250044844063 12.68787313968481 4.301795732376895 0 -1 0
3479 9 3 0.053 6.054505488345339 13.055513686324314 6.397285709349069 1 1 0
2881 8 3 0.053 4.333640171559388 10.4227984226441 4.577275957428954 0 -1 0
3480 9 2 0.012 7.168545687545639 11.36697587960056 7.253330261618651 1 1 0
2878 8 2 0.012 3.955964360253441 12.398198783906363 3.741726620131087 0 -1 0
3477 9 1 -0.041 7.091979091170879 12.71196835453711 6.548812496764455 1 1 0
3481 9 3 0.053 8.088670137026583 11.345472126441699 7.9996642221899075 1 1 0
2885 8 1 -0.041 2.916293804407507 14.235403682719292 5.436516211104713 0 -1 0
2886 8 3 0.053 3.406841634982537 13.434558552071378 5.949696088334843 0 -1 0
2869 8 3 0.053 7.094380439387245 12.387335154745616 3.2659763847449494 0 -1 0
3486 9 6 -0.13 5.774431161214457 11.225437594067854 8.426017440165092 1 1 0
881 3 3 0.053 8.721119260951204 8.696145463305987 9.575835729550871 0 -1 0
1181 3 3 0.053 10.436514860126856 9.55283165532311 3.875172474893498 1 -1 0
877 3 3 0.053 10.891705112106404 9.300194372610044 8.70720720910601 0 -1 0
3478 9 3 0.053 7.620068563696814 12.634201638504337 5.539425617928096 1 1 0
3476 9 6 -0.13 7.813798308099859 14.151045883677527 7.4594386196378695 1 1 0
3473 9 3 0.053 9.828645896760216 12.484237384042425 5.667657307398257 1 1 0
872 3 3 0.053 12.067968988247557 9.509601477042839 6.475630274235872 0 -1 0
870 3 1 -0.159 12.92466947824785 10.146223306450032 6.565787609568009 0 -1 0
871 3 3 0.053 13.689459488074233 9.913676361675215 5.838817090725303 0 -1 0
873 3 3 0.053 12.560166160513406 11.130411006723996 6.4017657063423 0 -1 0
1182 3 3 0.053 12.131945100069329 9.814529311703314 4.1061105161886156 1 -1 0
3472 9 1 -0.159 10.324223868874057 13.147244450183706 6.401979010951557 1 1 0
3474 9 3 0.053 10.367894352093122 12.479038981951296 7.234846290684255 1 1 0
1180 3 1 -0.159 11.29042588342105 10.082950661057765 3.491191143603772 1 -1 0
3475 9 3 0.053 11.363294307869257 13.433824329141833 6.102627888005133 1 1 0
868 3 2 0.012 13.581518692637976 10.128156441093536 7.9826534830140226 0 -1 0
3975 10 3 0.053 18.47651521008623 10.041181701975487 4.09115490291841 1 2 1
855 3 1 -0.041 17.80275899275731 9.61626195307455 9.290340329998052 0 -1 0
865 3 1 -0.041 14.00139900912036 8.652145545698126 8.110882289163406 0 -1 0
859 3 3 0.053 16.547902475412222 9.911831326517678 7.702944060753017 0 -1 0
2822 8 3 0.053 16.75764233804196 12.185379772526044 7.0651587193968535 0 -1 0
858 3 2 0.012 16.748094292707208 9.024821802690141 8.299281765464698 0 -1 0
869 3 3 0.053 14.490804363556107 10.716440272151573 7.891641676340153 0 -1 0
2820 8 1 -0.159 17.2847714018829 11.954028176000737 6.1228649156678845 0 -1 0
2823 8 3 0.053 16.470264442686382 11.463137142228653 5.5216786688494155 0 -1 0
2821 8 3 0.053 18.06832420049181 11.214175277731934 6.41937773049544 0 -1 0
857 3 3 0.053 18.714016518741747 10.042030296815948 8.741791683819253 0 -1 0
2818 8 2 0.012 18.02590606001649 13.205265656394435 5.498778898657515 0 -1 0
2819 8 3 0.053 18.647293104192386 13.013532603149324 4.585551555169189 0 -1 0
2827 8 3 0.053 15.195411229474967 13.826140762223641 6.785139376711368 0 -1 0
2815 8 1 -0.159 19.05662648223326 13.848907668973593 6.487834024214075 0 -1 0
2860 8 1 -0.159 6.751757624378537 18.0585233082947 2.9984065487630946 0 -1 0
2846 8 3 0.053 13.757887138562001 16.498079220678697 2.809483822388306 0 -1 0
1626 5 3 0.053 4.518160362705774 17.215611232819644 7.693084489084487 1 0 0
3726 10 3 0.053 18.25195716606883 3.6168655117148263 21.004377700308943 1 1 0
1624 5 1 -0.159 5.147173397905499 18.127237028966782 7.539600815212884 1 0 0
1625 5 3 0.053 5.722528990623512 18.29878056567072 8.451314140556894 1 0 0
1627 5 3 0.053 5.833568424342776 17.882184382880737 6.764978364921955 1 0 0
1622 5 2 0.012 4.200213604790221 19.23014307839939 7.097468781536725 1 0 0
1619 5 1 -0.041 3.199983134427106 19.71884696815051 8.194591355542222 1 0 0
1623 5 3 0.053 3.6800026997399957 18.89108136352305 6.158083859331749 1 0 0
2887 8 3 0.053 3.679469067903958 15.048507689186705 5.528376377416922 0 -1 0
2863 8 3 0.053 6.836647811652448 18.459060327232677 4.052100614788494 0 -1 0
2143 6 3 0.053 14.283944320765391 20.20912163273778 20.442465917509246 0 1 0
3325 9 3 0.053 3.4293560696764978 18.36927114587694 3.855546014312712 1 1 0
2844 8 6 -0.13 12.546467033951002 18.578572877008995 2.9979838012667064 0 -1 0
3470 9 2 0.012 9.470458540584033 14.462440360912666 6.6023980236767805 1 1 0
2849 8 3 0.053 11.414422133862235 15.96609485286304 3.69924821569236 0 -1 0
3471 9 3 0.053 9.245898865536766 14.752654004533483 5.625579157906158 1 1 0
3466 9 6 -0.13 9.437635476958576 17.397080810470435 7.327950562602528 1 1 0
3467 9 1 -0.041 10.163187258730742 15.664552811773902 7.2801355467689755 1 1 0
3468 9 3 0.053 11.10808944185043 15.867234028628916 6.736715073469798 1 1 0
2839 8 3 0.053 11.374374428502854 17.79577411264045 5.0856131692702204 0 -1 0
2838 8 2 0.012 12.178833611651427 18.534654509621014 4.832363080859746 0 -1 0
2836 8 3 0.053 13.406778146292442 18.55573365765592 6.685012136024821 0 -1 0
3465 9 3 0.053 10.742607419720088 19.63485307324488 8.469655464073913 1 1 0
3469 9 3 0.053 10.471635473404495 15.450706477383365 8.28209142055616 1 1 0
2840 8 1 -0.159 11.8129548951483 20.002932012275483 5.207260928050243 0 -1 0
2843 8 3 0.053 11.487445779930352 20.057682958698432 6.335637198029628 0 -1 0
2857 8 3 0.053 9.492098418407704 17.66560421637499 3.4087347755030732 0 -1 0
3964 10 1 -0.159 15.00270831973483 6.402307579626158 2.817315068470542 1 2 1
2835 8 1 -0.041 13.428289505967406 18.17507032106078 5.601934266532123 0 -1 0
2834 8 6 -0.13 13.612516514588616 16.28369622326924 5.552693891867925 0 -1 0
2833 8 3 0.053 14.193032380406116 17.181585249211246 8.427330759090786 0 -1 0
2832 8 3 0.053 13.672548130547694 15.570348986059091 8.296188842892395 0 -1 0
2830 8 1 -0.159 14.532790915411589 16.168006026356515 8.164608135391145 0 -1 0
2824 8 6 -0.13 16.82678057370493 14.54274716801932 5.034915874567648 0 -1 0
2826 8 3 0.053 16.576296960484044 14.746558356373784 7.420193184558266 0 -1 0
2825 8 1 -0.041 15.800158893118219 14.715964633826875 6.606424708273094 0 -1 0
2837 8 3 0.053 14.418198798791247 18.561678047871155 5.1913392107015985 0 -1 0
2828 8 2 0.012 14.97933042773463 16.047551864571247 6.692440684450813 0 -1 0
2829 8 3 0.053 15.754073430255431 16.849568588908674 6.531346532286609 0 -1 0
2893 8 3 0.053 2.7932645445808753 15.911196877339671 7.79575197627255 0 -1 0
2831 8 3 0.053 15.365029294374601 15.896036195800054 8.847791789693236 0 -1 0
1006 3 3 0.053 19.463216276286165 18.02761304807749 7.475281631657502 0 -1 0
644 2 3 0.053 10.832233353019456 3.104246220735865 5.190106712927111 -1 0 0
3215 8 3 0.053 18.682684469230722 14.11901793964881 7.429152224051162 0 -1 0
998 3 2 0.012 20.91514960816316 20.29019383589831 6.581015232810747 0 -1 0
999 3 3 0.053 20.326364792204785 19.520318542737186 6.008284663307434 0 -1 0
3974 10 1 -0.159 19.025575704602932 10.128631317537199 3.097141138635745 1 2 1
2880 8 1 -0.159 3.4685785237295916 11.08606165119757 4.324870229126459 0 -1 0
846 3 3 0.053 20.30416302769348 11.812706668554677 11.986868149343547 0 -1 0
1628 5 6 -0.13 5.238611427863885 20.716505374330676 6.419124235403952 1 0 0
2842 8 3 0.053 12.66889832132117 20.696437923285504 5.161787102784144 0 -1 0
2841 8 3 0.053 10.967056188578432 20.424595312124666 4.601682989368541 0 -1 0
1641 5 3 0.053 7.9846637289865905 20.788845896757884 4.14828882925669 1 0 0
662 2 6 -0.13 14.348621336617349 2.9148381897481963 5.733896669406198 -1 0 0
992 3 3 0.053 15.857474173744453 20.70851137324591 6.585054902008425 0 -1 0
2864 8 6 -0.13 7.544805867102616 15.396107472581045 3.709381527228938 0 -1 0
738 2 1 -0.159 20.686627723216375 6.07188176705664 14.398296975314322 -1 0 0
3517 9 1 -0.041 3.371898837914161 7.228010301150785 7.974736501380803 1 1 0
3519 9 3 0.053 3.647137536321237 7.579763006893905 8.950503627983034 1 1 0
103 1 3 0.053 8.806580760228375 13.056879654550604 20.88557759114343 0 1 0
3523 9 3 0.053 6.671774124457124 6.045647579670338 7.234668721540391 1 1 0
3522 9 1 -0.159 5.8359861816586065 6.27062161163213 7.907445865162137 1 1 0
3525 9 3 0.053 6.216396940473935 7.131285442964533 8.537197311767624 1 1 0
3524 9 3 0.053 5.7868473387930965 5.379167157608257 8.60091278779926 1 1 0
1768 5 6 -0.13 7.180957860974018 5.350852970504878 12.80154310729854 1 1 0
1773 5 3 0.053 4.721519944255414 6.340823911478694 11.941509760701996 1 1 0
1771 5 3 0.053 5.2117018252609935 4.946471543974583 14.089930084038151 1 1 0
1769 5 1 -0.041 5.748369460237468 5.89130821898565 13.826113476415825 1 1 0
1763 5 3 0.053 7.7596100238504295 4.450613113062979 15.00134738655873 1 1 0
1202 3 3 0.053 5.8308682494002015 7.788775547747792 3.2634994601204337 1 -1 0
1905 5 3 0.053 20.002706236925217 17.337916483292336 3.2271696852448435 0 1 0
1770 5 3 0.053 6.122415606246175 6.506204304712912 14.730774795597013 1 1 0
1762 5 2 0.012 7.793140601120516 4.066202579993962 13.954195838203056 1 1 0
93 1 3 0.053 13.354664949439421 14.58047653134158 20.894673668297937 0 1 0
2816 8 3 0.053 19.51688219402018 14.766647167001267 6.078360721981207 0 -1 0
1754 5 1 -0.159 12.827300968495877 4.557666559677807 12.387071050949931 1 1 0
880 3 1 -0.159 9.113065161223417 8.77903471878561 10.60857583740998 0 -1 0
883 3 3 0.053 9.536885351002562 7.838634777254739 10.9271238692217 0 -1 0
886 3 3 0.053 11.438904103681605 7.906023576172685 12.243270880713157 0 -1 0
1755 5 3 0.053 13.256778499796027 5.562346737327338 12.729619565120588 1 1 0
1757 5 3 0.053 12.213554350651314 4.801503448370717 11.349715501361956 1 1 0
1758 5 6 -0.13 10.454291105395313 4.851046548281273 13.78711849410386 1 1 0
1752 5 2 0.012 12.022988110954412 3.893000372443895 13.46515567773164 1 1 0
876 3 3 0.053 11.88740316611761 8.65069688912424 10.129841435092892 0 -1 0
1745 5 3 0.053 13.457815131685287 3.7485583524618824 18.16360660069978 1 1 0
887 3 3 0.053 10.347093087342149 8.223651181499921 13.487072874715507 0 -1 0
1749 5 1 -0.041 12.803785141524774 3.9479610002030423 14.803527527874527 1 1 0
864 3 6 -0.13 15.371655867001712 8.363913117776054 9.246778227024336 0 -1 0
2137 6 3 0.053 16.232337231762777 16.20673197144272 20.630017526843726 0 1 0
529 2 3 0.053 17.39133605809343 5.472843589958048 14.394504587419863 -1 0 0
687 2 3 0.053 17.22770242320085 3.405063960763126 11.409772343883432 -1 0 0
531 2 3 0.053 16.107803062463425 4.213930325827976 14.903201686446396 -1 0 0
528 2 1 -0.159 16.596302973213454 5.191774899469756 15.147892629453553 -1 0 0
530 2 3 0.053 15.817335992706699 6.003298665995924 15.286973940831531 -1 0 0
730 2 3 0.053 19.876429558658458 5.315156161868865 9.561159339093976 -1 0 0
882 3 3 0.053 8.241994184655292 8.945257298606926 11.27833881267321 0 -1 0
3489 9 3 0.053 6.798520894169197 12.976708933000863 9.668027830667512 1 1 0
3491 9 3 0.053 5.18956906848482 10.71717690492515 11.067760669505608 1 1 0
3490 9 2 0.012 5.649523143589073 11.754266568133172 11.15510506321842 1 1 0
3497 9 1 -0.041 2.9301904551104614 12.091302688232775 12.005866274790328 1 1 0
3494 9 3 0.053 5.814424521735971 11.425992943559558 13.298417197070396 1 1 0
3496 9 6 -0.13 4.230835926426224 12.914425147727998 10.95229802860587 1 1 0
3499 9 3 0.053 3.468989161876732 11.424525841059896 12.813770843668298 1 1 0
3492 9 1 -0.159 6.4114318864662145 11.796870435127913 12.464240872203558 1 1 0
3487 9 1 -0.041 6.598510227159851 11.935555252886273 9.913119981420152 1 1 0
3488 9 3 0.053 7.545921415118151 11.410837200953312 10.111255199957807 1 1 0
3495 9 3 0.053 7.315435049087473 11.25496835269446 12.265031118189901 1 1 0
3493 9 3 0.053 6.7466152269091495 12.793702820453413 12.719882982871773 1 1 0
147 1 3 0.053 9.268378734862868 19.785870434577085 20.706616775089998 0 1 0
891 3 3 0.053 13.703135759177623 8.429882818895084 12.369888174392797 0 -1 0
875 3 1 -0.041 11.386477479617632 9.553123822886427 9.709115920362581 0 -1 0
885 3 1 -0.041 11.298851769588778 8.65559277975633 13.048937809129228 0 -1 0
878 3 2 0.012 10.230644818734506 9.867035670705352 10.620478653199388 0 -1 0
879 3 3 0.053 9.85717815326235 10.815522116351733 10.24615787698899 0 -1 0
888 3 2 0.012 12.491894015864581 8.9778628329702 13.961692789003493 0 -1 0
884 3 6 -0.13 10.70231436701407 10.233307763889826 12.30078181206462 0 -1 0
3454 9 3 0.053 9.290909131280227 13.102164322128285 11.388850600752699 1 1 0
890 3 1 -0.159 13.745030275245785 9.169149049760389 13.136254878277434 0 -1 0
3455 9 3 0.053 10.978460202909877 13.501070975292144 11.601423600499421 1 1 0
3452 9 1 -0.159 10.055360254398273 13.792563059553755 11.04753169124278 1 1 0
3453 9 3 0.053 10.137874471358256 13.576309433040322 9.948699481813104 1 1 0
889 3 3 0.053 12.134239306506984 9.94864437210439 14.561552274518121 0 -1 0
893 3 3 0.053 13.688975312775275 10.092040698173193 12.529602194516732 0 -1 0
874 3 6 -0.13 12.58651525939621 10.855134172346578 9.29570173048894 0 -1 0
892 3 3 0.053 14.747831377256343 9.186991372667613 13.681962038697415 0 -1 0
919 3 3 0.053 12.979170982796571 14.593600159362888 11.70507893141972 0 -1 0
3448 9 3 0.053 10.610390216359717 14.786586029791597 13.269623789407436 1 1 0
856 3 3 0.053 18.187017820155276 8.818854234323098 9.926334390917631 0 -1 0
839 3 3 0.053 19.303716181856096 8.683236729048478 14.758645258083353 0 -1 0
841 3 3 0.053 17.615751316665083 8.303338052975878 13.38668265217922 0 -1 0
840 3 1 -0.159 17.484386811707253 9.31920202341953 13.901928462849938 0 -1 0
843 3 3 0.053 16.849498432843824 9.164923219051872 14.791525881921686 0 -1 0
917 3 3 0.053 13.061238184695517 12.381551133215499 12.793573049963586 0 -1 0
854 3 6 -0.13 17.0046510294923 10.838669858303094 10.297278691184697 0 -1 0
849 3 3 0.053 17.827879704044584 11.858063239785405 12.16227996139247 0 -1 0
842 3 3 0.053 16.953811415464898 10.08570174853532 13.26783369636696 0 -1 0
922 3 3 0.053 14.009124507543328 12.328404660677041 11.13571490955577 0 -1 0
838 3 2 0.012 18.97768976712977 9.621961202600758 14.186146228071896 0 -1 0
915 3 1 -0.041 13.63989749637897 13.24744427950496 13.32068875651836 0 -1 0
920 3 1 -0.159 14.577433190068453 13.247237152628276 11.165202691423913 0 -1 0
921 3 3 0.053 15.610930337335393 12.976183469454728 11.399940869831749 0 -1 0
834 3 6 -0.13 18.553206796102824 12.406808508306762 14.691733155242893 0 -1 0
835 3 1 -0.041 19.367155607056077 10.811879691857008 15.095844202821716 0 -1 0
853 3 3 0.053 17.747080307064415 13.83534519466749 10.568474353738937 0 -1 0
848 3 2 0.012 18.3005915166071 11.706596376350697 11.205228616257058 0 -1 0
923 3 3 0.053 14.720500829756508 13.648116215159254 10.171664461688561 0 -1 0
844 3 6 -0.13 19.886569328432884 9.531387420296134 12.55992675596318 0 -1 0
845 3 1 -0.041 19.665309481958626 11.020380811396938 11.5573691813697 0 -1 0
836 3 3 0.053 20.500461297380845 10.973476651412364 15.010295049276225 0 -1 0
918 3 2 0.012 13.974824222899155 14.228895197401894 12.149184578104249 0 -1 0
916 3 3 0.053 14.550271457325854 12.690133229763665 13.689701597912192 0 -1 0
829 3 3 0.053 20.696892819140896 13.354193357609049 15.19960026436719 0 -1 0
2862 8 3 0.053 5.688877505107325 17.884043915457262 2.7827268605594777 0 -1 0
850 3 1 -0.159 18.601087324748292 13.139271587798344 10.606759185048535 0 -1 0
852 3 3 0.053 18.950676987119316 13.029501060501708 9.602989024300523 0 -1 0
3421 9 3 0.053 4.629617319587966 19.830346282928495 13.868715730264876 1 1 0
3960 10 3 0.053 17.210535738590895 5.1415935375932165 3.1095694955749655 1 2 1
1621 5 3 0.053 3.819347451761355 20.115053476343753 9.05086929067872 1 0 0
3434 9 3 0.053 5.499951960852027 16.572076857799267 10.295733200207579 1 1 0
3435 9 3 0.053 3.777527695546155 16.407557157081783 10.65548471919648 1 1 0
3433 9 3 0.053 4.492019143252319 18.02114621135362 10.4784587478994 1 1 0
3432 9 1 -0.159 4.68103608886552 17.00015320352312 10.893770985137929 1 1 0
1765 5 3 0.053 5.923025158038813 2.8389813746187036 14.393589522455203 1 1 0
3427 9 1 -0.041 3.6694456893325818 17.62411320210296 13.125180787976689 1 1 0
3430 9 2 0.012 4.924251472321907 17.050888811261736 12.48906527399084 1 1 0
3436 9 6 -0.13 6.542077493998605 18.087765951702373 12.834758042133389 1 1 0
3431 9 3 0.053 5.221846821404039 15.9749212155634 12.77768069934612 1 1 0
3458 9 3 0.053 7.512725405397487 17.726375397935186 9.59732649076664 1 1 0
3456 9 6 -0.13 8.261363821225782 15.71606130860079 10.45229412134923 1 1 0
3438 9 3 0.053 6.973934846808114 15.956759675681301 13.98935638876384 1 1 0
3437 9 1 -0.041 7.104293030303165 17.074910746300986 14.239217065502611 1 1 0
3328 9 3 0.053 4.182757435311336 20.96693714380408 3.0560031552269358 1 1 0
3464 9 3 0.053 9.10680886328474 19.869329123904844 8.533503350617838 1 1 0
3462 9 1 -0.159 9.91430220139313 19.33810187039134 9.078327310077457 1 1 0
3449 9 3 0.053 8.786537990707014 15.065046557359098 13.31456264699484 1 1 0
3457 9 1 -0.041 8.50246047872963 17.445876282915037 9.994952655979201 1 1 0
3460 9 2 0.012 9.672480154741196 17.808929914878554 9.05547791962309 1 1 0
3461 9 3 0.053 10.666032064895731 17.415047622576665 9.336831366838657 1 1 0
3459 9 3 0.053 8.610111841033518 17.978947054641747 10.954736748307853 1 1 0
3463 9 3 0.053 10.09694418263205 19.808161289823175 10.045418073353886 1 1 0
3450 9 2 0.012 9.787734599072262 15.2737205560748 11.362060946338934 1 1 0
3447 9 1 -0.041 9.745925091054854 15.415140993503977 12.879123804697802 1 1 0
3451 9 3 0.053 10.65210621171537 15.75515544733576 10.909699373824335 1 1 0
931 3 3 0.053 11.898168592654402 19.1446690884492 12.241329311772226 0 -1 0
927 3 3 0.053 13.415646504221868 16.659488676880933 10.719709372569469 0 -1 0
932 3 3 0.053 12.43912177170028 19.209407925710938 10.544837912163722 0 -1 0
930 3 1 -0.159 12.793618779064017 19.345571296583085 11.607601682976785 0 -1 0
926 3 3 0.053 12.747445521682245 16.809664181168632 12.445562233628069 0 -1 0
925 3 1 -0.041 13.615047522451443 16.98334594137063 11.786050404952118 0 -1 0
3446 9 6 -0.13 9.957019555447289 17.15795017831607 13.478621893115168 1 1 0
928 3 2 0.012 14.037365473793622 18.4835561126656 11.843030081309644 0 -1 0
934 3 6 -0.13 15.216496527986166 18.982251704517058 10.479902571778378 0 -1 0
933 3 3 0.053 13.050860161687725 20.405392478781994 11.697878912321265 0 -1 0
929 3 3 0.053 14.5711333351672 18.757731757584224 12.736351674806908 0 -1 0
1012 3 3 0.053 18.083566816678314 16.53271596049926 8.122481836541144 0 -1 0
1013 3 3 0.053 17.47851274567079 17.646320426614324 9.218059461266321 0 -1 0
924 3 6 -0.13 14.93336742948427 15.869741081805543 12.437222692108584 0 -1 0
1010 3 1 -0.159 18.265369307548454 16.87631771978954 9.149902581185145 0 -1 0
936 3 3 0.053 17.115688314429402 18.942679640579012 12.135401708439229 0 -1 0
1011 3 3 0.053 17.88525587537731 16.12913904896195 9.890961678275819 0 -1 0
1007 3 3 0.053 18.999831232490642 19.322456753437887 8.663539272970976 0 -1 0
1005 3 1 -0.041 19.752838286290597 18.592851655398135 8.355174302625228 0 -1 0
1008 3 2 0.012 19.648090152130383 17.455260142670465 9.322898443716294 0 -1 0
935 3 1 -0.041 16.61796799103289 19.6947985366739 11.460878893790131 0 -1 0
937 3 3 0.053 17.376077331071514 19.783057808265855 10.687222257048182 0 -1 0
823 3 3 0.053 16.599046274452895 16.980460792437857 13.932367295324392 0 -1 0
941 3 3 0.053 18.120835489466362 20.618878944206337 13.23124583228323 0 -1 0
826 3 3 0.053 19.13472779402126 15.159959760634123 14.22657360089671 0 -1 0
1014 3 6 -0.13 19.895953439522366 17.677695931224438 11.187334371796215 0 -1 0
1009 3 3 0.053 20.42110116903046 16.69596479855148 9.025324861795294 0 -1 0
1756 5 3 0.053 13.613885919523801 3.9318980603409766 12.235133121419375 1 1 0
729 2 3 0.053 20.002517420678885 6.1213946454786345 7.911986860577742 -1 0 0
3420 9 2 0.012 4.001009921754452 19.679924879394243 14.772371092894963 1 1 0
96 1 1 -0.159 11.502741265297754 13.770868432177455 19.405461750348 0 1 0
939 3 3 0.053 15.715568352374072 20.855672289235507 13.055448797804447 0 -1 0
938 3 2 0.012 16.355475147629164 21.012998101494183 12.175529223055829 0 -1 0
99 1 3 0.053 10.523892466204387 13.611080309048894 18.841731532024188 0 1 0
2720 7 3 0.053 4.0295147830119165 2.987922643421264 18.74491361726104 0 1 0
1772 5 2 0.012 4.796102709684137 6.740727735256462 12.998489941913537 1 1 0
1777 5 3 0.053 5.834242229152789 8.480942594516085 12.251151633222298 1 1 0