LAMMPS data file via write_data, version 22 Jul 2025, timestep = 2000000, units = real

8720 atoms
7 atom types
9480 bonds
7 bond types
15104 angles
9 angle types
22512 dihedrals
13 dihedral types
4864 impropers
5 improper types

5.124083914424226 51.931444635569186 xlo xhi
5.124083914424226 51.931444635569186 ylo yhi
5.124083914424226 51.931444635569186 zlo zhi

Masses

1 12.01115
2 12.01115
3 1.00797
4 1.00797
5 15.9994
6 15.9994
7 15.9994

Pair Coeffs # lj/class2/coul/long/kk

1 0.12 3.308
2 0.064 4.01
3 0.02 2.995
4 0.013 1.098
5 0.267 3.3
6 0.24 3.535
7 0.24 3.535

Bond Coeffs # class2/kk

1 1.489 339.357 -655.724 670.236
2 1.216 823.795 -1878.79 2303.53
3 1.417 470.836 -627.618 1327.63
4 1.0982 372.825 -803.453 894.317
5 1.3768 428.88 -738.235 1114.97
6 1.3768 428.88 -738.235 1114.97
7 0.965 532.506 -1282.9 2004.77

Angle Coeffs # class2/kk

1 108.4 43.9594 -8.3924 -9.3379
2 110.588 34.6214 -7.0939 -7.4032
3 119.3 65.1016 -17.9766 0
4 118.9 61.0226 -34.9931 0
5 117.94 35.1558 -12.4682 0
6 123.42 73.6781 -21.6787 0
7 123.42 73.6781 -21.6787 0
8 109.5 60 0 0
9 108.19 53.125 -8.5016 0

BondBond Coeffs

1 0 1.489 1.417
2 0 1.489 1.489
3 0 1.489 1.216
4 68.2856 1.417 1.417
5 1.0795 1.417 1.0982
6 48.4754 1.417 1.3768
7 48.4754 1.417 1.3768
8 0 1.3768 1.3768
9 20.6577 1.3768 0.965

BondAngle Coeffs

1 0 0 1.489 1.417
2 0 0 1.489 1.489
3 0 0 1.489 1.216
4 28.8708 28.8708 1.417 1.417
5 20.0033 24.2183 1.417 1.0982
6 58.479 107.681 1.417 1.3768
7 58.479 107.681 1.417 1.3768
8 0 0 1.3768 1.3768
9 53.8614 23.9224 1.3768 0.965

Dihedral Coeffs # class2/kk

1 0 0 4.6282 0 0 0
2 0 0 2.167 0 0 0
3 0 0 2.5 0 0 0
4 0 0 0.9063 0 0 0
5 8.3667 0 1.1932 0 0 0
6 0 0 3.9661 0 0 0
7 0 0 4.8498 0 0 0
8 0 0 4.8498 0 0 0
9 0 0 1.8 0 0 0
10 -0.69 0 0.5097 0 0.0095 0
11 0 0 1.8769 0 0 0
12 0 0 1.7234 0 0 0
13 0 0 1.7234 0 0 0

AngleAngleTorsion Coeffs

1 0 108.4 118.9
2 0 108.4 117.94
3 0 110.588 108.4
4 0 108.4 119.3
5 0 118.9 118.9
6 -4.8141 118.9 117.94
7 -21.0247 118.9 123.42
8 -21.0247 118.9 123.42
9 0 123.42 109.5
10 -4.6072 123.42 108.19
11 0.3598 117.94 117.94
12 4.2296 117.94 123.42
13 4.2296 117.94 123.42

EndBondTorsion Coeffs

1 0 0 0 0 0 0 1.489 1.417
2 0 0 0 0 0 0 1.489 1.0982
3 0 0 0 0 0 0 1.489 1.417
4 0 0 0 0 0 0 1.417 1.216
5 -0.1185 6.3204 0 -0.1185 6.3204 0 1.417 1.417
6 0 -6.8958 0 0 -0.4669 0 1.417 1.0982
7 0 0.2655 0 0 4.8905 0 1.417 1.3768
8 0 0.2655 0 0 4.8905 0 1.417 1.3768
9 0 0 0 0 0 0 1.417 1.3768
10 0.9 -1.3456 1.19 3.4132 0.5873 -0.1323 1.417 0.965
11 0 -0.689 0 0 -0.689 0 1.0982 1.0982
12 0 -1.5867 0 0 4.2641 0 1.0982 1.3768
13 0 -1.5867 0 0 4.2641 0 1.0982 1.3768

MiddleBondTorsion Coeffs

1 0 0 0 1.417
2 0 0 0 1.417
3 0 0 0 1.489
4 0 0 0 1.489
5 27.5989 -2.312 0 1.417
6 0 -1.1521 0 1.417
7 0 4.8255 0 1.417
8 0 4.8255 0 1.417
9 0 0 0 1.3768
10 1.158 3.2697 3.5132 1.3768
11 0 4.8228 0 1.417
12 0 5.5432 0 1.417
13 0 5.5432 0 1.417

BondBond13 Coeffs

1 0 1.489 1.417
2 0 1.489 1.0982
3 0 1.489 1.417
4 0 1.417 1.216
5 53 1.417 1.417
6 -6.2741 1.417 1.0982
7 -2.2436 1.417 1.3768
8 -2.2436 1.417 1.3768
9 0 1.417 1.3768
10 1.159 1.417 0.965
11 -1.7077 1.0982 1.0982
12 2.0517 1.0982 1.3768
13 2.0517 1.0982 1.3768

AngleTorsion Coeffs

1 0 0 0 0 0 0 108.4 118.9
2 0 0 0 0 0 0 108.4 117.94
3 0 0 0 0 0 0 110.588 108.4
4 0 0 0 0 0 0 108.4 119.3
5 1.9767 1.0239 0 1.9767 1.0239 0 118.9 118.9
6 0 2.5014 0 0 2.7147 0 118.9 117.94
7 0 10.0155 0 0 1.7404 0 118.9 123.42
8 0 10.0155 0 0 1.7404 0 118.9 123.42
9 0 0 0 0 0 0 123.42 109.5
10 -5.136 -1.0122 0 4.6852 0.023 -0.598 123.42 108.19
11 0 2.4501 0 0 2.4501 0 117.94 117.94
12 0 1.8729 0 0 2.5706 0 117.94 123.42
13 0 1.8729 0 0 2.5706 0 117.94 123.42

Improper Coeffs # class2/kk

1 38.7949 0
2 0 0
3 4.8912 0
4 13.0421 0
5 13.0421 0

AngleAngle Coeffs

1 0 0 0 110.588 119.3 119.3
2 0 0 0 108.4 108.4 118.9
3 0 0 0 118.9 117.94 117.94
4 0 0 0 118.9 123.42 123.42
5 0 0 0 118.9 123.42 123.42

Atoms # full/kk

7278 7 3 0.1268 8.576407824677961 6.993519939243545 11.388906386570575 1 1 0
7289 7 6 -0.053 7.638022259132084 9.394109868930716 10.919164567323957 1 1 0
2234 3 2 -0.1268 10.375334874758227 9.654174709234667 8.166571686136765 1 1 0
1969 2 2 -0.1268 5.946499436071434 5.591423390510552 7.210917573719565 1 0 1
1967 2 2 -0.1268 5.722120922143111 6.949238871880926 7.231463353181809 1 0 1
2227 3 3 0.1268 9.344789734599303 6.333721435169742 8.972495671813855 1 1 0
1968 2 3 0.1268 6.618639393491627 7.528611104389183 7.4380631995809905 1 0 1
2226 3 2 -0.1268 10.030027410991691 5.493386275001836 8.997779111193578 1 1 0
2232 3 2 -0.1268 10.643338655852356 8.332299945134874 8.087494551763827 1 1 0
1970 2 3 0.1268 6.958616047949594 5.208168341551933 7.504518961636725 1 0 1
2231 3 2 0 10.760908110319143 7.722149914865666 6.831734427904606 1 1 0
2233 3 3 0.1268 10.940223267229982 7.887286366845487 9.017367977395029 1 1 0
2228 3 2 0 11.082903227723115 5.350582017588569 8.037170347571923 1 1 0
2229 3 1 0.3964 11.230986922036312 6.294656531594787 6.815185147919128 1 1 0
1956 2 5 -0.3964 5.130130627412729 9.777213819496936 7.456844807064569 1 0 1
8062 8 3 0.1268 15.870449375679339 10.582062968813617 6.263402506878311 0 1 0
3854 4 3 0.1268 14.066714445028023 10.752094957376098 10.030018911430961 1 0 0
8103 8 2 -0.1268 14.759928205274136 6.987520961889525 51.90161409424847 0 1 -1
3855 4 2 0.0265 12.293723298520119 10.40212799909629 11.182972193829823 1 0 0
8104 8 3 0.1268 14.82733930057501 5.9784735627066805 5.435301556007932 0 1 0
8074 8 2 0.0265 13.91577648796975 9.274013901071203 5.488514056711659 0 1 0
8073 8 6 -0.053 13.237879130160739 10.140263222985904 6.215924183574084 0 1 0
3851 4 2 -0.1268 13.858369049565693 8.708514884409977 10.457393447410892 1 0 0
3853 4 2 -0.1268 13.472531477786427 10.020341601717067 10.546221276576984 1 0 0
2242 3 3 0.1268 12.611850842718162 50.70426573591261 7.307009000728665 1 0 0
8106 8 3 0.1268 13.617347081519542 7.670984731022498 6.900288557336389 0 1 0
8105 8 2 -0.1268 14.092323006602646 7.941397774487271 5.908122027767008 0 1 0
3852 4 3 0.1268 14.731991451308113 8.472464304977185 9.86837697295169 1 0 0
6544 7 3 0.1268 16.659957637847803 9.499086172396712 11.170149334392399 0 0 0
6550 7 2 -0.1268 21.417371655475854 8.48550532491951 11.480982039043075 0 0 0
6543 7 2 -0.1268 17.500807297791425 9.934986045995092 10.74218265614967 0 0 0
7547 7 3 0.1268 17.30077995361253 7.372474197815231 7.33796203414427 1 1 1
6546 7 3 0.1268 18.483114210367752 8.06493858512303 10.293937592934643 0 0 0
7544 7 2 -0.1268 18.272005808123005 7.975033663130587 5.585022192062354 1 1 1
6545 7 2 -0.1268 18.544045782191624 9.186567709134952 10.273048272812906 0 0 0
7549 7 2 -0.1268 20.289520142871783 6.109786731542189 6.304105307386376 1 1 1
7546 7 2 -0.1268 18.217226688411028 7.2446319651229985 6.747602223946424 1 1 1
7548 7 2 0.0265 19.129100812693217 6.347115435202679 7.149276263845129 1 1 1
6548 7 6 -0.053 20.639053577802844 8.992970446920864 9.150365334409488 0 0 0
7550 7 3 0.1268 21.210420862588172 5.467467062314933 6.616803034988829 1 1 1
6547 7 2 0.0265 19.569276697967673 9.712658894898233 9.508207764516557 0 0 0
7561 7 6 -0.053 18.99925801834098 5.656210391138421 8.360528384664985 1 1 1
6549 7 2 0.0265 21.492121074486285 8.356906712007586 10.072818990530104 0 0 0
4102 4 5 -0.3964 22.874655244110095 9.18739959226581 5.891553724585028 1 0 0
6569 7 2 -0.1268 22.579172019145446 7.584338353487558 9.613799144963762 0 0 0
6570 7 3 0.1268 22.578645369523365 7.3676584021094556 8.51909246089499 0 0 0
1653 2 3 0.1268 26.846324673914967 7.055134014331588 6.471076971257239 0 0 1
6567 7 2 -0.1268 23.42326599648707 6.845206071042396 10.415469205109105 0 0 0
4110 4 3 0.1268 26.367571786414736 9.4442068032511 9.549638443484275 1 0 0
4109 4 2 -0.1268 26.346507167119025 9.673133655922703 8.412247156878392 1 0 0
4111 4 2 -0.1268 25.111828013777792 9.698624189840839 7.749330991037309 1 0 0
1650 2 5 -0.3964 25.88147219071816 5.150414047746089 7.7327804559948 0 0 1
4112 4 3 0.1268 24.208211706984965 9.501281735945962 8.270787262939725 1 0 0
4108 4 2 0.0265 27.51974321422363 10.069634865345881 7.679710730988713 1 0 0
1652 2 2 -0.1268 27.771227293533823 6.511498615327044 6.350311507375578 0 0 1
6568 7 3 0.1268 24.230137981881402 6.163739827419198 9.915794345706937 0 0 0
4124 4 3 0.1268 28.311643955458393 7.878657091662004 9.474684527523587 1 0 0
4121 4 6 -0.053 28.74836048190304 10.199162874654329 8.264336380049977 1 0 0
1671 2 2 -0.1268 33.17616334741794 8.343185108721865 5.460820670461367 0 0 1
4123 4 2 -0.1268 28.758086960901245 8.628080481386071 10.099517045439264 1 0 0
1655 2 3 0.1268 28.791467134457726 8.136758425402217 5.393708284825951 0 0 1
1654 2 2 -0.1268 28.952455163216715 7.1356283808054055 5.810461500207571 0 0 1
6600 7 3 0.1268 33.276268744732405 7.35660794754048 10.413162352801246 0 0 0
4122 4 2 0.0265 29.011450078320287 9.83777659165329 9.54581442273231 1 0 0
1656 2 2 0.0265 30.142293027999248 6.413349976453308 5.611527439283138 0 0 1
1700 2 3 0.1268 31.76867409861448 9.578661943069028 8.839232363581253 0 0 1
1670 2 2 0.0265 31.947770149619977 7.863622837693216 5.955214058266345 0 0 1
1699 2 2 -0.1268 32.19605204026449 9.140046294833397 7.984386272885062 0 0 1
1702 2 3 0.1268 30.513938376686458 7.964034720045117 7.58670869838872 0 0 1
1701 2 2 -0.1268 31.486956054801542 8.26144402014867 7.210686042373367 0 0 1
1675 2 2 0.0265 33.45706458357956 9.668265121573647 7.435496622322958 0 0 1
1673 2 2 -0.1268 33.97118765676295 9.17893822308753 6.232607328649283 0 0 1
1676 2 6 -0.053 34.21289103451557 10.441295714831153 8.255587053873448 0 0 1
6599 7 2 -0.1268 34.06934691796148 7.957492372044438 10.936519946462074 0 0 0
6588 7 2 0 35.03337657683497 5.381498273662423 9.559800482542691 0 0 0
6591 7 2 0 35.46912157738747 7.588993420537555 10.905601752439248 0 0 0
1674 2 3 0.1268 35.023406981149655 9.30733692219567 5.895566522011107 0 0 1
1606 2 3 0.1268 35.87535317239558 5.821522473570781 5.375068973193994 0 0 1
6587 7 3 0.1268 35.17582953387124 6.260521337844787 7.571717740711256 0 0 0
1605 2 2 -0.1268 36.84970288671622 5.422848727332608 5.710157875035511 0 0 1
6589 7 1 0.3964 35.965318612795585 6.357305760643628 10.162052485237586 0 0 0
6590 7 5 -0.3964 37.16273211628135 5.990831292811474 10.04799739169157 0 0 0
1677 2 2 0.0265 35.54911132263716 10.602281923698468 8.068859150847544 0 0 1
1604 2 3 0.1268 37.64270724762635 7.431864258894519 5.914336904176811 0 0 1
1602 2 2 0.0265 38.911019893309216 5.929132968570192 6.802692234365201 0 0 1
1603 2 2 -0.1268 37.80430823703208 6.359205269469269 6.077884607076113 0 0 1
1679 2 3 0.1268 36.021060652805616 8.487821066110808 8.293488616641957 0 0 1
1678 2 2 -0.1268 36.40769119159946 9.498999125608051 8.15426590560311 0 0 1
1680 2 2 -0.1268 37.793054853585346 9.647834438221128 7.856568864120226 0 0 1
1681 2 3 0.1268 38.52876405199783 8.879009518832776 8.004729808681219 0 0 1
185 1 1 0.3964 40.75640728233054 9.914919469637798 10.807061978002507 -1 0 0
1590 2 3 0.1268 40.97595190252808 5.439182673710978 5.213401021734846 0 0 1
1591 2 2 -0.1268 43.00960258417084 5.826222624176491 5.533845280552668 0 0 1
1589 2 2 -0.1268 41.65832867231706 6.002741363833074 5.851115453651762 0 0 1
1601 2 6 -0.053 39.85060567581496 6.8573565339443565 7.295296585851663 0 0 1
2283 3 6 -0.053 46.19826989740545 7.124457689154019 11.212736081877827 0 1 0
1684 2 5 -0.3964 40.67272952551237 10.183614528827745 7.3244664194891405 0 0 1
183 1 3 0.1268 41.074446183490636 7.031499233854897 10.796579058497887 -1 0 0
186 1 5 -0.3964 41.81835712264846 9.690957222349148 10.240733684123482 -1 0 0
1584 2 2 -0.1268 43.50902315927182 7.3239702543741565 7.406853334326191 0 0 1
1586 2 2 -0.1268 42.14980760470948 7.382192086547912 7.722700185008879 0 0 1
1583 2 2 0 43.96691460400532 6.479841691415498 6.3495491148478544 0 0 1
1585 2 3 0.1268 44.162212430277215 7.838625862507742 8.068510707270335 0 0 1
1588 2 2 0.0265 41.19457690579573 6.665271501230205 7.012642328532512 0 0 1
1587 2 3 0.1268 41.88569412878376 7.995085617119376 8.647541351231187 0 0 1
2008 2 3 0.1268 44.762581004744625 10.032978244707873 9.14842117830545 0 0 1
1582 2 5 -0.3964 46.286662493062586 6.450040209006026 7.058307292263949 0 0 1
1963 2 2 -0.1268 47.39288645021406 9.6106637018772 5.964273963730363 0 0 1
1952 2 2 -0.1268 50.23822842522237 6.648165091144141 6.7665281667285715 0 0 1
1954 2 2 0 51.26667782801414 7.554245708200488 7.013952019604731 0 0 1
2269 3 3 0.1268 48.10186157962295 8.501950227679714 9.719543454437561 0 1 0
2284 3 2 0.0265 46.81953898922623 6.101870073110572 10.560225896840677 0 1 0
1953 2 3 0.1268 49.21174649031438 7.009920542584851 6.6636842458128145 0 0 1
2267 3 3 0.1268 49.41754436620539 10.41136156081877 10.570220931950434 0 1 0
2268 3 2 -0.1268 47.873163803410506 8.919598637186029 10.764666856030685 0 1 0
2266 3 2 -0.1268 48.65816173921084 9.982495392395201 11.269165234021026 0 1 0
1955 2 1 0.3964 51.039240168030936 9.053830191787743 7.091577543156243 0 0 1
1964 2 3 0.1268 46.56520912032431 9.018987066007238 5.47855093251439 0 0 1
1594 2 3 0.1268 47.80527402361143 5.1863659051537345 5.244217496333285 0 0 1
1581 2 1 0.3964 45.49040289614118 6.2858293547652275 6.163450528823135 0 0 1
1962 2 2 0.0265 47.01547839415619 10.680619119599395 6.826254797894156 0 0 1
1958 2 2 -0.1268 49.33772021364435 10.909383104413676 7.518488623906804 0 0 1
2285 3 2 -0.1268 48.202208855615126 5.8610581870909515 10.479153422858467 0 1 0
1957 2 2 0 49.70516720347104 9.747585980067722 6.779231749799993 0 0 1
1966 2 3 0.1268 48.829929970347294 8.365146242314582 5.205957751664973 0 0 1
1965 2 2 -0.1268 48.69140925527163 9.120105556805468 5.960961222691642 0 0 1
2256 3 6 -0.053 6.030034238927162 14.490051539136807 9.927038042064328 1 1 0
2280 3 3 0.1268 5.723910326669731 11.736940872433626 9.493254328192055 1 1 0
2252 3 3 0.1268 9.824889314024038 14.174897550872508 7.668364755297147 1 1 0
2254 3 3 0.1268 8.05575774735097 15.394202859126956 8.79864148982412 1 1 0
2281 3 2 -0.1268 7.561919545601645 11.547156537721369 8.160415089419214 1 1 0
2255 3 2 0.0265 6.847699814529607 13.654904748310672 9.133352455178137 1 1 0
2253 3 2 -0.1268 7.963563071149913 14.297832979932856 8.533006304538006 1 1 0
2251 3 2 -0.1268 8.97467721286753 13.57991758322806 7.998345793043329 1 1 0
2279 3 2 -0.1268 6.605588931368692 12.271162695552903 8.901744303384781 1 1 0
2250 3 2 0.0265 8.814326243133848 12.209853386408643 7.770011152904581 1 1 0
2249 3 6 -0.053 9.777052856503953 11.724739285922052 6.907214204228836 1 1 0
7292 7 3 0.1268 8.738354058129094 11.783382089465317 10.364679196856859 1 1 0
2282 3 3 0.1268 7.529255445621299 10.47728364129156 8.125870095864945 1 1 0
2236 3 2 0.0265 10.079814256773211 10.363986597529998 6.949941763213393 1 1 0
2235 3 3 0.1268 10.473091381100442 10.174276603154212 9.132635690872485 1 1 0
3859 4 3 0.1268 12.07211517641996 14.036085987513967 9.937549199507119 1 0 0
8057 8 3 0.1268 13.182333844010786 14.552407040852092 7.17184383101999 0 1 0
3856 4 6 -0.053 11.795019226518878 11.707180442423905 11.104303985662764 1 0 0
3261 3 2 -0.1268 15.917191855705067 17.065269534706893 9.277391114575508 2 0 -1
8056 8 2 -0.1268 13.819850240590123 13.646096457610009 7.0411525069056475 0 1 0
8055 8 2 0 15.22159120927586 13.774365404300553 6.817426659040436 0 1 0
8053 8 1 0.3964 15.821204552362563 15.225619499567856 6.636733153728272 0 1 0
8058 8 2 -0.1268 13.16534332856527 12.414684725253338 6.882890480660157 0 1 0
3262 3 3 0.1268 15.260797263396729 16.233164951714073 9.359650334634376 2 0 -1
8054 8 5 -0.3964 14.99393680905978 16.07911412455666 6.378008625997837 0 1 0
8059 8 3 0.1268 12.077792218052096 12.342543503570422 6.979898240088972 0 1 0
8063 8 2 -0.1268 15.975800760652316 12.634475724054315 6.5352734737041205 0 1 0
3858 4 2 -0.1268 12.622667892666012 13.939718243442327 10.875112959010051 1 0 0
8061 8 2 -0.1268 15.307119542448872 11.44103925436388 6.442777947362152 0 1 0
8060 8 2 0.0265 13.903097836970545 11.276778494238908 6.543655949963348 0 1 0
8064 8 3 0.1268 17.001181735733574 12.648576030347503 6.23888461613633 0 1 0
8052 8 2 0 17.25254158857874 15.510248786157437 6.716666411359545 0 1 0
8028 8 3 0.1268 21.651949927012858 12.670745439333842 10.496182557512391 0 1 0
8051 8 3 0.1268 17.800603408819647 13.76829721181343 7.875902233352204 0 1 0
3248 3 2 0 17.136379643138895 17.092688491481073 9.968513280222906 2 0 -1
8047 8 2 0.0265 19.94735655803808 16.239994075663475 7.229359530050565 0 1 0
8050 8 2 -0.1268 18.118289498214015 14.677894040631552 7.455332153336962 0 1 0
8048 8 2 -0.1268 19.393128157096402 15.01450889022885 7.773582012347378 0 1 0
8049 8 3 0.1268 19.97424236077931 14.267882891758838 8.412140310978863 0 1 0
6574 7 3 0.1268 18.51304027829994 12.9360864695467 9.616188359025161 0 0 0
8045 8 2 0.0265 22.017129238532796 15.927062564633186 8.241099164652196 0 1 0
6573 7 2 -0.1268 18.54621801379509 11.891822707045403 9.839222439296561 0 0 0
8070 8 3 0.1268 22.72876313722165 14.87222777621321 6.56809372463849 0 1 0
6572 7 3 0.1268 20.45807251615024 11.522914723239253 8.862645445043164 0 0 0
6542 7 2 0.0265 17.485717347885604 11.32359057537918 10.573369576752558 0 0 0
8069 8 2 -0.1268 22.734953850944013 14.887388257244373 7.659161731782205 0 1 0
8043 8 2 -0.1268 22.18217673225412 16.08609646960526 9.613037595078989 0 1 0
6571 7 2 -0.1268 19.52745111741358 11.075097352206644 9.315047660671052 0 0 0
319 1 3 0.1268 25.24104914645303 16.86615340429134 7.88280048627743 -1 0 0
320 1 2 0 26.283204382581022 16.16430704234996 6.05778611829374 -1 0 0
8039 8 6 -0.053 24.260425200131614 13.208476269518094 10.620432701196938 0 1 0
8041 8 2 -0.1268 22.986008658046096 15.22588319454086 10.372029633014883 0 1 0
8071 8 2 -0.1268 23.48918316936796 13.94135980786856 8.410874514905139 0 1 0
8072 8 3 0.1268 24.045357807932316 13.040892274560202 8.007557794641754 0 1 0
321 1 1 0.3964 26.816821503542545 14.887060969759352 6.672170516342719 -1 0 0
323 1 2 0 27.165887325815106 14.901106974309025 8.158583299947644 -1 0 0
331 1 2 -0.1268 26.987494648664512 13.643993859789937 8.806726122610474 -1 0 0
332 1 3 0.1268 26.404834967672816 12.743342315997229 8.491783751930756 -1 0 0
8040 8 2 0.0265 23.586790433098795 14.090036598092095 9.769929994688871 0 1 0
329 1 2 -0.1268 27.42863127003692 13.502133156234494 10.126358827959773 -1 0 0
324 1 2 -0.1268 27.89404816683631 15.970596936723975 8.78895257698516 -1 0 0
330 1 3 0.1268 27.17068640156688 12.487868803400996 10.575237870405937 -1 0 0
4114 4 3 0.1268 24.79189514545154 12.58909195435263 5.460853286120541 1 0 0
322 1 5 -0.3964 26.91108071135801 13.853984853044818 6.011316227302354 -1 0 0
328 1 2 0.0265 28.124986917591233 14.548323965510127 10.78316700394225 -1 0 0
326 1 2 -0.1268 28.329069023470655 15.75478117428787 10.085340317979965 -1 0 0
4107 4 3 0.1268 28.238093930056696 10.825271959375021 5.68119980277674 1 0 0
4101 4 1 0.3964 23.78100364402909 10.003769641643572 5.618758102661493 1 0 0
4104 4 2 -0.1268 26.194260527737498 10.407141430181692 5.721990962188031 1 0 0
4106 4 2 -0.1268 27.45006943245143 10.505293270415116 6.35606091522811 1 0 0
4103 4 2 0 25.034206945571867 10.044140098813896 6.356984417678398 1 0 0
6636 7 3 0.1268 30.867763487358157 16.687248963962418 5.724949185134929 0 0 0
6637 7 2 -0.1268 31.31269156667791 16.042953170136318 7.790144560569231 0 0 0
6635 7 2 -0.1268 31.07871648626821 15.871408796585198 6.430033479469495 0 0 0
6616 7 6 -0.053 31.813503635206132 15.193318785437834 9.935051700899763 0 0 0
6618 7 2 -0.1268 31.224633640900613 13.64004363500864 8.13818407584135 0 0 0
6619 7 3 0.1268 31.4556365631288 12.763188577874846 8.750304062818465 0 0 0
6621 7 3 0.1268 30.74481044961374 12.39263434469129 6.522759550162619 0 0 0
6620 7 2 -0.1268 30.924210545638203 13.445014035727535 6.836027491368361 0 0 0
6617 7 2 0.0265 31.46598356010952 14.926930376406112 8.652444316955378 0 0 0
6613 7 2 -0.1268 33.4647420150517 13.302781327964864 10.102905968191724 0 0 0
6622 7 2 0 30.784535177628054 14.550303131955578 5.951408517570405 0 0 0
4154 4 3 0.1268 29.91523983193201 11.719875470723473 9.817319169358544 1 0 0
6615 7 2 0.0265 32.516672898055916 14.196130764060385 10.669990899181057 0 0 0
4153 4 2 -0.1268 29.648315194093538 10.836657764280499 10.366657010451883 1 0 0
6614 7 3 0.1268 33.7745656343691 13.469431800725388 9.048401550177708 0 0 0
6611 7 2 -0.1268 34.02704552782649 12.20256750721313 10.863312663837897 0 0 0
6612 7 3 0.1268 34.78020176546776 11.584135839447924 10.385634342301234 0 0 0
1697 2 2 -0.1268 36.11711726402106 11.905137748066426 7.850683497339099 0 0 1
205 1 6 -0.053 38.420748190096575 15.118917822734904 9.960348369168196 -1 0 0
192 1 2 0.0265 38.885121250460145 13.784592361020444 10.128608810069029 -1 0 0
6890 7 2 -0.1268 36.39654552399907 16.015048335558156 5.841833152801515 0 1 0
6891 7 3 0.1268 37.21358544036877 15.2517118582779 5.814204644267138 0 1 0
1698 2 3 0.1268 35.383569189869455 12.749320369860808 7.7274679785123075 0 0 1
1696 2 3 0.1268 38.02186485867015 13.121948686505128 7.57103759350246 0 0 1
1695 2 2 -0.1268 37.506257489935464 12.073534060502801 7.503661372360114 0 0 1
208 1 3 0.1268 35.888210614603636 16.09619235136521 10.183631655466062 -1 0 0
1682 2 2 0 38.34424361107422 10.934608694020453 7.5262460151597965 0 0 1
1683 2 1 0.3964 39.83977373116128 11.027944395710493 7.053024332960916 0 0 1
1693 2 2 -0.1268 39.458561105949165 12.80434179613283 5.257072588903405 0 0 1
190 1 2 -0.1268 40.16783871357102 13.544302648423796 9.689832369891535 -1 0 0
1694 2 3 0.1268 38.389077512153506 12.501035133582018 5.30414519647155 0 0 1
187 1 2 0 40.069343997768854 11.273860881354643 10.592841215774156 -1 0 0
191 1 3 0.1268 40.83924818344265 14.399715221935162 9.251976127461386 -1 0 0
2004 2 3 0.1268 42.74726913036451 15.46051222410572 9.552306083219475 0 0 1
1689 2 3 0.1268 43.06810917540794 14.081884057735452 5.543040500924355 0 0 1
188 1 2 -0.1268 40.823793978697296 12.295849497613828 9.899119588337204 -1 0 0
2007 2 2 -0.1268 44.851052959945534 11.138235971372417 9.072197217937594 0 0 1
1978 2 3 0.1268 45.75045906925694 13.55973265676439 6.865125496332873 0 0 1
1976 2 2 0.0265 45.25706215874756 11.770667690726885 7.899678702090507 0 0 1
1688 2 2 -0.1268 42.064728308890764 13.677745695717732 5.341462803850826 0 0 1
1981 2 2 0.0265 44.64768891155973 13.379019715194376 10.091006803053896 0 0 1
1977 2 2 -0.1268 45.3291672365276 13.189533320097325 7.823227924998756 0 0 1
1980 2 3 0.1268 45.125599875078926 15.049617568115927 8.710117410817961 0 0 1
2005 2 2 -0.1268 44.68147525990538 11.983800991837045 10.175472069425687 0 0 1
1979 2 2 -0.1268 44.93365247038401 13.97370522517711 8.879192162592284 0 0 1
2003 2 2 -0.1268 43.24032822451169 15.965831770059046 10.386157641634755 0 0 1
2001 2 2 -0.1268 42.98488746054847 17.283795592208172 10.618765092298057 0 0 1
3655 4 3 0.1268 41.316059724591994 16.679003370549964 6.71206747918314 1 0 0
3657 4 3 0.1268 43.736312191219106 17.005808860011747 7.5011487560724825 1 0 0
1686 2 2 -0.1268 41.67215345122701 12.593512173800441 6.148693024395939 0 0 1
189 1 3 0.1268 41.81933866812662 12.210696611694043 9.491574770801238 -1 0 0
1685 2 2 0 40.34201281212094 12.21869250004587 6.171629214103248 0 0 1
1687 2 3 0.1268 42.319336438929525 12.214323749953827 6.923521488436314 0 0 1
1975 2 6 -0.053 45.67252054516212 11.016609851256584 6.8474147065027395 0 0 1
2278 3 3 0.1268 50.620585483301184 13.690722898206479 8.991792003845447 0 1 0
1715 2 3 0.1268 48.04023414760645 15.58612243338396 7.252363719149199 0 0 1
1714 2 2 -0.1268 48.38658098413631 15.883248200649557 6.195691238708616 0 0 1
1712 2 2 -0.1268 47.51380386222623 15.624543072923146 5.153354484749535 0 0 1
1959 2 3 0.1268 50.01298665091205 11.42089294188731 8.10890013693268 0 0 1
1960 2 2 -0.1268 48.027165149874016 11.366526198666559 7.531993217502823 0 0 1
1713 2 3 0.1268 46.52901649652629 15.316163606401807 5.369026495932567 0 0 1
1961 2 3 0.1268 47.83118460994523 12.27426906263528 8.219891991598912 0 0 1
2276 3 3 0.1268 48.88006990060306 12.431567926584023 10.33115618510345 0 1 0
2277 3 2 -0.1268 50.66074731323593 13.461580140350275 10.07449719550161 0 1 0
3937 4 3 0.1268 51.91114896717212 11.845212139948767 5.677112718115815 0 0 0
2275 3 2 -0.1268 49.71429903676012 12.847445539997661 10.865992380879241 0 1 0
1726 2 3 0.1268 47.101681646700634 17.365166478252586 10.301855890282834 0 0 1
2257 3 2 0.0265 51.84186032873467 13.858355994344123 10.661116005615941 0 1 0
1725 2 2 -0.1268 48.142197621862266 17.233926062651857 10.135095314215741 0 0 1
2171 2 2 -0.1268 5.92391857051945 20.568902509783534 9.516089219126778 1 0 2
2174 2 3 0.1268 6.284413957246402 20.59266021108941 7.431006160189326 1 0 2
2172 2 3 0.1268 6.240336567729183 19.470174515890307 9.562479535875362 1 0 2
2173 2 2 -0.1268 5.859658900629039 21.125654079780254 8.240405150081193 1 0 2
3893 4 3 0.1268 8.631252653338862 21.226575684064052 5.300582835499544 1 0 0
7505 7 3 0.1268 8.854471474059297 17.619559884752157 6.05291357899712 1 1 1
3892 4 2 -0.1268 9.417197856920168 21.972242859793575 5.356141988656633 1 0 0
3889 4 2 0.0265 9.91179946913865 21.886415304727866 8.994442516191718 1 0 0
2170 2 3 0.1268 8.2071528795466 19.653403374620673 10.336932049663421 1 0 2
7504 7 2 -0.1268 8.838816557996623 17.78947834815305 51.749700475284605 1 1 0
3890 4 6 -0.053 9.193067917211197 21.975284187779025 7.769389782912345 1 0 0
3891 4 2 0.0265 9.83138991647571 22.41902952188543 6.632975788428665 1 0 0
7508 7 5 -0.3964 11.074108019405216 18.600167498094358 6.306782805672109 1 1 1
7507 7 1 0.3964 11.141157269966737 18.55231237155536 51.92893904954442 1 1 0
3887 4 2 -0.1268 10.984754351255361 21.01671726180477 9.118376646264624 1 0 0
3888 4 3 0.1268 11.355533890363457 20.572154391403146 8.275889921911142 1 0 0
2158 2 2 0 5.5437890592557775 21.28778838360303 10.641882008489658 1 0 2
2153 2 2 0.0265 5.325966373059369 22.382665354707655 8.101641997422215 1 0 2
2168 2 3 0.1268 9.441154737271606 17.667985126952157 10.660329880299148 1 0 2
2169 2 2 -0.1268 7.836724633545526 18.997428301214747 11.15736729691382 1 0 2
3263 3 2 -0.1268 15.363418588223976 18.154007988547043 8.617660499756418 2 0 -1
7518 7 3 0.1268 13.285762449336861 19.832722338493127 6.20192140313965 1 1 1
3241 3 2 0.0265 15.345555994225636 21.412229937681133 8.428150615862046 2 0 -1
3264 3 3 0.1268 14.443591344228166 18.185308389387792 7.994515567106646 2 0 -1
3239 3 2 -0.1268 15.141046752133052 21.434127102206514 9.800072537801773 2 0 -1
3266 3 3 0.1268 15.096064254522966 22.472909242159115 6.562492861196928 2 0 -1
3885 4 2 -0.1268 11.560959637636852 20.805478516745325 10.39059484910087 1 0 0
3265 3 2 -0.1268 15.036227478352219 22.59033020633892 7.6635117335684235 2 0 -1
3886 4 3 0.1268 12.427354950423883 20.089195520752185 10.401404756479465 1 0 0
3242 3 6 -0.053 15.730144916040851 20.33105408137803 7.710643832942823 2 0 -1
3243 3 2 0.0265 16.20309077715679 19.27900370080475 8.44832894309608 2 0 -1
3237 3 2 -0.1268 14.651816143352976 22.538304022427997 10.401251170868472 2 0 -1
7516 7 3 0.1268 15.624149566950043 19.84689583676857 5.3032152237114625 1 1 1
7517 7 2 -0.1268 13.490707412294377 19.345538215369277 5.229683175254334 1 1 1
7515 7 2 -0.1268 14.763033029973062 19.4258566856721 51.54086099542242 1 1 0
7509 7 2 0 12.487029067180696 18.683165522156358 51.30393846869199 1 1 0
8066 8 3 0.1268 17.130295264098727 17.37422438643057 5.573361614614715 0 1 0
3244 3 2 -0.1268 17.502467741317055 19.300948741918994 9.086379090042422 2 0 -1
8559 8 3 0.1268 20.610332855104268 20.334936433004426 5.712638802691477 0 0 0
3245 3 3 0.1268 18.14419936965191 20.196669456510364 8.968223131106338 2 0 -1
8558 8 2 -0.1268 20.322569529951675 21.07900969091709 6.539919359991723 0 0 0
8557 8 2 0.0265 19.243422143911726 21.945191637219498 6.395157309104526 0 0 0
8561 8 3 0.1268 21.822139485500998 20.261150945356718 8.013689802009331 0 0 0
8562 8 2 0 20.511603513649906 21.67108399092861 8.8645602827613 0 0 0
8563 8 1 0.3964 21.355229984661964 21.68903014920672 10.209149467499886 0 0 0
8564 8 5 -0.3964 22.538054495498887 21.49433377254912 10.26673954481056 0 0 0
8068 8 3 0.1268 19.449814597084263 17.872056038390298 5.924462742445357 0 1 0
8560 8 2 -0.1268 20.909463304019894 20.879632723798064 7.78227762438831 0 0 0
8067 8 2 -0.1268 19.130195443832562 16.90487390805483 6.306027149615066 0 1 0
8065 8 2 -0.1268 17.759655088926337 16.672664644463513 6.136123516780809 0 1 0
8567 8 3 0.1268 18.445806387013434 21.839193473073262 10.770835352991678 0 0 0
8046 8 6 -0.053 21.205540615766484 16.647169226232805 7.40510166850208 0 1 0
3246 3 2 -0.1268 17.94831170229624 18.2409769834819 9.835649369304138 2 0 -1
8044 8 3 0.1268 21.66955470103567 16.96372732634947 10.114087915471142 0 1 0
8575 8 2 -0.1268 19.511413552320178 22.659994857634313 8.69274743756275 0 0 0
8577 8 2 -0.1268 18.7602571729756 22.67542696471489 7.474875838266513 0 0 0
313 1 2 0.0265 24.330843767764772 20.852713557173132 5.361690865327531 -1 0 0
7847 8 3 0.1268 26.844118803989744 23.531974165484712 5.515029913411026 0 0 0
2924 3 3 0.1268 25.929347390544212 17.48765641862711 10.207733229405639 1 0 -1
311 1 2 -0.1268 24.800435292105142 21.255299074217387 6.612749155036961 -1 0 0
312 1 3 0.1268 25.636345212313522 20.59493752826897 6.992642362567043 -1 0 0
317 1 3 0.1268 24.229355166806407 18.73359312809219 7.07214718189224 -1 0 0
316 1 2 -0.1268 24.926993802260995 18.18846048913798 6.41572018819127 -1 0 0
2921 3 2 -0.1268 26.939836803277018 19.31041110749725 9.55300081199774 1 0 -1
2908 3 2 0 27.08992637667356 20.69285957487929 9.733269635821022 1 0 -1
2923 3 2 -0.1268 26.04336126075039 18.56837385901723 10.314007960876197 1 0 -1
325 1 3 0.1268 28.183578504772303 16.90945906574099 8.257372512028667 -1 0 0
2922 3 3 0.1268 27.551408080946416 18.87127508165915 8.705323419800992 1 0 -1
2909 3 1 0.3964 27.916968736363497 21.53286444485946 8.79014820397692 1 0 -1
2906 3 2 -0.1268 26.297095222360323 21.322073851466005 10.754723305705053 1 0 -1
318 1 2 -0.1268 25.545049822974587 17.038772290408286 6.867039602964423 -1 0 0