units real
atom_style full
boundary p p p

# --- Force Field Styles ---
pair_style lj/class2/coul/long 9.5 9.5
kspace_style pppm 1e-6
dielectric 1.000000
bond_style class2
angle_style class2
dihedral_style class2
improper_style class2
special_bonds lj/coul 0 0 1
pair_modify mix sixthpower tail yes
neighbor 2.0 bin
neigh_modify delay 0 every 1 check yes
neigh_modify one 4000
# KOKKOS: package loaded via -pk kokkos on the command line

read_data /home/alexzhao/PolyJarvis/data/PEEK4/lammps/equil/npt_cool300/npt_cool300_out.data
Reading data file ...
  orthogonal box = (5.1062515 5.1062515 5.1062515) to (51.949277 51.949277 51.949277)
  1 by 1 by 1 MPI processor grid
  reading atoms ...
  8720 atoms
  reading velocities ...
  8720 velocities
  scanning bonds ...
  3 = max bonds/atom
  scanning angles ...
  9 = max angles/atom
  scanning dihedrals ...
  18 = max dihedrals/atom
  scanning impropers ...
  4 = max impropers/atom
  orthogonal box = (5.1062515 5.1062515 5.1062515) to (51.949277 51.949277 51.949277)
  1 by 1 by 1 MPI processor grid
  reading bonds ...
  9480 bonds
  reading angles ...
  15104 angles
  reading dihedrals ...
  22512 dihedrals
  reading impropers ...
  4864 impropers
Finding 1-2 1-3 1-4 neighbors ...
  special bond factors lj:    0        0        1       
  special bond factors coul:  0        0        1       
     3 = max # of 1-2 neighbors
     6 = max # of 1-3 neighbors
     9 = max # of special neighbors
  special bonds CPU = 0.003 seconds
  read_data CPU = 0.216 seconds
include /home/alexzhao/PolyJarvis/data/PEEK4/lammps/equil/emc_build.params
# LAMMPS parameters created by EMC v9.4.4, build Jul 31 2025 20:33:44

# Variables

variable	seed		index	734812
variable	ntotal		index	8720
variable	fshape		index	1
variable	output		index	emc_build
variable	field		index	pcff/pcff
variable	location1	index	~/emc/field/
variable	nav		index	0.6022141179
variable	temperature	index	300
variable	radius		index	5
variable	nrelax		index	100
variable	weight_nonbond	index	0.0001
variable	weight_bond	index	0.0001
variable	weight_focus	index	1
variable	cutoff		index	9.5
variable	charge_cutoff	index	9.5
variable	kappa		index	4
variable	density1	index	0.66
variable	lprevious	index	0
variable	lphase		index	57.0555285531
variable	f_poly		index	8
variable	chem_repeat	index	*Oc1ccc(Oc2ccc(C(=O)c3ccc(cc3)*)cc2)cc1
variable	chem_cap	index	*[H]
variable	lg_repeat	index	34
variable	lg_cap		index	1
variable	norm_poly	index	100
variable	l_poly		index	1090
variable	mg_repeat	index	260.29514
variable	mg_cap		index	0
variable	m_poly		index	8329.44448
variable	n_poly		index	8
variable	mtotal		index	73822.38416
variable	nphase1		index	8720
variable	mphase1		index	73822.38416
variable	vphase1		index	185734.764243
variable	lbox		index	57.0555285531
variable	lphase1		index	57.0555285531
variable	lxx		index	57.0555285531
variable	lyy		index	57.0555285531
variable	lzz		index	57.0555285531
variable	lzy		index	0
variable	lzx		index	0
variable	lyx		index	0
variable	vtotal		index	185734.764243
variable	nl_poly		index	8

# Types

variable	type_c_0	index	1
variable	type_cp		index	2
variable	type_hc		index	3
variable	type_ho		index	4
variable	type_o_1	index	5
variable	type_oc		index	6
variable	type_oh		index	7

variable	type_bond_c_0_cp index	1
variable	type_bond_c_0_o_1 index	2
variable	type_bond_cp_cp	index	3
variable	type_bond_cp_hc	index	4
variable	type_bond_cp_oc	index	5
variable	type_bond_cp_oh	index	6
variable	type_bond_ho_oh	index	7

variable	type_angle_c_0_cp_cp index	1
variable	type_angle_cp_c_0_cp index	2
variable	type_angle_cp_c_0_o_1 index	3
variable	type_angle_cp_cp_cp index	4
variable	type_angle_cp_cp_hc index	5
variable	type_angle_cp_cp_oc index	6
variable	type_angle_cp_cp_oh index	7
variable	type_angle_cp_oc_cp index	8
variable	type_angle_cp_oh_ho index	9

# Clusters

variable	n0_poly		index	1
variable	n1_poly		index	8
variable	nl_poly		index	8

# Flags

variable	flag_charged	index	1

# Masses

mass		1    12.01115  # c_0
mass		2    12.01115  # cp
mass		3     1.00797  # hc
mass		4     1.00797  # ho
mass		5    15.99940  # o_1
mass		6    15.99940  # oc
mass		7    15.99940  # oh

# Potentials

pair_modify	mix sixthpower tail yes
special_bonds	lj/coul 0 0 1

# Pair Coeffs

pair_coeff	 1  1    0.12000    3.30800  # c_0,c_0
pair_coeff	 2  2    0.06400    4.01000  # cp,cp
pair_coeff	 3  3    0.02000    2.99500  # hc,hc
pair_coeff	 4  4    0.01300    1.09800  # ho,ho
pair_coeff	 5  5    0.26700    3.30000  # o_1,o_1
pair_coeff	 6  6    0.24000    3.53500  # oc,oc
pair_coeff	 7  7    0.24000    3.53500  # oh,oh

# Bond Coeffs

bond_coeff	1    1.48900  339.35740 -655.72360  670.23620  # c_0,cp
bond_coeff	2    1.21600  823.79480 -1878.79400 2303.53110  # c_0,o_1
bond_coeff	3    1.41700  470.83610 -627.61790 1327.63450  # cp,cp
bond_coeff	4    1.09820  372.82510 -803.45260  894.31730  # cp,hc
bond_coeff	5    1.37680  428.87980 -738.23510 1114.96550  # cp,oc
bond_coeff	6    1.37680  428.87980 -738.23510 1114.96550  # cp,oh
bond_coeff	7    0.96500  532.50620 -1282.90500 2004.76580  # ho,oh

# Angle Coeffs

angle_coeff	1  108.40000   43.95940   -8.39240   -9.33790  # c_0,cp,cp
angle_coeff	2  110.58840   34.62140   -7.09390   -7.40320  # cp,c_0,cp
angle_coeff	3  119.30000   65.10160  -17.97660    0.00000  # cp,c_0,o_1
angle_coeff	4  118.90000   61.02260  -34.99310    0.00000  # cp,cp,cp
angle_coeff	5  117.94000   35.15580  -12.46820    0.00000  # cp,cp,hc
angle_coeff	6  123.42000   73.67810  -21.67870    0.00000  # cp,cp,oc
angle_coeff	7  123.42000   73.67810  -21.67870    0.00000  # cp,cp,oh
angle_coeff	8  109.50000   60.00000    0.00000    0.00000  # cp,oc,cp
angle_coeff	9  108.19000   53.12500   -8.50160    0.00000  # cp,oh,ho

# BondBond Coeffs

angle_coeff	1 bb    0.00000    1.48900    1.41700  # c_0,cp,cp
angle_coeff	2 bb    0.00000    1.48900    1.48900  # cp,c_0,cp
angle_coeff	3 bb    0.00000    1.48900    1.21600  # cp,c_0,o_1
angle_coeff	4 bb   68.28560    1.41700    1.41700  # cp,cp,cp
angle_coeff	5 bb    1.07950    1.41700    1.09820  # cp,cp,hc
angle_coeff	6 bb   48.47540    1.41700    1.37680  # cp,cp,oc
angle_coeff	7 bb   48.47540    1.41700    1.37680  # cp,cp,oh
angle_coeff	8 bb    0.00000    1.37680    1.37680  # cp,oc,cp
angle_coeff	9 bb   20.65770    1.37680    0.96500  # cp,oh,ho

# BondAngle Coeffs

angle_coeff	1 ba    0.00000    0.00000    1.48900    1.41700  # c_0,cp,cp
angle_coeff	2 ba    0.00000    0.00000    1.48900    1.48900  # cp,c_0,cp
angle_coeff	3 ba    0.00000    0.00000    1.48900    1.21600  # cp,c_0,o_1
angle_coeff	4 ba   28.87080   28.87080    1.41700    1.41700  # cp,cp,cp
angle_coeff	5 ba   20.00330   24.21830    1.41700    1.09820  # cp,cp,hc
angle_coeff	6 ba   58.47900  107.68060    1.41700    1.37680  # cp,cp,oc
angle_coeff	7 ba   58.47900  107.68060    1.41700    1.37680  # cp,cp,oh
angle_coeff	8 ba    0.00000    0.00000    1.37680    1.37680  # cp,oc,cp
angle_coeff	9 ba   53.86140   23.92240    1.37680    0.96500  # cp,oh,ho

# Dihedral Coeffs

dihedral_coeff	 1    0.00000    0.00000    4.62820    0.00000    0.00000    0.00000  # c_0,cp,cp,cp
dihedral_coeff	 2    0.00000    0.00000    2.16700    0.00000    0.00000    0.00000  # c_0,cp,cp,hc
dihedral_coeff	 3    0.00000    0.00000    2.50000    0.00000    0.00000    0.00000  # cp,c_0,cp,cp
dihedral_coeff	 4    0.00000    0.00000    0.90630    0.00000    0.00000    0.00000  # cp,cp,c_0,o_1
dihedral_coeff	 5    8.36670    0.00000    1.19320    0.00000    0.00000    0.00000  # cp,cp,cp,cp
dihedral_coeff	 6    0.00000    0.00000    3.96610    0.00000    0.00000    0.00000  # cp,cp,cp,hc
dihedral_coeff	 7    0.00000    0.00000    4.84980    0.00000    0.00000    0.00000  # cp,cp,cp,oc
dihedral_coeff	 8    0.00000    0.00000    4.84980    0.00000    0.00000    0.00000  # cp,cp,cp,oh
dihedral_coeff	 9    0.00000    0.00000    1.80000    0.00000    0.00000    0.00000  # cp,cp,oc,cp
dihedral_coeff	10   -0.69000    0.00000    0.50970    0.00000    0.00950    0.00000  # cp,cp,oh,ho
dihedral_coeff	11    0.00000    0.00000    1.87690    0.00000    0.00000    0.00000  # hc,cp,cp,hc
dihedral_coeff	12    0.00000    0.00000    1.72340    0.00000    0.00000    0.00000  # hc,cp,cp,oc
dihedral_coeff	13    0.00000    0.00000    1.72340    0.00000    0.00000    0.00000  # hc,cp,cp,oh

# MiddleBondTorsion Coeffs

dihedral_coeff	 1 mbt    0.00000    0.00000    0.00000    1.41700  # c_0,cp,cp,cp
dihedral_coeff	 2 mbt    0.00000    0.00000    0.00000    1.41700  # c_0,cp,cp,hc
dihedral_coeff	 3 mbt    0.00000    0.00000    0.00000    1.48900  # cp,c_0,cp,cp
dihedral_coeff	 4 mbt    0.00000    0.00000    0.00000    1.48900  # cp,cp,c_0,o_1
dihedral_coeff	 5 mbt   27.59890   -2.31200    0.00000    1.41700  # cp,cp,cp,cp
dihedral_coeff	 6 mbt    0.00000   -1.15210    0.00000    1.41700  # cp,cp,cp,hc
dihedral_coeff	 7 mbt    0.00000    4.82550    0.00000    1.41700  # cp,cp,cp,oc
dihedral_coeff	 8 mbt    0.00000    4.82550    0.00000    1.41700  # cp,cp,cp,oh
dihedral_coeff	 9 mbt    0.00000    0.00000    0.00000    1.37680  # cp,cp,oc,cp
dihedral_coeff	10 mbt    1.15800    3.26970    3.51320    1.37680  # cp,cp,oh,ho
dihedral_coeff	11 mbt    0.00000    4.82280    0.00000    1.41700  # hc,cp,cp,hc
dihedral_coeff	12 mbt    0.00000    5.54320    0.00000    1.41700  # hc,cp,cp,oc
dihedral_coeff	13 mbt    0.00000    5.54320    0.00000    1.41700  # hc,cp,cp,oh

# EndBondTorsion Coeffs

dihedral_coeff	 1 ebt    0.00000    0.00000    0.00000    0.00000    0.00000    0.00000    1.48900    1.41700  # c_0,cp,cp,cp
dihedral_coeff	 2 ebt    0.00000    0.00000    0.00000    0.00000    0.00000    0.00000    1.48900    1.09820  # c_0,cp,cp,hc
dihedral_coeff	 3 ebt    0.00000    0.00000    0.00000    0.00000    0.00000    0.00000    1.48900    1.41700  # cp,c_0,cp,cp
dihedral_coeff	 4 ebt    0.00000    0.00000    0.00000    0.00000    0.00000    0.00000    1.41700    1.21600  # cp,cp,c_0,o_1
dihedral_coeff	 5 ebt   -0.11850    6.32040    0.00000   -0.11850    6.32040    0.00000    1.41700    1.41700  # cp,cp,cp,cp
dihedral_coeff	 6 ebt    0.00000   -6.89580    0.00000    0.00000   -0.46690    0.00000    1.41700    1.09820  # cp,cp,cp,hc
dihedral_coeff	 7 ebt    0.00000    0.26550    0.00000    0.00000    4.89050    0.00000    1.41700    1.37680  # cp,cp,cp,oc
dihedral_coeff	 8 ebt    0.00000    0.26550    0.00000    0.00000    4.89050    0.00000    1.41700    1.37680  # cp,cp,cp,oh
dihedral_coeff	 9 ebt    0.00000    0.00000    0.00000    0.00000    0.00000    0.00000    1.41700    1.37680  # cp,cp,oc,cp
dihedral_coeff	10 ebt    0.90000   -1.34560    1.19000    3.41320    0.58730   -0.13230    1.41700    0.96500  # cp,cp,oh,ho
dihedral_coeff	11 ebt    0.00000   -0.68900    0.00000    0.00000   -0.68900    0.00000    1.09820    1.09820  # hc,cp,cp,hc
dihedral_coeff	12 ebt    0.00000   -1.58670    0.00000    0.00000    4.26410    0.00000    1.09820    1.37680  # hc,cp,cp,oc
dihedral_coeff	13 ebt    0.00000   -1.58670    0.00000    0.00000    4.26410    0.00000    1.09820    1.37680  # hc,cp,cp,oh

# AngleTorsion Coeffs

dihedral_coeff	 1 at    0.00000    0.00000    0.00000    0.00000    0.00000    0.00000  108.40000  118.90000  # c_0,cp,cp,cp
dihedral_coeff	 2 at    0.00000    0.00000    0.00000    0.00000    0.00000    0.00000  108.40000  117.94000  # c_0,cp,cp,hc
dihedral_coeff	 3 at    0.00000    0.00000    0.00000    0.00000    0.00000    0.00000  110.58840  108.40000  # cp,c_0,cp,cp
dihedral_coeff	 4 at    0.00000    0.00000    0.00000    0.00000    0.00000    0.00000  108.40000  119.30000  # cp,cp,c_0,o_1
dihedral_coeff	 5 at    1.97670    1.02390    0.00000    1.97670    1.02390    0.00000  118.90000  118.90000  # cp,cp,cp,cp
dihedral_coeff	 6 at    0.00000    2.50140    0.00000    0.00000    2.71470    0.00000  118.90000  117.94000  # cp,cp,cp,hc
dihedral_coeff	 7 at    0.00000   10.01550    0.00000    0.00000    1.74040    0.00000  118.90000  123.42000  # cp,cp,cp,oc
dihedral_coeff	 8 at    0.00000   10.01550    0.00000    0.00000    1.74040    0.00000  118.90000  123.42000  # cp,cp,cp,oh
dihedral_coeff	 9 at    0.00000    0.00000    0.00000    0.00000    0.00000    0.00000  123.42000  109.50000  # cp,cp,oc,cp
dihedral_coeff	10 at   -5.13600   -1.01220    0.00000    4.68520    0.02300   -0.59800  123.42000  108.19000  # cp,cp,oh,ho
dihedral_coeff	11 at    0.00000    2.45010    0.00000    0.00000    2.45010    0.00000  117.94000  117.94000  # hc,cp,cp,hc
dihedral_coeff	12 at    0.00000    1.87290    0.00000    0.00000    2.57060    0.00000  117.94000  123.42000  # hc,cp,cp,oc
dihedral_coeff	13 at    0.00000    1.87290    0.00000    0.00000    2.57060    0.00000  117.94000  123.42000  # hc,cp,cp,oh

# AngleAngleTorsion Coeffs

dihedral_coeff	 1 aat    0.00000  108.40000  118.90000  # c_0,cp,cp,cp
dihedral_coeff	 2 aat    0.00000  108.40000  117.94000  # c_0,cp,cp,hc
dihedral_coeff	 3 aat    0.00000  110.58840  108.40000  # cp,c_0,cp,cp
dihedral_coeff	 4 aat    0.00000  108.40000  119.30000  # cp,cp,c_0,o_1
dihedral_coeff	 5 aat    0.00000  118.90000  118.90000  # cp,cp,cp,cp
dihedral_coeff	 6 aat   -4.81410  118.90000  117.94000  # cp,cp,cp,hc
dihedral_coeff	 7 aat  -21.02470  118.90000  123.42000  # cp,cp,cp,oc
dihedral_coeff	 8 aat  -21.02470  118.90000  123.42000  # cp,cp,cp,oh
dihedral_coeff	 9 aat    0.00000  123.42000  109.50000  # cp,cp,oc,cp
dihedral_coeff	10 aat   -4.60720  123.42000  108.19000  # cp,cp,oh,ho
dihedral_coeff	11 aat    0.35980  117.94000  117.94000  # hc,cp,cp,hc
dihedral_coeff	12 aat    4.22960  117.94000  123.42000  # hc,cp,cp,oc
dihedral_coeff	13 aat    4.22960  117.94000  123.42000  # hc,cp,cp,oh

# BondBond13 Coeffs

dihedral_coeff	 1 bb13    0.00000    1.48900    1.41700  # c_0,cp,cp,cp
dihedral_coeff	 2 bb13    0.00000    1.48900    1.09820  # c_0,cp,cp,hc
dihedral_coeff	 3 bb13    0.00000    1.48900    1.41700  # cp,c_0,cp,cp
dihedral_coeff	 4 bb13    0.00000    1.41700    1.21600  # cp,cp,c_0,o_1
dihedral_coeff	 5 bb13   53.00000    1.41700    1.41700  # cp,cp,cp,cp
dihedral_coeff	 6 bb13   -6.27410    1.41700    1.09820  # cp,cp,cp,hc
dihedral_coeff	 7 bb13   -2.24360    1.41700    1.37680  # cp,cp,cp,oc
dihedral_coeff	 8 bb13   -2.24360    1.41700    1.37680  # cp,cp,cp,oh
dihedral_coeff	 9 bb13    0.00000    1.41700    1.37680  # cp,cp,oc,cp
dihedral_coeff	10 bb13    1.15900    1.41700    0.96500  # cp,cp,oh,ho
dihedral_coeff	11 bb13   -1.70770    1.09820    1.09820  # hc,cp,cp,hc
dihedral_coeff	12 bb13    2.05170    1.09820    1.37680  # hc,cp,cp,oc
dihedral_coeff	13 bb13    2.05170    1.09820    1.37680  # hc,cp,cp,oh

# Improper Coeffs

improper_coeff	1   38.79490    0.00000  # c_0,cp,cp,o_1
improper_coeff	2    0.00000    0.00000  # cp,c_0,cp,cp
improper_coeff	3    4.89120    0.00000  # cp,cp,cp,hc
improper_coeff	4   13.04210    0.00000  # cp,cp,cp,oc
improper_coeff	5   13.04210    0.00000  # cp,cp,cp,oh

# AngleAngle Coeffs

improper_coeff	1 aa    0.00000    0.00000    0.00000  110.58840  119.30000  119.30000  # c_0,cp,cp,o_1
improper_coeff	2 aa    0.00000    0.00000    0.00000  108.40000  108.40000  118.90000  # cp,c_0,cp,cp
improper_coeff	3 aa    0.00000    0.00000    0.00000  118.90000  117.94000  117.94000  # cp,cp,cp,hc
improper_coeff	4 aa    0.00000    0.00000    0.00000  118.90000  123.42000  123.42000  # cp,cp,cp,oc
improper_coeff	5 aa    0.00000    0.00000    0.00000  118.90000  123.42000  123.42000  # cp,cp,cp,oh


# --- Thermo Output ---
thermo_style custom step time temp press enthalpy etotal ke pe ebond eangle edihed eimp evdwl ecoul elong etail vol lx ly lz density pxx pyy pzz
thermo_modify flush yes
thermo 1000

# --- Trajectory ---
dump dump_npt all custom 1000 npt_prod300.dump id type mol x y z ix iy iz vx vy vz

# --- Restart Checkpointing ---
# No restart checkpointing

# --- Initial Velocities (optional) ---
# Velocities read from data file

# --- SHAKE Constraints ---
# SHAKE disabled

# --- NPT Thermostat + Barostat (Nose-Hoover) ---
# T_damp = 100.0 fs  (heat bath coupling)
# P_damp = 1000.0 fs  (pressure bath coupling, ~10x T_damp typical)
# Ramp: T=300.0->300.0K  P=1.0->1.0atm
timestep 1.0
fix npt_fix all npt temp 300.0 300.0 100.0 iso 1.0 1.0 1000.0

run 2000000
PPPM Kokkos initialization ...
  using 12-bit tables for long-range coulomb
  G vector (1/distance) = 0.30691943
  grid = 36 36 36
  stencil order = 5
  estimated absolute RMS force accuracy = 0.00037809508
  estimated relative force accuracy = 1.1386221e-06
  using double precision cuFFT
  3d grid and FFT values/proc = 79507 46656
Generated 21 of 21 mixed pair_coeff terms from sixthpower/sixthpower mixing rule
Neighbor list info ...
  update: every = 1 steps, delay = 0 steps, check = yes
  max neighbors/atom: 4000, page size: 100000
  master list distance cutoff = 11.5
  ghost atom cutoff = 11.5
  binsize = 11.5, bins = 5 5 5
  1 neighbor lists, perpetual/occasional/extra = 1 0 0
  (1) pair lj/class2/coul/long/kk, perpetual
      attributes: full, newton off, kokkos_device
      pair build: full/bin/kk/device
      stencil: full/bin/3d
      bin: kk/device
Per MPI rank memory allocation (min/avg/max) = 36.6 | 36.6 | 36.6 Mbytes
   Step          Time           Temp          Press         Enthalpy        TotEng         KinEng         PotEng         E_bond        E_angle        E_dihed        E_impro         E_vdwl         E_coul         E_long         E_tail         Volume           Lx             Ly             Lz          Density          Pxx            Pyy            Pzz      
         0   0              298.94441     -856.24246      26166.192      27449.726      7769.4704      19680.256      4037.2373      5851.6191      5364.2189      436.37386     -1291.1899      15690.807     -10408.811     -782.08954      102786.2       46.843026      46.843026      46.843026      1.1926206     -578.84998     -614.2407      -1375.6367    
      1000   1000           297.56149      532.34399      28010.288      27216.062      7733.5286      19482.533      4013.4608      5793.2587      5251.7359      436.72856     -1291.7064      15692.146     -10413.091     -785.80579      102300.1       46.769065      46.769065      46.769065      1.1982876     -243.30381      1314.8954      525.44035    
      2000   2000           299.23228      474.77149      28082.943      27374.194      7776.9519      19597.242      4061.6825      5830.4609      5287.9686      451.24199     -1296.7066      15676.618     -10414.023     -785.34273      102360.42      46.778255      46.778255      46.778255      1.1975815      938.96725     -339.47604      824.82326    
      3000   3000           300.81202     -67.349652      27376.768      27477.518      7818.009       19659.509      3960.9953      5781.7287      5454.7042      449.20519     -1272.6219      15696.12      -10410.622     -783.71231      102573.37      46.810672      46.810672      46.810672      1.1950952     -1907.6583      454.32956      1251.2798    
      4000   4000           301.78269      1128.7278      29030.364      27338.979      7843.2364      19495.743      3974.2891      5789.7141      5185.8118      449.38529     -1189.4902      15694.47      -10408.438     -782.37314      102748.94      46.837365      46.837365      46.837365      1.1930531      954.67847      214.68581      2216.8191    
      5000   5000           297.09901     -398.26712      26677.479      27275.547      7721.509       19554.038      3967.0222      5849.1797      5305.4836      425.60599     -1274.5005      15691.175     -10409.928     -780.71237      102967.51      46.870553      46.870553      46.870553      1.1905205     -917.25694     -1009.8531      732.3087     
      6000   6000           301.5912       510.17715      28214.874      27452.672      7838.2597      19614.412      4058.0955      5874.5257      5213.2064      445.93868     -1260.6666      15688.834     -10405.521     -784.726        102440.87      46.790507      46.790507      46.790507      1.196641      -1248.837       1784.5525      994.81594    
      7000   7000           294.36943      1146.5933      29015.255      27304.757      7650.5681      19654.189      4125.6818      5768.2667      5295.6223      445.4597      -1260.9541      15686.592     -10406.479     -785.87611      102290.95      46.76767       46.76767       46.76767       1.1983948      347.97647      985.35367      2106.4498    
      8000   8000           298.73533      751.38311      28624.016      27495.517      7764.0364      19731.481      4117.6813      5789.5473      5284.9261      455.02727     -1202.2035      15698.062     -10411.56      -780.59821      102982.57      46.872838      46.872838      46.872838      1.1903464      1258.9341      294.21102      701.00425    
      9000   9000           298.27831      592.01784      28243.796      27357.614      7752.1586      19605.456      4064.6577      5859.6954      5260.7559      418.30686     -1265.897       15678.438     -10410.501     -783.21194      102638.9       46.820638      46.820638      46.820638      1.1943322      640.69574     -299.24512      1434.6029    
     10000   10000          293.90281     -1428.917       25106.615      27247.909      7638.4407      19609.468      3946.9467      5778.1609      5440.9609      442.70228     -1278.5427      15689.614     -10410.374     -782.34411      102752.76      46.837944      46.837944      46.837944      1.1930088     -821.62059     -1448.6197     -2016.5108    
     11000   11000          304.45866      1554.9534      29813.029      27491.663      7912.784       19578.879      4027.625       5836.072       5269.2895      448.91872     -1295.4238      15702.26      -10409.862     -785.3097       102364.73      46.778911      46.778911      46.778911      1.1975311      1724.4862      2506.7088      433.66513    
     12000   12000          300.29457      662.95787      28469.498      27480.517      7804.5606      19675.956      4125.7711      5871.0376      5230.6974      426.20871     -1238.4819      15672.799     -10412.076     -785.89626      102288.33      46.767271      46.767271      46.767271      1.1984255      517.4689       173.43795      1297.9668    
     13000   13000          297.41805      370.64945      27912.737      27359.309      7729.8008      19629.508      4091.6338      5709.732       5311.6262      444.77654     -1212.4194      15693.654     -10409.495     -785.18053      102381.57      46.781476      46.781476      46.781476      1.1973341     -1821.7233      1524.9376      1408.7341    
     14000   14000          302.48351      818.26998      28672.868      27447.801      7861.4506      19586.35       4051.4468      5845.7192      5262.1368      441.2499      -1296.2597      15695.269     -10413.212     -783.07565      102656.76      46.823355      46.823355      46.823355      1.1941243      1443.2253     -48.367249      1059.9519    
     15000   15000          301.85388      570.17149      28345.341      27492.819      7845.0865      19647.733      3995.1931      5814.5287      5317.4164      444.43133     -1188.8802      15680.216     -10415.173     -784.09256      102523.63      46.803104      46.803104      46.803104      1.1956751     -217.89389     -347.63871      2276.0471    
     16000   16000          301.25421     -697.70174      26362.811      27409.451      7829.5014      19579.95       4017.3226      5839.1454      5268.7195      436.99295     -1263.5067      15691.37      -10410.094     -781.51862      102861.29      46.85443       46.85443       46.85443       1.19175       -2299.6114     -184.6464       391.15261    
     17000   17000          299.25835      363.47272      27992.51       27448.964      7777.6296      19671.334      4044.9627      5887.223       5277.1438      446.88919     -1270.3022      15700.683     -10415.265     -783.97516      102538.98      46.80544       46.80544       46.80544       1.195496      -186.19264      990.12738      286.48341    
     18000   18000          298.07266     -685.27684      26286.564      27309.265      7746.8139      19562.451      4008.8949      5849.9937      5277.1952      442.77543     -1297.0981      15692.143     -10411.453     -785.56961      102330.86      46.773752      46.773752      46.773752      1.1979274      608.71411     -1527.7092     -1136.8354    
     19000   19000          299.37651     -1409.4284      25309.089      27412.887      7780.7006      19632.186      4033.5551      5898.1534      5380.9385      438.47827     -1398.4128      15688.32      -10408.846     -785.42767      102349.35      46.776569      46.776569      46.776569      1.197711      -105.96582     -2904.0625     -1218.2568    
     20000   20000          296.9434       409.46811      27981.228      27370.259      7717.4648      19652.795      4079.3944      5825.8663      5311.5893      438.12588     -1287.041       15695.062     -10410.202     -785.72059      102311.2       46.770756      46.770756      46.770756      1.1981577      883.85099     -100.45677      445.01013    
     21000   21000          304.84269      211.62676      27701.175      27385.448      7922.7648      19462.683      3994.3626      5828.7979      5216.8731      429.76226     -1300.7073      15699.694     -10406.1       -785.82483      102297.62      46.768688      46.768688      46.768688      1.1983166      2020.8461      255.93749     -1641.9033    
     22000   22000          298.6743      -404.56146      26833.596      27435.133      7762.4503      19672.682      4096.783       5751.8881      5451.305       448.47148     -1349.6035      15686.369     -10412.531     -788.47823      101953.37      46.716166      46.716166      46.716166      1.2023628     -1010.5518      520.76111     -723.89372    
     23000   23000          296.44056      289.29468      27734.528      27301.757      7704.3961      19597.361      4028.4875      5861.1275      5263.0316      442.01434     -1285.0308      15700.218     -10412.486     -783.69905      102575.11      46.810936      46.810936      46.810936      1.195075       143.06936      621.00843      103.80624    
     24000   24000          301.99357      1085.4726      29045.226      27421.454      7848.7171      19572.737      4080.5507      5829.6073      5251.5566      424.26338     -1315.1527      15711.954     -10410.042     -783.72022      102572.34      46.810515      46.810515      46.810515      1.1951073      297.30508      2186.4443      772.66853    
     25000   25000          297.86116      40.560481      27490.676      27430.14       7741.3171      19688.823      4052.3418      5946.2381      5322.1023      425.7854      -1357.3161      15709.424     -10409.753     -785.51739      102337.66      46.774788      46.774788      46.774788      1.1978478      722.10981      473.01385     -1073.4422    
     26000   26000          297.56833      252.48705      27622.714      27244.603      7733.7066      19510.897      3945.4054      5852.6893      5248.0107      429.50466     -1257.5891      15700.22      -10407.344     -782.86636      102684.21      46.827527      46.827527      46.827527      1.1938052      820.53752      608.78871     -671.86508    
     27000   27000          302.64097     -194.11157      26992.672      27282.972      7865.5429      19417.429      4004.7284      5798.8398      5227.6778      418.56151     -1315.0987      15699.355     -10416.635     -783.92138      102546.01      46.80651       46.80651       46.80651       1.195414      -408.70516     -53.017052     -120.6125     
     28000   28000          302.88508      14.523131      27492.851      27471.044      7871.887       19599.157      4003.2645      5883.238       5285.6258      439.83834     -1283.3296      15684.351     -10413.831     -780.79196      102957.02      46.86896       46.86896       46.86896       1.1906419     -1320.7866     -258.63921      1622.9952    
     29000   29000          297.82789     -297.03793      26838.774      27282.263      7740.4523      19541.811      4029.4548      5798.5458      5295.5223      430.61153     -1290.3134      15690.476     -10412.486     -785.22833      102375.33      46.780527      46.780527      46.780527      1.197407       282.15231      447.41938     -1620.6855    
     30000   30000          299.53817     -228.50447      27144.438      27485.938      7784.9022      19701.036      4049.9869      5808.4656      5324.5176      434.96249     -1213.113       15707.482     -10411.266     -784.46012      102475.59      46.795793      46.795793      46.795793      1.1962355      1001.601      -1218.0918     -469.02261    
     31000   31000          303.60294     -129.33279      27348.033      27541.515      7890.5441      19650.971      4107.2483      5901.2044      5250.5371      441.15485     -1327.135       15690.172     -10412.211     -783.67289      102578.53      46.811457      46.811457      46.811457      1.1950351     -1325.0863     -210.43609      1147.5241    
     32000   32000          294.94842      1010.3537      28668.105      27155.375      7665.616       19489.759      3940.3773      5799.08        5225.383       442.70482     -1188.7023      15684.097     -10413.18      -783.03165      102662.53      46.824232      46.824232      46.824232      1.1940572      1798.1094      658.01704      574.9347     
     33000   33000          303.37415      342.73524      27943.09       27430.379      7884.598       19545.781      4008.6788      5832.3391      5272.1627      426.77106     -1265.987       15686.511     -10414.694     -783.70719      102574.04      46.810774      46.810774      46.810774      1.1950874     -1.6717205      571.41782      458.45961    
     34000   34000          299.83587      877.97318      28544.871      27232.863      7792.6392      19440.224      3960.1178      5789.3924      5184.5604      430.91206     -1222.5199      15706.201     -10408.44      -784.53437      102465.89      46.794316      46.794316      46.794316      1.1963488      907.24124      915.63299      811.04531    
     35000   35000          302.82809     -533.32216      26621.329      27418.514      7870.4059      19548.108      3974.4427      5889.3634      5256.2264      440.24672     -1314.564       15712.621     -10410.229     -784.32801      102492.85      46.79842       46.79842       46.79842       1.1960341      996.67199     -670.86575     -1925.7727    
     36000   36000          303.25408      1742.5226      30133.602      27534.693      7881.4774      19653.216      4111.0977      5798.6767      5276.9251      434.57145     -1245.1401      15691.3       -10414.215     -786.05803      102267.28      46.764062      46.764062      46.764062      1.1986722      951.88136      1715.4802      2560.2061    
     37000   37000          298.56982     -566.68348      26452.326      27300.09       7759.7349      19540.355      4010.2436      5805.5272      5267.8221      443.71547     -1256.3428      15681.448     -10412.058     -783.66876      102579.07      46.811539      46.811539      46.811539      1.1950288     -148.41011     -170.61216     -1381.0282    
     38000   38000          299.14262      618.79565      28407.3        27480.675      7774.6217      19706.053      4042.2376      5887.1751      5321.8656      450.52655     -1295.1722      15704.965     -10405.545     -782.90722      102678.85      46.826712      46.826712      46.826712      1.1938675      1139.7125     -173.45172      890.12613    
     39000   39000          302.82224      110.35743      27634.387      27470.27       7870.254       19600.016      3970.2299      5790.3316      5409.9608      444.56886     -1292.3791      15688.796     -10411.492     -788.34428      101970.69      46.718812      46.718812      46.718812      1.2021586     -589.8653      -139.68218      1060.6198    
     40000   40000          297.86798      734.37323      28395.061      27298.647      7741.4944      19557.153      3929.4481      5864.731       5262.9643      448.5414      -1229.6367      15689.677     -10408.572     -785.25246      102372.19      46.780048      46.780048      46.780048      1.1974438     -525.65413      1203.8117      1524.9621    
     41000   41000          303.06158     -380.31543      26994.753      27562.238      7876.4744      19685.763      4031.1492      5880.5591      5335.3679      454.25567     -1293.2158      15688.747     -10411.1       -785.70022      102313.85      46.77116       46.77116       46.77116       1.1981266     -836.41998     -327.07768      22.551362    
     42000   42000          300.19984      565.92667      28248.091      27398.302      7802.0986      19596.204      4063.9515      5829.0276      5255.3142      440.00684     -1287.7338      15707.886     -10412.248     -780.7578       102961.52      46.869644      46.869644      46.869644      1.1905898     -462.08516      292.95158      1866.9136    
     43000   43000          301.09734     -1215.8704      25636.955      27451.412      7825.4244      19625.988      4064.8347      5806.2841      5379.5128      429.38288     -1352.3801      15702.602     -10404.248     -785.61134      102325.42      46.772924      46.772924      46.772924      1.1979911     -346.90256     -1489.074      -1811.6347    
     44000   44000          301.38905     -816.09717      26153.434      27370.562      7833.0058      19537.556      3996.2907      5798.6347      5327.643       427.91458     -1277.6534      15677.279     -10412.552     -786.09086      102263         46.763411      46.763411      46.763411      1.1987223     -817.34568     -1944.4409      313.49503    
     45000   45000          301.29617      494.48287      28078.168      27339.353      7830.5918      19508.761      4012.8283      5825.5529      5230.3328      436.70055     -1282.5447      15693.162     -10407.271     -784.6621       102449.21      46.791777      46.791777      46.791777      1.1965435      2486.5091     -969.76818     -33.29227     
     46000   46000          302.72964      516.16456      28323.941      27552.443      7867.8473      19684.596      4108.8517      5830.4308      5264.9869      411.23297     -1207.7441      15689.733     -10412.896     -784.36914      102487.48      46.797602      46.797602      46.797602      1.1960968      924.8843       4.5121422      619.09724    
     47000   47000          299.82166     -288.29179      26898.573      27332.26       7792.2698      19539.99       3996.5407      5891.7083      5216.2138      442.09042     -1286.1927      15691.437     -10411.807     -779.33306      103149.75      46.898188      46.898188      46.898188      1.1884172     -1914.9826     -711.25701      1761.3643    
     48000   48000          297.3243      -952.03766      25932.585      27358.813      7727.3641      19631.449      4040.1892      5787.3428      5354.8231      440.64306     -1259.5015      15682.47      -10414.518     -782.58633      102720.95      46.833112      46.833112      46.833112      1.1933782     -502.47309     -554.18695     -1799.4529    
     49000   49000          298.84536      842.73727      28594.623      27340.72       7766.8961      19573.824      4088.4775      5817.7806      5262.5163      431.14619     -1312.0518      15695.109     -10409.154     -787.94437      102022.45      46.726715      46.726715      46.726715      1.2015487      1143.5051     -223.96368      1608.6704    
     50000   50000          296.52162     -79.825178      27138.538      27257.658      7706.5029      19551.155      4041.6702      5765.8087      5300.0538      431.71076     -1256.2847      15686.041     -10417.844     -785.63581      102322.24      46.772438      46.772438      46.772438      1.1980284      615.45661     -1608.8561      753.92393    
     51000   51000          299.32607     -436.21603      26783.204      27436.714      7779.3897      19657.324      3979.8571      5852.1304      5334.7917      445.90417     -1227.0626      15686.352     -10414.648     -782.55785      102724.69      46.83368       46.83368       46.83368       1.1933347      668.36579     -595.43584     -1381.578     
     52000   52000          300.90392     -327.66198      27030.803      27521.865      7820.3974      19701.468      4067.5746      5825.7361      5372.6805      440.5466      -1299.4095      15704.205     -10409.865     -782.26961      102762.54      46.839431      46.839431      46.839431      1.1928952      317.52279     -1094.423      -206.08571    
     53000   53000          299.96856     -289.77118      27033.965      27467.897      7796.0878      19671.809      4047.6714      5872.8678      5266.4298      454.46305     -1225.2824      15667.347     -10411.688     -782.89036      102681.06      46.827048      46.827048      46.827048      1.1938418      614.40869     -148.50852     -1335.2137    
     54000   54000          300.58631     -53.549459      27351.362      27431.469      7812.1427      19619.326      4023.6221      5796.0284      5307.8452      442.95905     -1242.5714      15698.876     -10407.433     -783.70383      102574.48      46.810841      46.810841      46.810841      1.1950823      132.84924     -217.53634     -75.961279    
     55000   55000          300.9495      -892.49483      26163.353      27499.39       7821.5822      19677.808      3990.5264      5964.9253      5288.8245      457.05803     -1296.5655      15686.364     -10413.325     -783.16722      102644.76      46.82153       46.82153       46.82153       1.194264      -1325.3796     -647.19042     -704.91446    
     56000   56000          299.8681      -250.34451      26964.21       27337.133      7793.4767      19543.657      3970.1875      5761.5557      5425.3951      453.5155      -1342.6353      15687.765     -10412.127     -787.01913      102142.39      46.745018      46.745018      46.745018      1.2001378     -613.80181     -1110.5421      973.31039    
     57000   57000          299.10103      873.86836      28791.004      27482.41       7773.5408      19708.869      4032.1588      5800.3484      5414.7842      439.1694      -1261.213       15695.902     -10412.28      -782.90326      102679.37      46.826791      46.826791      46.826791      1.1938615      401.86364      828.50736      1391.2341    
     58000   58000          301.88777      187.01843      27631.703      27353.157      7845.9674      19507.189      4013.4526      5755.2405      5314.5897      453.18696     -1304.6444      15686.442     -10411.078     -787.14427      102126.15      46.742541      46.742541      46.742541      1.2003286     -677.00815      1017.9202      220.1432     
     59000   59000          302.72132      70.321112      27666.973      27561.856      7867.631       19694.225      4083.1839      5827.3327      5350.9752      440.22491     -1278.6442      15682.426     -10411.274     -784.29708      102496.89      46.799035      46.799035      46.799035      1.1959869     -555.08186      706.04762      59.997577    
     60000   60000          301.85444     -158.44692      27096.261      27333.909      7845.1012      19488.808      3946.3767      5734.7845      5375.065       440.77145     -1296.9304      15701.621     -10412.88      -781.65628      102843.17      46.851679      46.851679      46.851679      1.1919599     -279.74927     -100.56186     -95.029636    
     61000   61000          297.18868      7.8298157      27270.773      27259.03       7723.8396      19535.191      3970.0836      5825.0471      5301.192       439.91109     -1278.2395      15689.704     -10412.508     -781.72494      102834.14      46.850307      46.850307      46.850307      1.1920646     -966.03445     -198.34688      1187.8708    
     62000   62000          301.50734      722.64011      28407.328      27331.406      7836.0801      19495.326      4057.0427      5732.8887      5243.5669      463.75301     -1278.8426      15689.268     -10412.351     -787.42394      102089.88      46.737006      46.737006      46.737006      1.2007551      855.53674      1257.9067      54.476932    
     63000   63000          303.48109     -296.34631      27027.723      27469.799      7887.3773      19582.421      3998.5102      5777.7637      5368.6322      438.0955      -1293.7052      15706.91      -10413.785     -785.90536      102287.14      46.76709       46.76709       46.76709       1.1984394     -273.84189     -461.55939     -153.63764    
     64000   64000          298.85044     -571.93664      26445.113      27299.845      7767.0282      19532.817      4049.5768      5803.9241      5305.7548      422.78098     -1320.5729      15681.655     -10410.303     -784.486        102472.21      46.795278      46.795278      46.795278      1.196275      -610.14146     -348.64538     -757.02309    
     65000   65000          302.96594     -395.61851      26956.314      27549.611      7873.9887      19675.623      4058.8407      5766.8635      5406.0193      434.88139     -1263.5138      15687.328     -10414.797     -781.75644      102830         46.849678      46.849678      46.849678      1.1921127      604.82898     -906.91392     -884.7706     
     66000   66000          299.29968      346.95096      27961.934      27447.043      7778.7036      19668.339      4058.2882      5838.3482      5342.0215      430.80336     -1289.4857      15705.021     -10416.658     -789.98585      101758.8       46.686429      46.686429      46.686429      1.2046618      1307.083       854.13309     -1120.3632    
     67000   67000          298.82381     -404.56503      26771.879      27375.167      7766.3361      19608.831      4044.7169      5821.625       5296.5005      435.34151     -1266.9641      15688.678     -10411.067     -786.19528      102249.42      46.761341      46.761341      46.761341      1.1988815     -114.94398     -120.78877     -977.96234    
     68000   68000          301.62973      158.29215      27676.231      27440.557      7839.2611      19601.296      4033.8451      5813.2497      5271.6666      433.91857     -1271.5206      15728.007     -10407.871     -787.43369      102088.61      46.736814      46.736814      46.736814      1.20077        626.83684      821.93169     -973.89207    
     69000   69000          301.05064      764.41692      28442.686      27303.652      7824.2108      19479.441      4108.5012      5849.4752      5162.0624      400.79882     -1345.1729      15713.488     -10409.711     -786.79319      102171.72      46.749492      46.749492      46.749492      1.1997933     -456.08269      1892.7237      856.60972    
     70000   70000          304.96636      430.55271      28229.175      27586.209      7925.979       19660.23       4085.7511      5799.3855      5309.4162      441.96989     -1260.4129      15697.041     -10412.92      -785.06477      102396.66      46.783776      46.783776      46.783776      1.1971576     -546.05068      803.3688       1034.34      
     71000   71000          302.61353     -737.08863      26317.155      27418.132      7864.8297      19553.302      4045.5005      5824.6606      5335.5018      419.74594     -1331.6209      15677.055     -10417.54      -784.88975      102419.5       46.787253      46.787253      46.787253      1.1968907     -1275.3049     -255.75248     -680.20846    
     72000   72000          303.76882      1241.0961      29229.348      27366.924      7894.8552      19472.068      3996.3413      5786.3919      5214.9042      441.40039     -1244.8423      15692.602     -10414.729     -781.25717      102895.71      46.859656      46.859656      46.859656      1.1913513      1002.8007      977.45321      1743.0345    
     73000   73000          303.29408      596.00847      28276.859      27391.809      7882.517       19509.292      3946.6693      5808.798       5335.5813      437.86549     -1294.6315      15689.109     -10414.1       -789.4995       101821.49      46.696014      46.696014      46.696014      1.2039202      1062.2307     -795.38068      1521.1754    
     74000   74000          302.08926     -776.89726      26401.797      27567.958      7851.2042      19716.754      4015.8235      5817.3299      5471.1829      441.26483     -1311.8778      15693.914     -10410.884     -781.03798      102924.59      46.864039      46.864039      46.864039      1.1910171      316.04147     -2275.3714     -371.36191    
     75000   75000          296.08252     -775.67011      26207.35       27371.446      7695.0909      19676.355      4034.876       5836.2992      5329.2878      430.60069     -1255.6333      15708.319     -10407.394     -781.18806      102904.82      46.861037      46.861037      46.861037      1.1912459     -587.37554     -1063.6568     -675.97803    
     76000   76000          299.09321      880.76048      28654.455      27337.241      7773.3376      19563.903      4020.0754      5809.7393      5284.6967      441.53253     -1271.6445      15691.682     -10412.178     -783.91421      102546.95      46.806653      46.806653      46.806653      1.1954031      633.23395      1087.1772      921.87026    
     77000   77000          301.44506      168.84904      27688.927      27436.543      7834.4615      19602.082      4075.9884      5887.2025      5177.8956      441.1369      -1270.0132      15698.337     -10408.466     -784.34003      102491.28      46.798181      46.798181      46.798181      1.1960524      553.41707     -159.80765      112.9377     
     78000   78000          297.86128      577.34026      28247.008      27386.023      7741.3203      19644.703      4079.844       5938.9408      5149.931       425.63539     -1243.7715      15703.032     -10408.909     -786.1471       102255.69      46.762296      46.762296      46.762296      1.198808       718.60305     -8.3203838      1021.7381    
     79000   79000          302.29744      1109.9164      29051.672      27395.665      7856.6145      19539.051      4031.1989      5848.1713      5165.0163      436.48907     -1231.225       15698.827     -10409.426     -785.76997      102304.77      46.769776      46.769776      46.769776      1.1982329      325.06593      1969.3453      1035.3381    
     80000   80000          296.3555      -364.80775      26696.18       27243.295      7702.1855      19541.109      3974.7564      5866.5846      5273.3044      421.76711     -1280.6724      15695.708     -10410.339     -781.72349      102834.33      46.850336      46.850336      46.850336      1.1920624     -304.72894     -543.07528     -246.61904    
     81000   81000          302.70687     -321.99262      26931.889      27415.377      7867.2555      19548.122      4001.0362      5838.0141      5250.097       439.47649     -1258.6523      15688.616     -10410.466     -780.77673      102959.03      46.869265      46.869265      46.869265      1.1906187      209.94606     -87.967822     -1087.9561    
     82000   82000          302.95285     -314.17914      26958.343      27428.447      7873.6484      19554.799      3980.4994      5862.7016      5304.5926      420.29569     -1304.8794      15701.223     -10409.634     -783.51972      102598.58      46.814507      46.814507      46.814507      1.1948015     -1181.7906     -816.53999      1055.7931    
     83000   83000          297.00113      39.596069      27319.747      27260.076      7718.9652      19541.111      3947.0958      5907.0667      5239.9998      445.58813     -1291.1155      15702.133     -10409.657     -777.96939      103330.56      46.925574      46.925574      46.925574      1.1863377     -371.4899       23.779679      466.49842    
     84000   84000          297.61658     -214.82859      27060.426      27381.437      7734.9604      19646.476      4021.9592      5841.4704      5304.6608      452.68262     -1266.8558      15703.276     -10410.717     -784.58515      102459.26      46.793307      46.793307      46.793307      1.1964262      199.0128      -386.3358      -457.16277    
     85000   85000          300.31597      27.646126      27498.019      27456.808      7805.1167      19651.692      4030.2596      5841.8298      5347.6257      425.46759     -1282.611       15700.048     -10410.928     -786.49773      102210.1       46.755346      46.755346      46.755346      1.1993427      770.04672     -777.00569      89.897356    
     86000   86000          299.82074      1103.9554      28968.399      27321.838      7792.2459      19529.592      3994.4014      5890.016       5214.0929      435.486       -1303.5419      15706.955     -10407.817     -786.03328      102270.5       46.764553      46.764553      46.764553      1.1986345      1729.1604      2462.9192     -880.21333    
     87000   87000          301.53395      1074.1913      29164.322      27553.529      7836.7716      19716.758      4079.8791      5887.3977      5293.4836      453.45006     -1271.2332      15683.131     -10409.351     -781.8244       102821.06      46.84832       46.84832       46.84832       1.1922163      1886.07        1005.3338      331.17006    
     88000   88000          301.09001     -524.07839      26590.939      27375.066      7825.234       19549.832      3998.4499      5775.2055      5318.8676      428.57031     -1249.8456      15687.692     -10409.108     -783.56873      102592.17      46.813531      46.813531      46.813531      1.1948762     -787.55403     -816.83405      32.152902    
     89000   89000          301.25412      467.69925      28072.885      27375.448      7829.4991      19545.949      3954.9362      5788.4576      5332.6114      437.56654     -1260.1038      15700.44      -10407.959     -786.19245      102249.79      46.761397      46.761397      46.761397      1.1988772     -468.48806      1865.3065      6.2792562    
     90000   90000          300.56553     -243.92359      27008.595      27372.645      7811.6028      19561.042      4040.4924      5763.7874      5390.4519      438.10549     -1354.5942      15692.61      -10409.811     -785.52566      102336.59      46.774624      46.774624      46.774624      1.1978604     -55.140459     -21.881018     -654.74931    
     91000   91000          300.90336     -1782.0998      24676.733      27346.647      7820.383       19526.264      3962.8531      5705.7639      5391.3401      455.33499     -1297.1592      15708.696     -10400.565     -782.53171      102728.12      46.834201      46.834201      46.834201      1.1932949     -1716.2927     -3511.9368     -118.06992    
     92000   92000          299.61853      1270.0924      29274.148      27372.526      7786.9907      19585.535      4029.2794      5788.6469      5299.8669      428.56149     -1265.9952      15715.262     -10410.087     -783.02972      102662.79      46.82427       46.82427       46.82427       1.1940543      979.54791      704.58636      2126.1429    
     93000   93000          298.00266      858.81603      28676.444      27393.471      7744.9946      19648.477      4155.3055      5791.026       5245.618       433.44715     -1272.9282      15705.685     -10409.677     -784.78345      102433.37      46.789365      46.789365      46.789365      1.1967286      539.7843       1214.0958      822.56797    
     94000   94000          296.82965     -998.03736      25672.741      27164.155      7714.5085      19449.646      3860.9837      5724.6758      5372.1341      446.05181     -1250.2467      15706.623     -10410.575     -784.54151      102464.96      46.794174      46.794174      46.794174      1.1963596     -1350.1827     -1351.8324     -292.09701    
     95000   95000          299.00503     -4.7197726      27354.418      27361.478      7771.046       19590.432      3894.3943      5854.745       5367.2479      451.90308     -1251.0816      15687.583     -10414.359     -783.73943      102569.82      46.810132      46.810132      46.810132      1.1951366      977.4729      -299.95357     -691.67864    
     96000   96000          300.39024     -648.81982      26490.222      27463.659      7807.047       19656.612      3896.3295      5805.5981      5455.465       453.8604      -1240.809       15698.683     -10412.515     -781.41758      102874.59      46.856449      46.856449      46.856449      1.1915959      117.44419     -836.62248     -1227.2812    
     97000   97000          300.37691      292.80393      27645.822      27210.334      7806.7006      19403.634      3976.8596      5772.7789      5255.0502      435.2406      -1325.1032      15704.463     -10415.656     -788.25695      101981.99      46.720537      46.720537      46.720537      1.2020254     -194.82041      1227.2006     -153.96838    
     98000   98000          296.30603     -540.62144      26537.289      27348.453      7700.8997      19647.553      3953.6358      5799.7636      5388.961       442.43491     -1226.0064      15699.53      -10410.765     -781.3613       102882         46.857574      46.857574      46.857574      1.1915101     -1238.5986      107.83794     -491.10364    
     99000   99000          302.78829      718.29228      28660.356      27586.67       7869.3717      19717.298      4051.5462      5776.2678      5361.9693      465.85447     -1216.9443      15684.748     -10406.143     -784.31622      102494.39      46.798654      46.798654      46.798654      1.1960161      1054.5863      1236.7064     -136.41592    
    100000   100000         299.2157       1574.7522      29843.568      27478.861      7776.5211      19702.34       4100.9626      5858.3925      5209.9707      457.21395     -1224.7479      15708.837     -10408.289     -780.73209      102964.91      46.870158      46.870158      46.870158      1.1905506      1274.3807      120.91188      3328.964     
    101000   101000         297.31441     -277.01852      27025.331      27439.956      7727.1071      19712.849      4099.1346      5827.4785      5311.7853      448.52147     -1258.7776      15695.95      -10411.243     -783.28545      102629.27      46.819174      46.819174      46.819174      1.1944443     -2406.415      -132.52162      1707.881     
    102000   102000         301.5205      -1169.7349      25748.255      27512.384      7836.4222      19675.962      4036.0175      5902.077       5338.6965      437.46505     -1324.4616      15693.926     -10407.759     -777.36363      103411.08      46.93776       46.93776       46.93776       1.185414      -1052.5064     -795.02379     -1661.6745    
    103000   103000         293.16138      230.51297      27514.138      27169.823      7619.1714      19550.652      4088.0107      5802.5676      5232.4486      436.45246     -1297.2895      15695.69      -10407.228     -784.88721      102419.83      46.787303      46.787303      46.787303      1.1968868     -60.593421      588.12876      164.00357    
    104000   104000         300.5406       1063.067       29118.508      27527.334      7810.9548      19716.38       4100.3741      5907.0022      5241.3819      438.97697     -1262.3233      15699.848     -10408.88      -783.26787      102631.57      46.819524      46.819524      46.819524      1.1944175      2203.4018      542.5009       443.29826    
    105000   105000         299.29811      283.33865      27827.686      27404.527      7778.663       19625.864      4117.8756      5868.1661      5268.0952      429.66903     -1352.7606      15701.641     -10406.822     -784.9986       102405.29      46.78509       46.78509       46.78509       1.1970567     -579.96199      799.84052      630.13742    
    106000   106000         302.53535      1508.2249      29768.143      27520.936      7862.7978      19658.138      4079.0965      5895.2018      5204.7727      437.6704      -1259.0776      15708.837     -10408.363     -786.84673      102164.77      46.748432      46.748432      46.748432      1.1998749      2475.9486      1261.6492      787.07674    
    107000   107000         300.99953     -1094.2287      25728.035      27362.675      7822.8823      19539.793      4017.6799      5742.4665      5347.3373      438.55204     -1301.6987      15701.449     -10405.993     -784.78923      102432.62      46.78925       46.78925       46.78925       1.1967374     -293.13088     -1435.4628     -1554.0923    
    108000   108000         295.32079     -1110.7532      25568.13       27234.366      7675.2936      19559.072      4032.4045      5810.5904      5266.5989      436.09433     -1274.9309      15697.666     -10409.351     -781.53467      102859.18      46.854109      46.854109      46.854109      1.1917745     -568.80379     -1009.0296     -1754.4261    
    109000   109000         302.13814      35.790432      27432.82       27379.241      7852.4745      19526.766      4007.7531      5797.6738      5313.1571      435.39916     -1314.0378      15700.511     -10413.691     -783.14078      102648.23      46.822057      46.822057      46.822057      1.1942237     -344.47101     -858.83987      1310.6822    
    110000   110000         304.34712     -1316.9972      25443.714      27414.681      7909.885       19504.796      3984.0274      5889.9182      5253.2534      436.03945     -1341.5156      15696.413     -10413.34      -783.3805       102616.82      46.81728       46.81728       46.81728       1.1945892     -751.1178      -1832.9282     -1366.9455    
    111000   111000         300.37414      265.66392      28037.724      27642.589      7806.6288      19835.96       4117.346       6001.3235      5335.9441      434.90489     -1328.0229      15686.064     -10411.599     -788.23072      101985.38      46.721055      46.721055      46.721055      1.2019854      496.22786     -523.07434      823.83824    
    112000   112000         299.66648      1019.6221      28904.417      27378.875      7788.2367      19590.638      4145.6173      5813.3311      5171.3602      422.16292     -1262.6947      15705.063     -10404.202     -783.57788      102590.97      46.813349      46.813349      46.813349      1.1948902      897.53095      1593.0923      568.24318    
    113000   113000         301.2225      -434.60256      26782.044      27433.591      7828.6773      19604.914      4055.402       5789.8208      5318.7715      448.24642     -1297.7693      15699.323     -10408.881     -782.01285      102796.28      46.844557      46.844557      46.844557      1.1925037     -872.72224     -154.94318     -276.14226    
    114000   114000         296.77379     -29.50819       27372.856      27416.859      7713.0567      19703.802      4164.6432      5818.9294      5334.8662      446.63813     -1330.2918      15682.026     -10413.009     -786.18839      102250.32      46.761477      46.761477      46.761477      1.198871      -551.08899     -457.51981      920.08423    
    115000   115000         301.58003     -0.70105056     27515.601      27516.646      7837.9693      19678.677      4122.2879      5851.2789      5295.3752      437.77109     -1313.561       15694.033     -10408.508     -785.90355      102287.38      46.767126      46.767126      46.767126      1.1984367     -865.18205      263.00189      600.077      
    116000   116000         305.02936      41.641762      27486.741      27424.339      7927.6164      19496.723      4000.2222      5785.9972      5253.5363      445.9849      -1275.9463      15697.963     -10411.034     -782.34137      102753.12      46.837999      46.837999      46.837999      1.1930046      199.72411     -1098.646       1023.8472    
    117000   117000         297.58942      202.25818      27577.725      27275.52       7734.2546      19541.266      4005.0757      5943.5006      5131.1283      431.5282      -1267.3406      15702.41      -10405.036     -784.64157      102451.89      46.792185      46.792185      46.792185      1.1965122      1467.0459     -144.52438     -715.74697    
    118000   118000         302.20364      428.47297      28123.518      27480.176      7854.1768      19626          4095.761       5831.6631      5250.0527      448.86145     -1302.9535      15708.945     -10406.331     -780.81679      102953.74      46.868464      46.868464      46.868464      1.1906798     -85.467359      642.01541      728.87085    
    119000   119000         299.44071     -625.38738      26499.25       27432.044      7782.3692      19649.675      4076.3472      5845.3454      5314.6878      437.96475     -1308.9852      15690.789     -10406.474     -786.0144       102272.95      46.764927      46.764927      46.764927      1.1986057     -433.43069     -1317.7918     -124.93962    
    120000   120000         302.49385      142.12394      27616.718      27403.923      7861.7193      19542.204      4086.4669      5804.5014      5218.6308      439.61682     -1296.4142      15696.47      -10407.068     -783.02009      102664.05      46.824462      46.824462      46.824462      1.1940396      386.04313      11.197526      29.131179    
    121000   121000         302.28979     -592.45048      26530.154      27411.228      7856.4158      19554.812      4039.2131      5763.0466      5378.2527      438.63951     -1349.2668      15696.175     -10411.248     -788.32804      101972.79      46.719133      46.719133      46.719133      1.2021338     -1030.0884     -705.41928     -41.843789    
    122000   122000         294.59362     -804.11917      26079.758      27284.728      7656.3946      19628.334      4013.6472      5813.2217      5392.9963      442.99766     -1338.5024      15707.245     -10403.272     -782.36821      102749.59      46.837463      46.837463      46.837463      1.1930456     -877.60683     -692.97001     -841.78069    
    123000   123000         300.05018      1226.7733      29302.447      27470.19       7798.2091      19671.981      4082.3679      5893.3691      5236.9382      438.79144     -1283.3843      15710.4       -10406.502     -784.9555       102410.92      46.785947      46.785947      46.785947      1.1969909      2183.6445     -259.11947      1755.795     
    124000   124000         298.23403     -418.26617      26579.09       27203.791      7751.0078      19452.783      4035.3637      5757.7791      5245.7739      422.0056      -1314.6279      15710.217     -10403.728     -784.96055      102410.26      46.785846      46.785846      46.785846      1.1969987     -1299.4739     -57.012571      101.688      
    125000   125000         298.75766      340.72841      27797.654      27288.991      7764.6168      19524.374      4131.9601      5796.9399      5121.9327      415.92351     -1236.938       15701.95      -10407.394     -785.31742      102363.72      46.778758      46.778758      46.778758      1.1975428      1454.738      -488.01985      55.467111    
    126000   126000         299.61236      331.94166      27923.399      27427.878      7786.8301      19641.048      4062.8972      5803.8966      5325.9943      442.9174      -1282.4467      15701.29      -10413.501     -785.35665      102358.61      46.777979      46.777979      46.777979      1.1976027     -722.86139      121.80653      1596.8798    
    127000   127000         298.29847      217.34226      27695.967      27369.65       7752.6826      19616.968      4040.8212      5854.5974      5247.1638      434.56938     -1266.8716      15716.916     -10410.228     -780.858        102948.31      46.867639      46.867639      46.867639      1.1907426      1458.4054     -760.54218     -45.836405    
    128000   128000         303.61302     -184.70157      27237.311      27512.532      7890.8061      19621.726      4123.9807      5805.8792      5293.2046      442.78323     -1332.6174      15698.97      -10410.474     -786.78646      102172.59      46.749626      46.749626      46.749626      1.199783      -23.624084     -825.63738      295.15674    
    129000   129000         301.41082     -1181.4753      25654.643      27421.248      7833.5716      19587.677      3954.0847      5860.0774      5344.7769      440.25738     -1305.3426      15700.452     -10406.629     -784.06538      102527.18      46.803644      46.803644      46.803644      1.1956336     -1283.8337     -1147.907      -1112.6853    
    130000   130000         300.20404      1345.0469      29358.624      27350.686      7802.2078      19548.478      3958.9763      5910.2597      5167.7794      437.84121     -1224.5524      15707.837     -10409.663     -785.33367      102361.6       46.778435      46.778435      46.778435      1.1975676      1910.0302      1788.4195      336.69094    
    131000   131000         299.52625      137.23203      27633.425      27428.001      7784.5923      19643.408      4031.3078      5911.2997      5243.5564      428.02748     -1276.4282      15713.642     -10407.997     -783.19578      102641.02      46.82096       46.82096       46.82096       1.1943075      1257.9817      231.64859     -1077.9342    
    132000   132000         297.60923     -153.74225      27155.368      27385.268      7734.7696      19650.498      3994.6049      5870.9218      5353.3496      437.73809     -1287.286       15694.059     -10412.889     -784.00998      102534.43      46.804747      46.804747      46.804747      1.1955491     -51.883779     -173.65375     -235.68922    
    133000   133000         302.49743     -448.15396      26635.702      27306.714      7861.8124      19444.901      3934.4035      5721.5256      5310.5192      455.31207     -1257.1061      15691.18      -10410.932     -783.00463      102666.08      46.82477       46.82477       46.82477       1.194016      -404.83346     -453.08077     -486.54766    
    134000   134000         299.72139     -389.96481      26784.267      27363.53       7789.6638      19573.866      3956.5417      5723.4348      5439.218       447.98249     -1295.0117      15712.332     -10410.632     -789.255        101853.03      46.700835      46.700835      46.700835      1.2035473      319.38149     -481.23193     -1008.044     
    135000   135000         297.52914      1262.4243      29176.018      27294.519      7732.688       19561.831      4042.4078      5843.8537      5225.7049      436.88187     -1262.5308      15686.32      -10410.806     -786.62627      102193.4       46.752799      46.752799      46.752799      1.1995387      866.29515      1188.0595      1732.9182    
    136000   136000         298.63431      262.33147      27701.573      27309.875      7761.411       19548.464      3996.502       5807.2059      5294.5054      433.0271      -1277.0268      15700.717     -10406.466     -785.17563      102382.21      46.781574      46.781574      46.781574      1.1973266      643.42996     -798.90886      942.47331    
    137000   137000         301.64313     -559.42429      26602.827      27440.214      7839.6092      19600.605      4016.792       5800.2452      5347.6691      444.88368     -1292.6183      15693.791     -10410.157     -783.21648      102638.31      46.820548      46.820548      46.820548      1.1943391     -1588.2339     -25.909211     -64.12972     
    138000   138000         303.27731     -267.49449      27103.821      27503.421      7882.0812      19621.339      4002.3572      5850.6088      5359.2706      445.31866     -1320.4327      15695.977     -10411.76      -784.79685      102431.62      46.789099      46.789099      46.789099      1.196749      -9.9024142     -114.01242     -678.56863    
    139000   139000         298.43479      486.23784      28105.639      27377.545      7756.2254      19621.319      3976.5688      5854.0777      5282.0148      444.04505     -1222.3509      15695.777     -10408.813     -782.93906      102674.67      46.826077      46.826077      46.826077      1.1939161      1170.8772     -393.33832      681.17468    
    140000   140000         301.31273      461.53101      28128.343      27436.895      7831.0223      19605.873      3982.0346      5944.0068      5254.3153      442.12317     -1306.3536      15702.417     -10412.67      -782.5437       102726.55      46.833962      46.833962      46.833962      1.1933132      445.56935      646.447        292.57668    
    141000   141000         296.74207     -1540.2988      25041.091      27333.97       7712.2322      19621.738      4039.8371      5875.1709      5296.1867      428.30292     -1315.6915      15701.951     -10404.02      -787.57341      102070.5       46.73405       46.73405       46.73405       1.200983      -2221.0627     -417.6486      -1982.1852    
    142000   142000         300.81477      481.03695      28102.659      27385.703      7818.0804      19567.622      3959.5564      5816.7585      5312.3016      437.09973     -1250.6786      15702.738     -10410.153     -786.59799      102197.07      46.753359      46.753359      46.753359      1.1994956      939.80634      580.56188     -77.257379    
    143000   143000         301.99472     -766.80407      26308.13       27448.67       7848.7471      19599.923      4032.9728      5796.6129      5352.7564      423.00301     -1285.3972      15692.474     -10412.498     -788.20837      101988.28      46.721497      46.721497      46.721497      1.2019513     -246.86619     -965.00857     -1088.5374    
    144000   144000         301.158       -23.868239      27356.526      27392.262      7827.001       19565.261      4026.4302      5798.0183      5257.9657      434.30404     -1221.7388      15684.067     -10413.785     -783.04897      102660.26      46.823886      46.823886      46.823886      1.1940837     -99.756266     -566.24112      594.39267    
    145000   145000         295.76791      485.79503      28092.562      27365.692      7686.9143      19678.778      4099.2181      5891.4213      5225.3651      434.29599     -1260.7423      15696.754     -10407.534     -783.54455      102595.33      46.814013      46.814013      46.814013      1.1948394      761.7811       2253.4099     -1557.8059    
    146000   146000         300.16709      351.99324      27929.577      27404.992      7801.2475      19603.745      4071.0814      5846.3066      5206.4355      433.06902     -1245.0928      15698.411     -10406.466     -786.65821      102189.25      46.752166      46.752166      46.752166      1.1995875      317.52107     -153.32361      891.78226    
    147000   147000         300.22829     -572.35646      26661.563      27517.91       7802.8381      19715.072      4082.7904      5818.5288      5349.7311      437.10813     -1242.999       15681.597     -10411.684     -783.58104      102590.55      46.813286      46.813286      46.813286      1.194895      -344.58151     -875.55875     -496.92913    
    148000   148000         298.1874      -133.11208      27155.291      27353.624      7749.7959      19603.828      4009.5268      5822.7052      5273.6908      437.14292     -1219.3291      15688.95      -10408.858     -786.84659      102164.79      46.748435      46.748435      46.748435      1.1998747     -113.99401      351.23835     -636.58058    
    149000   149000         298.89552      1080.9167      28988.769      27372.475      7768.1998      19604.275      4076.3646      5888.0934      5165.7188      443.33065     -1260.6644      15696.799     -10405.367     -784.04128      102530.33      46.804124      46.804124      46.804124      1.1955969     -2.7478789      1795.3992      1450.0987    
    150000   150000         300.17467      1874.4249      30370.126      27564.505      7801.4445      19763.061      4118.1327      5887.4982      5222.0182      450.34        -1214.4284      15706.305     -10406.805     -783.26064      102632.52      46.819668      46.819668      46.819668      1.1944064      1842.9663      2312.0842      1468.2242    
    151000   151000         304.73754     -35.985082      27377.434      27431.577      7920.032       19511.545      4006.3912      5811.4131      5226.9071      436.92561     -1275.6443      15711.409     -10405.857     -779.20407      103166.83      46.900776      46.900776      46.900776      1.1882205     -321.56494      608.90353     -395.29383    
    152000   152000         299.12219     -905.5426       26005.848      27363.532      7774.0909      19589.441      3975.2416      5887.5841      5325.0924      440.32026     -1329.7338      15698.757     -10407.82      -781.94732      102804.9       46.845865      46.845865      46.845865      1.1924037     -536.44306     -747.2605      -1432.9243    
    153000   153000         304.5544       4.2581233      27465.234      27458.885      7915.2722      19543.613      3984.8855      5800.7238      5312.476       440.07452     -1271.5339      15689.031     -10412.044     -786.30069      102235.71      46.759251      46.759251      46.759251      1.1990423     -262.53331     -392.85199      668.15967    
    154000   154000         296.74127      434.13804      28041.927      27392.143      7712.2116      19679.931      4107.658       5858.4533      5208.852       437.30097     -1212.4534      15687.479     -10407.359     -783.29607      102627.88      46.818962      46.818962      46.818962      1.1944605      595.86234     -292.97072      999.52249    
    155000   155000         301.17952      197.44615      27693.55       27398.38       7827.5601      19570.82       4019.6932      5905.2216      5215.9841      431.18419     -1291.6933      15693.36      -10402.93      -784.23001      102505.66      46.800369      46.800369      46.800369      1.1958846      361.42909      545.8047      -314.89532    
    156000   156000         295.12456     -470.31455      26642.184      27346.801      7670.1938      19676.607      4033.6827      5868.39        5356.9644      465.0629      -1330.1384      15689.599     -10406.953     -782.53302      102727.95      46.834175      46.834175      46.834175      1.1932969      965.64152     -1474.383      -902.20213    
    157000   157000         299.69634     -764.18903      26276.296      27424.707      7789.0129      19635.695      3973.4137      5804.7323      5347.931       462.2056      -1227.1729      15682.76      -10408.175     -780.13616      103043.57      46.88209       46.88209       46.88209       1.1896419     -535.77015     -927.28619     -829.51075    
    158000   158000         298.42717     -554.66986      26429.252      27260.635      7756.0276      19504.608      3977.8195      5826.7873      5259.6129      423.96945     -1283.3624      15705.911     -10406.13      -782.16889      102775.77      46.841441      46.841441      46.841441      1.1927416      691.02215     -1359.2026     -995.82918    
    159000   159000         302.33359      628.33361      28422.61       27480.445      7857.5541      19622.891      4094.5309      5909.8136      5164.2432      434.93676     -1260.8057      15688.273     -10408.1       -781.86321      102815.96      46.847545      46.847545      46.847545      1.1922755      786.30474      1054.1372      44.558902    
    160000   160000         303.9169      -921.37516      26101.464      27480.111      7898.7038      19581.407      4024.7185      5772.1763      5354.7777      457.54657     -1319.6249      15700.199     -10408.386     -783.52105      102598.41      46.814481      46.814481      46.814481      1.1948035     -859.47879     -1057.2881     -847.35856    
    161000   161000         299.79125     -871.5274       26045.243      27350.483      7791.4796      19559.003      4006.3811      5891.2232      5243.5819      424.37838     -1301.5535      15704.734     -10409.742     -782.8127       102691.25      46.828597      46.828597      46.828597      1.1937234      266.31185     -1141.8346     -1739.0594    
    162000   162000         296.02899     -324.295        26799.547      27283.379      7693.6996      19589.679      3934.1154      5839.8485      5380.2889      466.90113     -1300.7644      15680.973     -10411.684     -785.8029       102300.48      46.769123      46.769123      46.769123      1.1982832      861.10393     -1243.8903     -590.09866    
    163000   163000         299.61617      158.48333      27643.97       27406.071      7786.9292      19619.141      4033.2582      5867.6146      5226.1472      448.41714     -1258.5649      15708.08      -10405.811     -781.01113      102928.13      46.864576      46.864576      46.864576      1.1909761      450.54778      285.2252      -260.323      
    164000   164000         295.90928     -360.81103      26802.258      27341.117      7690.5884      19650.529      4020.0811      5856.6821      5364.9663      446.46399     -1331.1275      15702.661     -10409.199     -785.00399      102404.59      46.784983      46.784983      46.784983      1.1970649     -1081.4082     -935.11283      934.08796    
    165000   165000         298.99477      51.754219      27424.241      27347.024      7770.7792      19576.245      3996.8286      5793.1907      5317.4769      437.45546     -1254.6079      15692.111     -10406.21      -785.77677      102303.88      46.769641      46.769641      46.769641      1.1982433     -1030.7992      851.05748      335.0044     
    166000   166000         304.42481      968.22781      28916.149      27473.16       7911.9042      19561.256      4048.4199      5818.5743      5272.4838      438.96907     -1296.3626      15688.604     -10409.433     -786.65035      102190.27      46.752322      46.752322      46.752322      1.1995755      792.77571      934.65859      1177.2491    
    167000   167000         298.54502      148.30537      27603.841      27382.145      7759.0904      19623.055      4088.349       5773.4177      5292.15        439.15718     -1254.6231      15697.123     -10412.519     -784.27216      102500.15      46.799531      46.799531      46.799531      1.1959489      374.16484     -789.21         859.96127    
    168000   168000         303.07328     -844.33958      26208.937      27473.006      7876.7785      19596.227      3991.8358      5828.9492      5374.2753      442.47942     -1324.1994      15689.55      -10406.663     -783.09348      102654.43      46.822999      46.822999      46.822999      1.1941515     -308.0542      -536.94213     -1688.0224    
    169000   169000         293.95203      1442.7898      29357.886      27200.636      7639.7201      19560.915      4058.6099      5817.8998      5245.8365      433.68216     -1273.7947      15692.99      -10414.308     -784.09683      102523.07      46.803019      46.803019      46.803019      1.1956816      916.70333      1172.3214      2239.3448    
    170000   170000         298.97445     -175.4163       27157.686      27419.202      7770.251       19648.951      4119.6102      5777.6876      5354.935       435.85694     -1332.7379      15703.592     -10409.993     -786.39091      102223.99      46.757463      46.757463      46.757463      1.1991798     -1436.538       496.19595      414.09313    
    171000   171000         299.32612      1029.6267      28941.739      27408.98       7779.3909      19629.589      4052.3089      5830.1063      5259.9311      429.10511     -1255.3416      15719.858     -10406.379     -787.54099      102074.7       46.734691      46.734691      46.734691      1.2009336      1431.464       1069.4321      587.98407    
    172000   172000         301.46356      39.548279      27508.813      27450.129      7834.9422      19615.187      4110.021       5745.8044      5321.6508      456.43181     -1311.1167      15700.105     -10407.709     -790.09409      101744.86      46.684297      46.684297      46.684297      1.2048269      245.65278     -1816.192       1689.1841    
    173000   173000         296.03449     -755.0596       26097.803      27224.511      7693.8424      19530.668      3969.3865      5799.1679      5325.0968      450.64472     -1305.4408      15699.444     -10407.631     -785.66474      102318.47      46.771864      46.771864      46.771864      1.1980725      715.38734     -1503.7036     -1476.8625    
    174000   174000         302.56563      777.05505      28631.722      27469.61       7863.5847      19606.026      4041.4688      5884.1184      5223.5592      435.75207     -1266.0847      15693.21      -10405.998     -783.91881      102546.35      46.806561      46.806561      46.806561      1.1954101      1691.6765     -791.33027      1430.8189    
[...]
   1955000   1955000        295.62722     -1565.3378      24890.868      27224.138      7683.2578      19540.88       3912.7496      5762.0388      5479.5445      450.2599      -1370.5261      15714.279     -10407.466     -786.52102      102207.07      46.754884      46.754884      46.754884      1.1993782     -2312.4677     -987.30629     -1396.2394    
   1956000   1956000        298.2921      -500.80731      26584.615      27329.092      7752.517       19576.575      4071.5561      5821.8564      5309.8933      431.9616      -1342.2109      15694.174     -10410.655     -788.65397      101930.65      46.712696      46.712696      46.712696      1.2026308     -961.46403     -708.70231      167.7444     
   1957000   1957000        301.54356      248.65289      27745.497      27376.223      7837.0214      19539.201      4005.0754      5742.0573      5320.8642      450.26462     -1268.617       15696.21      -10406.653     -789.42598      101830.97      46.697464      46.697464      46.697464      1.2038081      50.458496     -948.49493      1643.9951    
   1958000   1958000        294.22657      301.55291      27782.974      27333.185      7646.8552      19686.33       4100.8408      5797.932       5274.7176      465.31273     -1256.1835      15710.114     -10406.404     -785.99923      102274.93      46.765228      46.765228      46.765228      1.1985826      1325.7434     -319.71428     -101.37042    
   1959000   1959000        298.43351     -392.37006      26783.751      27370.042      7756.1922      19613.85       3989.2061      5766.0975      5366.9541      430.18556     -1242.5918      15711.372     -10407.373     -784.60234      102457.01      46.792965      46.792965      46.792965      1.1964524     -376.68256     -322.65494     -477.77269    
   1960000   1960000        297.62455      549.04539      28109.969      27291.238      7735.1676      19556.07       4032.8892      5817.2021      5339.5678      446.41178     -1397.5571      15722.355     -10404.799     -786.20138      102248.63      46.76122       46.76122       46.76122       1.1988908     -864.3565      -165.95907      2677.4517    
   1961000   1961000        302.31026      203.12276      27657.504      27355.433      7856.9478      19498.485      3969.5782      5735.9991      5454.2871      451.84774     -1409.4139      15702.712     -10406.525     -788.34543      101970.55      46.718789      46.718789      46.718789      1.2021603     -95.744816      755.94836     -50.835262    
   1962000   1962000        299.47794     -1141.9688      25607.917      27310.804      7783.3366      19527.468      3924.9586      5878.708       5350.7775      456.54688     -1390.7888      15713.689     -10406.423     -786.20441      102248.23      46.76116       46.76116       46.76116       1.1988954     -460.45771     -505.98768     -2459.4611    
   1963000   1963000        301.7559      -417.43009      26787.982      27411.809      7842.54        19569.269      4013.3816      5826.6387      5299.0894      443.16258     -1297.1629      15698.369     -10414.21      -784.48934      102471.77      46.795212      46.795212      46.795212      1.1962801      825.35428     -1338.0575     -739.58702    
   1964000   1964000        302.57056      492.01715      28246.378      27510.361      7863.7129      19646.648      4136.8623      5892.1126      5187.0464      435.45093     -1312.5344      15716.23      -10408.52      -783.71765      102572.67      46.810566      46.810566      46.810566      1.1951033     -242.61734      1596.0876      122.5812     
   1965000   1965000        296.26039      821.33763      28464.682      27242.519      7699.7136      19542.805      4044.2965      5736.8704      5366.0305      433.65578     -1332.4152      15703.132     -10408.765     -787.87945      102030.85      46.727998      46.727998      46.727998      1.2014497     -22.894972      1437.306       1049.6019    
   1966000   1966000        298.89939     -738.67541      26368.155      27466.573      7768.3003      19698.273      3987.2826      5905.7567      5368.8062      443.5009      -1314.6538      15714.346     -10406.766     -788.41217      101961.91      46.717471      46.717471      46.717471      1.2022621     -832.34126     -1203.7661     -179.91886    
   1967000   1967000        300.71092     -1037.94        25801.508      27353.874      7815.3814      19538.492      3937.74        5845.5421      5350.4808      449.53902     -1347.5273      15705.412     -10402.694     -783.87262      102552.39      46.807481      46.807481      46.807481      1.1953397     -405.00853     -2315.333      -393.47861    
   1968000   1968000        297.56593      122.79015      27612.226      27429.797      7733.6442      19696.153      4069.3907      5798.6379      5441.6022      444.28877     -1361.097       15712.648     -10409.318     -789.10833      101871.96      46.703729      46.703729      46.703729      1.2033237      125.1741      -364.234        607.43034    
   1969000   1969000        302.10219      44.942337      27362.776      27295.645      7851.5402      19444.104      4014.9555      5748.0729      5224.7968      430.97709     -1261.3683      15695.082     -10408.412     -784.87443      102421.5       46.787557      46.787557      46.787557      1.1968673     -82.604419     -1234.2622      1451.6936    
   1970000   1970000        299.63788      41.545043      27469.031      27406.964      7787.4935      19619.47       4100.4911      5806.6404      5344.7793      429.09711     -1354.5823      15698.309     -10405.264     -784.74183      102438.8       46.790192      46.790192      46.790192      1.1966651      1244.6974     -718.81402     -401.24821    
   1971000   1971000        301.49279     -130.3366       27115.792      27310.266      7835.702       19474.564      4005.6648      5747.4626      5275.7575      441.53277     -1277.8725      15691.057     -10409.038     -785.72739      102310.31      46.770621      46.770621      46.770621      1.198168       517.05613     -948.30766      40.24173     
   1972000   1972000        296.18635      282.63958      27810.541      27386.767      7697.7893      19688.978      3968.0222      5792.8799      5457.9756      436.46111     -1278.5096      15720.079     -10407.93      -781.92662      102807.62      46.846279      46.846279      46.846279      1.1923722     -170.20865     -239.05603      1257.1834    
   1973000   1973000        302.87106      425.16672      28143.137      27508.301      7871.5229      19636.778      3951.6585      5880.6676      5345.2373      448.619       -1280.1382      15697.829     -10407.095     -785.1713       102382.77      46.78166       46.78166       46.78166       1.19732        320.55422      755.61021      199.33574    
   1974000   1974000        298.6229       1201.9982      29173.045      27380.847      7761.1145      19619.733      3953.145       5849.5042      5365.1704      447.00219     -1281.6823      15694.719     -10408.126     -786.29404      102236.58      46.759383      46.759383      46.759383      1.1990321      971.11806      2597.3023      37.574243    
   1975000   1975000        298.62936     -204.44419      26994.879      27300.251      7761.2824      19538.969      4012.3742      5814.74        5294.163       423.18689     -1292.9521      15698.086     -10410.629     -784.89637      102418.63      46.787121      46.787121      46.787121      1.1969008     -1080.9394      754.9505      -287.34363    
   1976000   1976000        302.1754       1579.3633      29867.222      27505.309      7853.4427      19651.867      4080.861       5837.8587      5261.0383      452.8189      -1280.247       15705.13      -10405.593     -783.94462      102542.97      46.806048      46.806048      46.806048      1.1954494      1311.9131      1222.713       2203.4638    
   1977000   1977000        296.93368      254.40849      27645.909      27266.245      7717.2123      19549.033      4002.0564      5842.0887      5303.2876      427.17187     -1331.1292      15710.152     -10404.594     -785.59714      102327.27      46.773205      46.773205      46.773205      1.1979694      619.44062     -148.27872      292.06357    
   1978000   1978000        296.78446     -887.68868      26003.25       27330.531      7713.3339      19617.197      4033.6931      5738.3927      5408.3599      451.04511     -1317.3281      15710.235     -10407.201     -784.0885       102524.16      46.803185      46.803185      46.803185      1.1956689     -590.77893     -1510.085      -562.20216    
   1979000   1979000        302.26967      744.45819      28552.385      27451.363      7855.8927      19595.471      4026.9707      5922.4038      5345.1409      431.10123     -1429.5647      15704.375     -10404.956     -792.70528      101409.71      46.632981      46.632981      46.632981      1.2088087      1838.7514      430.73755     -36.114358    
   1980000   1980000        298.22593      1173.3755      29076.908      27327.602      7750.7973      19576.805      4028.5212      5824.2413      5288.6921      447.13696     -1308.8679      15704.822     -10407.741     -786.39079      102224         46.757465      46.757465      46.757465      1.1991797      1493.1838      1628.2037      398.73916    
   1981000   1981000        295.60407     -905.43631      25891.168      27241.976      7682.6561      19559.32       4043.8046      5762.2466      5348.0156      448.29563     -1329.2837      15693.161     -10406.92      -785.83496      102296.31      46.768487      46.768487      46.768487      1.1983321     -556.77019      567.67539     -2727.2141    
   1982000   1982000        304.01817      80.457735      27524.411      27404.663      7901.3359      19503.327      3957.2841      5863.7318      5343.9348      433.09209     -1377.7018      15694.494     -10411.508     -787.7125       102052.48      46.731299      46.731299      46.731299      1.2011952     -228.24564      765.17659     -295.55774    
   1983000   1983000        298.5766       590.45808      28207.282      27330.507      7759.9112      19570.595      4015.9686      5846.1111      5345.0523      443.34891     -1375.9296      15706.405     -10410.361     -789.52875      101817.71      46.695437      46.695437      46.695437      1.2039648      434.23465      81.862675      1255.2769    
   1984000   1984000        299.74621      7.4106249      27422.744      27411.712      7790.3089      19621.403      4069.1468      5903.6471      5238.5591      435.38228     -1316.6273      15699.945     -10408.65      -787.52085      102077.31      46.735089      46.735089      46.735089      1.2009029     -630.40307      132.37814      520.25681    
   1985000   1985000        304.57407     -837.53677      26223.992      27472.895      7915.7834      19557.111      4103.399       5809.4304      5313.2429      436.56456     -1380.0582      15685.95      -10411.417     -786.21714      102246.58      46.760907      46.760907      46.760907      1.1989149     -591.31025     -1119.8325     -801.46751    
   1986000   1986000        300.18781      324.03566      27815.591      27331.732      7801.7859      19529.946      3985.0446      5766.1319      5358.3363      438.68623     -1315.5796      15700.402     -10403.075     -785.12874      102388.32      46.782505      46.782505      46.782505      1.1972551      746.76022      162.95807      62.388681    
   1987000   1987000        295.87984      455.17954      27915.853      27238.687      7689.8231      19548.864      4010.7542      5853.106       5279.7029      441.55255     -1310.8288      15684.929     -10410.352     -788.05263      102008.43      46.724575      46.724575      46.724575      1.2017138      227.93031      528.09307      609.51525    
   1988000   1988000        301.62048      843.45136      28695.414      27437.866      7839.0206      19598.845      4139.697       5837.1927      5284.2956      452.22303     -1408.7752      15698.917     -10404.705     -786.32627      102232.39      46.758744      46.758744      46.758744      1.1990813      2052.8424      927.96955     -450.45782    
   1989000   1989000        296.22148     -815.50685      26087.462      27304.52       7698.7022      19605.818      4115.592       5738.2329      5396.9702      432.64397     -1379.2446      15705.61      -10403.987     -785.56756      102331.13      46.773792      46.773792      46.773792      1.1979243     -1518.718      -1641.7893      713.98673    
   1990000   1990000        298.91068      85.020509      27606.959      27480.012      7768.5937      19711.419      4050.4544      5905.0899      5328.958       454.47125     -1311.907       15694.252     -10409.9       -785.17831      102381.86      46.781521      46.781521      46.781521      1.1973307      3.8487864      119.28206      131.93068    
   1991000   1991000        300.75627     -656.50268      26348.033      27327.829      7816.5601      19511.269      3942.552       5772.8152      5447.3694      432.81882     -1358.4573      15687.042     -10412.871     -785.53955      102334.77      46.774348      46.774348      46.774348      1.1978816     -1153.7035      662.98042     -1478.7849    
   1992000   1992000        296.31549      1114.9923      28919.854      27258.318      7701.1456      19557.172      4070.4035      5824.8823      5224.9801      453.21413     -1308.7927      15704.52      -10412.035     -786.7362       102179.12      46.750621      46.750621      46.750621      1.1997064      400.92686      1925.4236      1018.6264    
   1993000   1993000        298.97389      659.24221      28370.833      27389.718      7770.2367      19619.481      4025.9713      5811.8452      5332.848       436.25494     -1292.9517      15709.063     -10403.549     -787.75668      102046.76      46.730425      46.730425      46.730425      1.2012625      734.54579      992.13398      251.04687    
   1994000   1994000        306.14447      236.26846      27783.994      27432.745      7956.5976      19476.147      4012.0821      5797.2699      5297.892       416.66842     -1340.0342      15701.522     -10409.253     -788.60135      101937.45      46.713735      46.713735      46.713735      1.2025506      89.992819      703.06732     -84.254766    
   1995000   1995000        299.74811      380.85792      27876.508      27308.978      7790.3583      19518.62       3995.7489      5806.5953      5281.2646      411.93084     -1255.4949      15687.952     -10409.377     -786.75785      102176.31      46.750192      46.750192      46.750192      1.1997394      711.63836      1268.2005     -837.26509    
   1996000   1996000        301.5311       1009.6215      28965.058      27459.213      7836.6977      19622.516      4061.8005      5765.2467      5311.8237      433.30891     -1249.5578      15710.378     -10410.484     -786.0416       102269.41      46.764388      46.764388      46.764388      1.1986472     -554.27643      1289.5393      2293.6017    
   1997000   1997000        299.73882      522.40512      28051.131      27269.299      7790.1168      19479.182      3991.4101      5843.4142      5230.8485      441.48699     -1332.2107      15709.678     -10405.445     -783.35913      102619.62      46.817706      46.817706      46.817706      1.1945566      669.69235     -9.3142317      906.83723    
   1998000   1998000        299.61563     -64.416446      27356.956      27453.018      7786.9152      19666.102      3999.0499      5811.0265      5404.3668      444.31678     -1286.2         15706.113     -10412.57      -786.16468      102253.4       46.761947      46.761947      46.761947      1.1988348      73.90828       452.11787     -719.27549    
   1999000   1999000        296.67961     -23.861138      27248.396      27284.056      7710.6091      19573.447      3968.1176      5846.8562      5337.9516      430.88213     -1311.2961      15710.759     -10409.824     -784.47049      102474.23      46.795586      46.795586      46.795586      1.1962514     -55.240747      222.70504     -239.04771    
   2000000   2000000        302.27938      408.03176      28028.371      27418.115      7856.1452      19561.97       4073.0597      5788.9095      5276.982       435.45405     -1321.9525      15714.126     -10404.609     -783.87864      102551.6       46.807361      46.807361      46.807361      1.1953488     -1140.3784      1495.812       868.66174    
Loop time of 4042.55 on 1 procs for 2000000 steps with 8720 atoms

Performance: 42.745 ns/day, 0.561 hours/ns, 494.737 timesteps/s, 4.314 Matom-step/s
100.0% CPU use with 1 MPI tasks x 1 OpenMP threads

MPI task timing breakdown:
Section |  min time  |  avg time  |  max time  |%varavg| %total
---------------------------------------------------------------
Pair    | 580.73     | 580.73     | 580.73     |   0.0 | 14.37
Bond    | 541.38     | 541.38     | 541.38     |   0.0 | 13.39
Kspace  | 1963.1     | 1963.1     | 1963.1     |   0.0 | 48.56
Neigh   | 173.74     | 173.74     | 173.74     |   0.0 |  4.30
Comm    | 44.976     | 44.976     | 44.976     |   0.0 |  1.11
Output  | 24.392     | 24.392     | 24.392     |   0.0 |  0.60
Modify  | 630.58     | 630.58     | 630.58     |   0.0 | 15.60
Other   |            | 83.67      |            |       |  2.07

Nlocal:           8720 ave        8720 max        8720 min
Histogram: 1 0 0 0 0 0 0 0 0 0
Nghost:          20058 ave       20058 max       20058 min
Histogram: 1 0 0 0 0 0 0 0 0 0
Neighs:              0 ave           0 max           0 min
Histogram: 1 0 0 0 0 0 0 0 0 0
FullNghs:  4.72179e+06 ave 4.72179e+06 max 4.72179e+06 min
Histogram: 1 0 0 0 0 0 0 0 0 0

Total # of neighbors = 4721794
Ave neighs/atom = 541.49014
Ave special neighs/atom = 5.6385321
Neighbor list builds = 48235
Dangerous builds = 0

# --- Cleanup ---
unfix npt_fix

undump dump_npt

# --- Write Output ---
write_dump all custom npt_prod300_last.dump id type mol x y z xu yu zu vx vy vz modify sort id
write_data /home/alexzhao/PolyJarvis/data/PEEK4/lammps/equil/npt_prod300/npt_prod300_out.data
System init for write_data ...
PPPM Kokkos initialization ...
  using 12-bit tables for long-range coulomb
  G vector (1/distance) = 0.30697585
  grid = 36 36 36
  stencil order = 5
  estimated absolute RMS force accuracy = 0.00037726607
  estimated relative force accuracy = 1.1361256e-06
  using double precision cuFFT
  3d grid and FFT values/proc = 79507 46656
Generated 21 of 21 mixed pair_coeff terms from sixthpower/sixthpower mixing rule

print "STAGE COMPLETE: NPT T=300.0->300.0K P=1.0->1.0atm steps=2000000"
STAGE COMPLETE: NPT T=300.0->300.0K P=1.0->1.0atm steps=2000000
quit
ther   |            | 83.67      |            |       |  2.07

Nlocal:           8720 ave        8720 max        8720 min
Histogram: 1 0 0 0 0 0 0 0 0 0
Nghost:          20058 ave       20058 max       20058 min
Histogram: 1 0 0 0 0 0 0 0 0 0
Neighs:              0 ave           0 max           0 min
Histogram: 1 0 0 0 0 0 0 0 0 0
FullNghs:  4.72179e+06 ave 4.72179e+06 max 4.72179e+06 min
Histogram: 1 0 0 0 0 0 0 0 0 0

Total # of neighbors = 4721794
Ave neighs/atom = 541.49014
Ave special neighs/atom = 5.6385321
Neighbor list builds = 48235
Dangerous builds = 0
System init for write_data ...
PPPM Kokkos initialization ...
  using 12-bit tables for long-range coulomb
  G vector (1/distance) = 0.30697585
  grid = 36 36 36
  stencil order = 5
  estimated absolute RMS force accuracy = 0.00037726607
  estimated relative force accuracy = 1.1361256e-06
  using double precision cuFFT
  3d grid and FFT values/proc = 79507 46656
Generated 21 of 21 mixed pair_coeff terms from sixthpower/sixthpower mixing rule
STAGE COMPLETE: NPT T=300.0->300.0K P=1.0->1.0atm steps=2000000
