LAMMPS data file via write_data, version 22 Jul 2025, timestep = 5000000, units = real

4840 atoms
2 atom types
4820 bonds
2 bond types
4800 angles
2 angle types
4780 dihedrals
2 dihedral types

2.4486096605818126 53.32976238940873 xlo xhi
2.4486096605818126 53.32976238940873 ylo yhi
2.4486096605818126 53.32976238940873 zlo zhi

Masses

1 14.0268
2 15.0347

Pair Coeffs # lj/cut/gpu

1 0.09141 3.95
2 0.19475 3.75

Bond Coeffs # harmonic

1 260 1.54
2 260 1.54

Angle Coeffs # harmonic

1 62.1002 114
2 62.1002 114

Dihedral Coeffs # multi/harmonic

1 2.00702 -4.01203 0.27102 6.29006 0
2 2.00702 -4.01203 0.27102 6.29006 0

Atoms # full

1355 6 1 0 5.810030658447401 5.135560470730322 8.603177780183684 2 0 0
1356 6 1 0 4.981963153409813 6.3831233910063006 8.152947890693978 2 0 0
1354 6 1 0 5.1341724398689585 3.7739722390247152 8.232598089615298 2 0 0
4828 20 1 0 4.105181839109839 5.290303762776405 4.149674261502039 1 1 0
1357 6 1 0 5.276775681959537 7.617379850635376 9.03110626995991 2 0 0
4829 20 1 0 4.766668777282531 6.557352587211143 3.577835741930064 1 1 0
1358 6 1 0 4.289255595772154 8.778823499579236 8.644212442458073 2 0 0
1353 6 1 0 5.84299357192299 2.531402496492681 8.972114427288567 2 0 0
4345 18 1 0 8.972614182016038 6.153437620218014 6.816159090253994 -1 1 0
4347 18 1 0 8.819550646566045 3.6864729646645737 6.641976569498827 -1 1 0
4831 20 1 0 6.961619781669528 7.784916292812349 3.0316830590541843 1 1 0
4346 18 1 0 9.605465180105673 4.855855403679506 7.286680752053824 -1 1 0
4344 18 1 0 9.333196486821564 7.288536085554268 7.706782422284067 -1 1 0
1351 6 1 0 3.410580209732895 52.551415685030165 9.441464606249852 2 -1 0
4343 18 1 0 8.504389093088353 8.523040007170493 7.264785887297299 -1 1 0
4342 18 1 0 9.109384200192274 9.133071482047292 5.940098528768944 -1 1 0
4348 18 1 0 9.539638882323842 53.230294323574114 6.713672687879381 -1 0 0
4827 20 1 0 2.6110712696777685 5.414023479967048 4.682542140399027 1 1 0
4341 18 1 0 8.34462681730163 10.43793042770319 5.315896256585461 -1 1 0
525 3 1 0 2.9507964926366816 5.246952888668897 11.323462227904654 1 1 0
3229 14 1 0 14.249704580596783 3.872229781658792 5.499276012195226 1 0 1
3230 14 1 0 14.232003779304092 2.7272110263016653 6.501220498829362 1 0 1
3228 14 1 0 12.901043551466547 4.590911927246239 5.188705905482138 1 0 1
2260 10 1 0 13.806735800769932 6.952446209214896 8.934115713255647 0 1 0
2259 10 1 0 13.625906602131586 7.645464847225577 7.5530951338787 0 1 0
3227 14 1 0 13.03315787869063 5.685308537519805 4.154392762816426 1 0 1
3226 14 1 0 12.054281627095468 6.789944919628999 4.115271334043924 1 0 1
3225 14 1 0 12.330399702906288 7.815846871354962 3.0679563327041874 1 0 1
2258 10 1 0 14.797968279575079 8.531497748385233 7.038097472641392 0 1 0
2257 10 1 0 14.682989541722932 9.196041582057134 5.680482985664908 0 1 0
3231 14 1 0 15.631673571381215 2.5378389625169855 6.895660411548229 1 0 1
2256 10 1 0 15.900733820890732 10.023748067091038 5.158354337222424 0 1 0
1253 6 1 0 17.36239717032815 3.259480425795738 3.3727498388046504 1 0 0
1254 6 1 0 16.633398848853115 2.5339791898103385 53.20259318692483 1 0 -1
2987 13 1 0 17.923976750069983 6.738505870266508 4.021314137122422 0 0 0
2985 13 1 0 18.58899282550735 6.338112245893381 6.508523466825147 0 0 0
2261 10 1 0 14.833870074001828 5.816360549863083 9.127876893202572 0 1 0
1255 6 1 0 15.193787085605495 3.11079503107893 52.95534664195519 1 0 -1
2986 13 1 0 18.782415891858992 7.198760276139204 5.240359091255122 0 0 0
2984 13 1 0 19.3965536754244 6.898601942977085 7.7684236781483165 0 0 0
2983 13 1 0 19.167086854946128 6.052232593226295 9.085030227904966 0 0 0
4793 20 1 0 26.743160764963143 4.873043271736644 9.984332460869588 0 1 0
4795 20 1 0 24.301809732016082 5.627031634197617 9.333515389992417 0 1 0
4796 20 1 0 24.91969610306707 6.565210199882673 8.256892681265239 0 1 0
4797 20 1 0 24.18642413664274 7.843531379308135 7.866818934960605 0 1 0
2982 13 1 0 19.410100619042 6.856497831144869 10.352050203770624 0 0 0
4665 20 1 0 26.091143976652926 6.236633744973325 4.010696260360022 0 1 0
4798 20 1 0 25.013589238221673 8.667732663826605 6.830186866230887 0 1 0
4794 20 1 0 25.30548492887854 4.440034463472485 9.502837213742023 0 1 0
4799 20 1 0 25.968251074957124 9.718321256048734 7.387936135053497 0 1 0
4758 20 1 0 22.39384230025291 10.620241487582401 4.356123041319128 0 1 0
1252 6 1 0 18.817490222746393 2.7283831836206174 3.5494254028038537 1 0 0
4792 20 1 0 27.540144767056844 3.6968903434039673 10.496949772534602 0 1 0
4666 20 1 0 25.474608299908 5.35458914033223 2.9150378915455857 0 1 0
4664 20 1 0 27.547962475955757 5.808681868335436 4.278088301601302 0 1 0
4663 20 1 0 28.29419583414909 6.579135562019835 5.398967072200994 0 1 0
4662 20 1 0 29.749374925467304 6.16680916173811 5.62002339365106 0 1 0
4661 20 1 0 29.937318254042545 4.773890165172196 6.1961811196816114 0 1 0
4660 20 1 0 31.24447043809914 4.568974420056428 6.943578141331775 0 1 0
4659 20 1 0 31.713827043279355 3.0447284335970166 6.981681744026799 0 1 0
1329 6 1 0 33.27400501794624 9.653706512678315 8.419399292371367 1 0 0
4658 20 1 0 33.04784674778807 2.918831098599917 7.618051255225645 0 1 0
1330 6 1 0 34.12223422594096 8.883741054070185 7.447960530669089 1 0 0
1331 6 1 0 33.471035126828006 7.710057244620552 6.725327935572511 1 0 0
4741 20 1 0 31.231452218672118 6.974402595878172 9.932459025993062 0 1 0
4739 20 1 0 33.6391530516782 6.13533584956302 10.712489079264031 0 1 0
4771 20 1 0 34.49560680810251 2.892919175072799 3.8593394286977625 0 1 0
4807 20 1 0 32.8959468683019 10.215625489798999 3.442294350438944 0 1 0
1333 6 1 0 35.67465062276128 6.422807894365352 6.983380672884894 1 0 0
4808 20 1 0 34.33520673478661 10.286847317871011 2.787897196668115 0 1 0
1332 6 1 0 34.50034024384556 6.805139218087154 6.0483924860804485 1 0 0
513 3 1 0 38.79825920948721 8.05160805235208 9.830748081417497 0 1 0
514 3 1 0 39.95212899866259 7.103868502060889 9.548314501283924 0 1 0
515 3 1 0 41.274772830123226 7.790670769897954 9.77513407690764 0 1 0
1334 6 1 0 36.537088449585184 5.273617735325267 6.431076180594787 1 0 0
1335 6 1 0 37.65973253443765 4.781446563589978 7.378384437206621 1 0 0
1337 6 1 0 39.812801295285084 3.336503113627855 7.60671609466704 1 0 0
1336 6 1 0 38.55315704860624 3.6485338936072047 6.8035572660259485 1 0 0
264 2 1 0 41.17680583853702 10.083096881282081 4.928971531307203 0 1 0
263 2 1 0 42.338002368715095 10.154469820512489 3.8821644235755723 0 1 0
512 3 1 0 38.69608705584854 9.211198589652824 8.751634587292004 0 1 0
4817 20 1 0 42.404480797857374 6.1946181734315005 4.280212481985563 0 1 0
511 3 1 0 37.8063472442652 10.287797214392317 9.215713940985736 0 1 0
4815 20 1 0 39.81858850615903 5.773742042341203 3.9985799175903374 0 1 0
4816 20 1 0 41.206826192134486 5.815771041295695 3.3503666910161534 0 1 0
4772 20 1 0 35.76337561645721 52.95594881569252 3.4942273851445247 0 0 0
265 2 1 0 39.879820195942784 10.61680073214348 4.422711130786321 0 1 0
4814 20 1 0 38.717997705652365 5.062803687693991 3.2329642621038257 0 1 0
516 3 1 0 42.48578759070351 6.9458687366994525 9.700283137670485 0 1 0
4818 20 1 0 43.766064529167195 5.772725860672903 3.7803863217661586 0 1 0
4819 20 1 0 44.764785100202744 5.7724434779003335 5.002685686724493 0 1 0
1364 6 1 0 48.676644603070116 9.085124148724177 6.843751278631975 1 0 0
1365 6 1 0 47.27571893213174 8.420395163711117 6.540007515997927 1 0 0
4823 20 1 0 49.22800262821772 4.005804476883268 6.910486594963285 0 1 0
4821 20 1 0 46.91993322615561 4.595454499830119 6.0355623204894275 0 1 0
4822 20 1 0 48.24932392052064 3.995354004569476 5.694618785673382 0 1 0
1363 6 1 0 49.783235401293666 8.171446079338228 6.339882800453141 1 0 0
4820 20 1 0 46.18689733703408 5.091895109548843 4.81335450542181 0 1 0
518 3 1 0 45.08617642735511 6.557657408201245 9.831843687768911 0 1 0
1366 6 1 0 46.24447920611884 9.26257116655754 7.333185878407553 1 0 0
520 3 1 0 47.51928831192677 5.855948244402677 9.924895330459698 0 1 0
522 3 1 0 50.13938921764357 5.397603068017501 10.22385831958665 0 1 0
1362 6 1 0 51.19967942999321 8.888754676397998 6.451888611499053 1 0 0
1367 6 1 0 46.0237293462492 10.705668323703275 6.766844375404639 1 0 0
1368 6 1 0 44.81052379520909 11.391424063163289 7.396061471325344 1 0 0
517 3 1 0 43.878821362413845 7.593367707072548 9.919423779732629 0 1 0
519 3 1 0 46.51152077318724 6.970976056619017 10.239693204085697 0 1 0
521 3 1 0 48.981939665636574 6.390705832930745 10.101383773774003 0 1 0
4824 20 1 0 50.643924895926915 3.4949471500565865 6.59483943239189 0 1 0
1359 6 1 0 2.802039205268261 8.37979767309346 8.423617625949362 2 0 0
524 3 1 0 52.60271199383283 5.093928510414477 10.412054703536635 0 1 0
1360 6 1 0 52.81142411122255 9.658811485169917 8.180530663565495 1 0 0
4826 20 1 0 52.83962970688842 4.21558316062851 5.368848047965509 0 1 0
4825 20 1 0 51.358125477748175 4.485128229892831 5.630763215662853 0 1 0
1361 6 1 0 51.391835375439115 9.302930987667672 7.888062742910278 1 0 0
523 3 1 0 51.4303852293542 6.055576331451961 10.527207533114453 0 1 0
4340 18 1 0 8.470096907426871 11.63346963050695 6.407700954857432 -1 1 0
4339 18 1 0 8.063478055485072 12.953198246424298 5.731096052244695 -1 1 0
4337 18 1 0 7.6726171906063465 14.390875715192035 7.851547465245845 -1 1 0
2717 12 1 0 3.4575651365689115 13.655103270096916 7.738484158522175 1 0 0
2715 12 1 0 2.952760874444274 12.386146037891065 5.537572780139678 1 0 0
2716 12 1 0 53.25916574042218 13.32929128039692 6.605653213471119 0 0 0
2718 12 1 0 2.918069152616437 14.569669551713172 8.878890263684521 1 0 0
4338 18 1 0 8.389908519947474 14.305773722384453 6.405140434052608 -1 1 0
4336 18 1 0 8.234224520761465 15.49511479183374 8.758972822492051 -1 1 0
812 4 1 0 10.234461675897613 17.127103522893695 4.48585426069487 0 0 1
3477 15 1 0 52.659576166249124 16.71123434810921 5.207596604659093 -1 0 0
3478 15 1 0 2.6499579626849186 17.89847266080516 5.5464419454005744 0 0 0
3479 15 1 0 3.681098996788398 17.67804254673024 6.630616363679031 0 0 0
813 4 1 0 10.121995078365348 18.53309522819805 5.039256493164112 0 0 1
4335 18 1 0 7.463297915189655 15.684720790819156 10.026715893045083 -1 1 0
4334 18 1 0 7.842484366082341 16.81010231352009 11.088323910263567 -1 1 0
807 4 1 0 12.991121839325944 12.764991338399833 4.9758381896706485 0 0 1
808 4 1 0 13.691738458178161 14.07395384886692 4.609297022640058 0 0 1
803 4 1 0 11.731819131757959 11.96737371159582 8.823857805000973 0 0 1
805 4 1 0 12.617673216119083 13.746230389679177 7.370904527442431 0 0 1
806 4 1 0 13.048774053485342 12.483205435473227 6.474193831320763 0 0 1
804 4 1 0 12.397212120360642 13.362933203277876 8.817521852912268 0 0 1
2777 12 1 0 17.130990394868814 13.561665213534198 7.440627086355613 0 0 0
811 4 1 0 11.674785919270171 16.643554643160876 4.378088413107152 0 0 1
2779 12 1 0 16.621157443443106 12.444239012600141 9.823793000814092 0 0 0
2113 9 1 0 14.787174763431622 16.73407583460513 9.095337567557166 0 0 1
2255 10 1 0 15.788563696457212 10.39908995865482 3.670446286948434 0 1 0
2254 10 1 0 17.124740259718305 11.108727784006255 3.3133267744474493 0 1 0
2778 12 1 0 17.589225709731487 12.948390568305122 8.790939483173824 0 0 0
2775 12 1 0 17.819654086194348 14.597338175644172 5.130588460438262 0 0 0
809 4 1 0 13.148997987912864 14.734575423523117 3.3332569331135895 0 0 1
810 4 1 0 11.773190220837016 15.41768793833504 3.4530127309960092 0 0 1
2776 12 1 0 18.30527884792125 14.105171157896832 6.426829958471922 0 0 0
2774 12 1 0 18.883494680333555 15.394440678915322 4.3571794770013685 0 0 0
2112 9 1 0 14.958176969915273 17.927405914570258 8.233671119924358 0 0 1
2111 9 1 0 15.128673680630381 17.700647813101583 6.776013121473174 0 0 1
2773 12 1 0 19.219851800644054 16.777071371272708 4.903639865755306 0 0 0
2780 12 1 0 17.4128013801941 11.918004164130588 10.978042815256984 0 0 0
4753 20 1 0 21.441493592907744 10.799361671590367 9.65852138724825 0 1 0
4755 20 1 0 21.701440049667585 11.36976791235491 7.169390526468361 0 1 0
4754 20 1 0 21.149168326141687 11.821961938228638 8.546515568875492 0 1 0
4756 20 1 0 21.75175264711697 12.45335324197169 6.06746956751623 0 1 0
4757 20 1 0 22.518369898308823 12.048453838823002 4.812946033842499 0 1 0
3538 15 1 0 24.800992603646517 14.217922164509433 9.356471776559873 0 0 0
1985 9 1 0 25.24946412490682 14.817445911744189 4.077976375468678 0 0 1
3537 15 1 0 24.422543231265145 15.444227196343919 8.476527581877868 0 0 0
3536 15 1 0 24.537886838501297 16.875560835582554 9.016267857535002 0 0 0
1984 9 1 0 24.5169510399501 15.498892267162974 2.885808359355055 0 0 1
2772 12 1 0 20.346242643097337 17.497825941326585 4.236874262136826 0 0 0
772 4 1 0 19.10030101961842 17.76018434421499 10.840682952325867 0 0 1
3539 15 1 0 26.250968349434668 14.23100790789023 9.803121183923416 0 0 0
1986 9 1 0 26.080533731433764 15.900839418898299 4.912347949146296 0 0 1
4752 20 1 0 21.29233273442107 11.483095790261789 11.005486217277504 0 1 0
4800 20 1 0 26.92913338376993 10.332913902060433 6.36119103241362 0 1 0
1328 6 1 0 34.13415585867275 10.645253477447337 9.267641374980677 1 0 0
1327 6 1 0 33.41143049557539 11.44819240626661 10.34711465172079 1 0 0
4801 20 1 0 27.633305903918675 11.431597922435985 7.059682905294297 0 1 0
1987 9 1 0 27.447677462342067 16.151862187806735 4.305603597376082 0 0 1
1326 6 1 0 34.20865246004823 12.676793933177613 10.790486552698741 1 0 0
1325 6 1 0 33.90975360837641 13.703866840974097 9.779266967938163 1 0 0
4802 20 1 0 28.967658319516598 11.95575447866248 6.476951627908849 0 1 0
4803 20 1 0 28.91020916754039 12.905550761200969 5.227480215888616 0 1 0
1323 6 1 0 32.101132310446836 14.911386452352628 8.259130685017169 1 0 0
1988 9 1 0 28.240704396640947 17.17930456344212 5.032472499602222 0 0 1
1321 6 1 0 30.611776851547805 16.979905838735867 8.89447033794432 1 0 0
4804 20 1 0 30.287614610920542 13.03564275808401 4.594935124877392 0 1 0
4805 20 1 0 30.912265774478183 11.645278081945504 4.196531291789504 0 1 0
4806 20 1 0 32.38620920881512 11.596261257266425 3.7590650148790408 0 1 0
1322 6 1 0 30.69331596954909 15.495921177640053 8.380534237640624 1 0 0
1324 6 1 0 32.48506764956184 14.308817659970037 9.67828644045235 1 0 0
1989 9 1 0 29.70842945395112 17.245770419871242 4.396027715511197 0 0 1
1320 6 1 0 29.195215555389428 17.44683860562597 8.96911846162993 1 0 0
505 3 1 0 34.98214173760323 14.822984439783717 3.6687164145965463 0 1 0
1319 6 1 0 29.139913316929807 18.992664188492405 9.411684502144219 1 0 0
506 3 1 0 35.40398306349394 14.394672309020157 5.083307884149353 0 1 0
507 3 1 0 35.736238627727914 12.946702078544376 5.335936814589294 0 1 0
266 2 1 0 40.127542363256595 12.067676369580749 4.101227571372332 0 1 0
510 3 1 0 37.710093397612454 11.575048491292671 8.43117516854577 0 1 0
509 3 1 0 36.8801706388425 11.48491496660193 7.149930690661088 0 1 0
508 3 1 0 36.556179041991314 12.89105231642056 6.614434475242289 0 1 0
3711 16 1 0 39.77922838411702 16.366254105096253 3.4126158051330386 0 0 1
267 2 1 0 39.01902378679944 12.65909284104239 3.1268077093334563 0 1 0
3709 16 1 0 41.10762191802631 17.776307934082745 5.17043123779707 0 0 1
2734 12 1 0 38.13437696992277 15.421799933060706 9.533070915467494 0 0 0
3710 16 1 0 40.10722191860282 16.616478263046425 4.896621158286599 0 0 1
2732 12 1 0 40.322844753525146 14.66278956460911 8.574718701926852 0 0 0
504 3 1 0 35.833070387701625 15.901704226976499 3.075593402979002 0 1 0
1371 6 1 0 44.11731174539396 14.615934597413181 5.359182899451003 1 0 0
1372 6 1 0 43.808334082039806 15.024522289093213 3.899305025949814 1 0 0
3468 15 1 0 48.12583499526457 12.018511681982654 11.098771601189915 -1 0 0
1369 6 1 0 44.676504195872624 12.850514887126787 7.068231764451835 1 0 0
1370 6 1 0 44.34832909997964 13.14254517777173 5.5511232380802955 1 0 0
3470 15 1 0 48.68417505800413 13.429842771355995 9.14548784297683 -1 0 0
3472 15 1 0 48.20685644195203 14.492854781220768 6.97264800292058 -1 0 0
3469 15 1 0 49.05644190004661 12.187443621286189 9.914529705413809 -1 0 0
3471 15 1 0 49.23287695959104 13.689004574843505 7.733826651714527 -1 0 0
4503 19 1 0 47.244069375812586 18.33814125069285 6.269643126494557 0 0 1
4505 19 1 0 48.58417362308806 18.253422749503294 8.590063782504506 0 0 1
4506 19 1 0 49.98730222705879 18.414788475174007 8.073969646862796 0 0 1
3467 15 1 0 46.56993161169261 11.921428495535393 10.762702615294877 -1 0 0
4501 19 1 0 46.26605268408339 18.52801508240073 3.9712811643378743 0 0 1
3466 15 1 0 45.71897107397055 11.786549841814638 12.003640128680814 -1 0 0
4507 19 1 0 51.27069633517024 18.08026448078698 8.875044249075259 0 0 1
3473 15 1 0 48.6902806979532 14.826538074826068 5.517646302505959 -1 0 0
3474 15 1 0 49.969068710822285 15.71990538644981 5.580230347229403 -1 0 0
1373 6 1 0 45.00035567089557 14.589245643683846 3.006139015368451 1 0 0
2713 12 1 0 2.5850291976128026 10.867289817978229 3.5504975513756536 1 0 0
2714 12 1 0 52.98919392655543 12.088167327877683 4.3417213674318145 0 0 0
2719 12 1 0 52.72661939335421 13.91304209149891 9.804148895408444 0 0 0
2712 12 1 0 52.54734940287962 10.644686610225937 53.19156718870079 0 0 -1
3476 15 1 0 51.72155549373694 16.988268695173343 4.051961004834492 -1 0 0
3475 15 1 0 50.48822511387297 15.990544304667734 4.193723930059567 -1 0 0
3480 15 1 0 4.337304872351847 19.037545103942826 7.110485901765693 0 0 0
3485 15 1 0 8.0393644134986 23.880093439129602 5.259027889407144 0 0 0
3481 15 1 0 5.007383693273329 19.806185225408612 5.9694798977652175 0 0 0
3482 15 1 0 5.685852210964861 21.02878349127261 6.655879155642556 0 0 0
3483 15 1 0 6.519240558341993 21.842200775369257 5.618548297524463 0 0 0
818 4 1 0 8.439171085857073 21.162632197651423 9.437112933090786 0 0 1
3484 15 1 0 7.194548847718886 23.122317127151565 6.247087724193197 0 0 0
815 4 1 0 10.07919478958189 19.801769057120758 7.322515374971162 0 0 1
817 4 1 0 9.952747400254662 20.991019395111685 9.56719321330858 0 0 1
814 4 1 0 10.148025306851611 18.392707078521724 6.59681831881053 0 0 1
966 4 1 0 4.0650173780877 23.65063155985829 8.663162871391489 0 -1 2
965 4 1 0 3.0646935438122975 24.491108357074204 7.806304576338773 0 -1 2
968 4 2 0 4.573751212333306 24.547723947731644 9.762527337767738 0 -1 2
3486 15 1 0 8.867276944915421 24.91180880924482 6.063717148614419 0 0 0
3487 15 1 0 9.408259787556748 24.305037889012112 7.410043980631605 0 0 0
819 4 1 0 7.688702777642424 22.217771968060234 10.311511567307225 0 0 1
821 4 1 0 5.641753313809154 21.126914319693686 11.431068522125647 0 0 1
816 4 1 0 10.456875823741607 19.79892427398301 8.790600901738973 0 0 1
2110 9 1 0 15.170528625049453 18.97939956420666 5.965211518018622 0 0 1
2109 9 1 0 15.332022959807015 18.770157603053743 4.4284083654293855 0 0 1
2108 9 1 0 15.559325522602684 20.06047645019751 3.662463989601057 0 0 1
2107 9 1 0 16.664727960784482 21.08789268339514 3.966570370047111 0 0 1
3490 15 1 0 12.11623880350088 24.569978813232712 8.989940433773988 0 0 0
3491 15 1 0 13.05236116038734 24.654235898338094 10.154813802101652 0 0 0
3038 13 1 0 13.196876043423526 23.772458834853865 3.6611597594019822 0 0 0
3040 13 1 0 15.182563548147273 24.69312245267264 5.20243531409958 0 0 0
3039 13 1 0 13.660928533841878 24.55185662535424 4.876892338887048 0 0 0
3488 15 1 0 9.814497853319619 25.42682963414508 8.412128417004444 0 0 0
3489 15 1 0 10.70642053919315 24.807016305836804 9.452897705466128 0 0 0
768 4 1 0 18.2265597711757 21.55830021646276 7.275182352610973 0 0 1
770 4 1 0 18.606126767016782 19.72281207680565 9.101079025688897 0 0 1
3041 13 1 0 15.520334781173352 25.58916501365049 6.464851205128386 0 0 0
3492 15 1 0 12.977668962678555 23.219250366858436 10.897950190603167 0 0 0
2106 9 1 0 16.881914321277343 22.048430662927334 2.8531645903880216 0 0 1
2105 9 1 0 18.01928587743632 23.066864712355354 2.955733259913093 0 0 1
3535 15 1 0 23.92263590265622 17.94498449694735 8.08962669420644 0 0 0
2771 12 1 0 20.98455498783671 18.555497010660872 5.117394468336984 0 0 0
767 4 1 0 18.639904537684608 22.954396434293958 6.795758439855538 0 0 1
769 4 1 0 19.09221902270259 21.019717841102363 8.483699269297313 0 0 1
766 4 1 0 20.074779013027726 22.99179827431454 6.176872355804222 0 0 1
765 4 1 0 20.55290733416865 24.28493711943495 5.570554681455922 0 0 1
3534 15 1 0 23.64460762316607 19.354733786071996 8.610682794931579 0 0 0
3533 15 1 0 23.31757685265902 20.439781783983793 7.608606523685989 0 0 0
3531 15 1 0 24.190951268518564 22.463168062422323 8.954324536224139 0 0 0
3532 15 1 0 22.98302470266113 21.87132099471906 8.222416086291979 0 0 0
3530 15 1 0 24.094130987996017 23.960216673317074 9.326929275612214 0 0 0
764 4 1 0 22.014907386420912 24.15805063908423 5.0323524307202785 0 0 1
2770 12 1 0 22.132713790520697 19.37183717224949 4.496851923625272 0 0 0
771 4 1 0 19.638145837863004 18.901723794891982 9.867956895361006 0 0 1
763 4 1 0 22.53690452892237 25.368238088958798 4.214393147799498 0 0 1
2769 12 1 0 21.65496963544096 20.21133495620725 3.2829810728171225 0 0 0
762 4 1 0 22.665528266877406 26.69722665932662 4.987901776336432 0 0 1
4839 20 2 0 20.43757281350078 27.58566019352891 7.95593483799095 0 0 0
1990 9 1 0 30.635132323802814 18.35232707853538 4.8978078071743205 0 0 1
417 2 1 0 33.6409975164825 18.151988457410408 11.094894408062842 0 0 0
1318 6 1 0 27.706874057168903 19.51331076411032 9.558124715467013 1 0 0
1317 6 1 0 27.541636705726276 21.03313824404079 9.395683249384238 1 0 0
1315 6 1 0 27.073082805082 21.257647647849137 6.842101648625403 1 0 0
1314 6 1 0 27.576867093004246 21.78478544189241 5.503639606147386 1 0 0
1313 6 1 0 26.681750009949294 21.473507696481647 4.334884404830872 1 0 0
2755 12 1 0 31.849972876692426 23.578837187940646 5.886408109701083 0 0 0
2754 12 1 0 31.81813582322667 23.73337441370264 7.374849419331492 0 0 0
1316 6 1 0 27.956702071781706 21.636538854807966 8.010380048447676 1 0 0
2756 12 1 0 30.754731193884144 24.37161528162873 5.1963020785871965 0 0 0
2758 12 1 0 29.518659351824013 24.93527218184346 3.0582384517582044 0 0 0
2757 12 1 0 30.63583404799014 24.132347996266212 3.6702081481562123 0 0 0
2753 12 1 0 32.734655556246736 22.767715331863073 8.125067922703824 0 0 0
1312 6 1 0 27.557772225203 21.707313161311085 3.052229176821452 1 0 0
2752 12 1 0 32.692388136256795 23.29230318809326 9.575090714507947 0 0 0
2751 12 1 0 31.363814089218884 23.459168459831655 10.312698199381355 0 0 0
1991 9 1 0 31.789101667664717 18.549972829540483 3.948541941263554 0 0 1
1992 9 1 0 31.431747386626963 19.24965743649882 2.65024889064538 0 0 1
1311 6 1 0 27.013512111511965 21.224650705779904 52.59821901345009 1 0 -1
3708 16 1 0 41.380149610592966 18.024026211896338 6.720954287130115 0 0 1
3707 16 1 0 42.46647587063306 19.003885038221725 6.906685476816681 0 0 1
415 2 1 0 34.55269843587023 18.147738500777784 8.641581355404274 0 0 0
416 2 1 0 34.00325284547147 18.985847527192803 9.86964766085326 0 0 0
3706 16 1 0 42.52243795489335 19.559076824801895 8.32426288407278 0 0 1
413 2 1 0 35.380238612799175 18.384117261446445 6.187690631736968 0 0 0
414 2 1 0 34.8401644479884 19.096626460710052 7.409931141683193 0 0 0
412 2 1 0 36.01328170648867 19.306957279405427 5.054872826654465 0 0 0
744 4 1 0 38.55959405532222 20.97583319168181 8.922626843225334 0 0 1
743 4 1 0 38.992352213386596 20.809617769650156 10.420696920875677 0 0 1
745 4 1 0 37.60167636022979 22.143244704718203 8.630961912165427 0 0 1
746 4 1 0 37.35222185795196 22.742097665413247 7.205322372249825 0 0 1
2037 9 1 0 39.683649486144205 24.685963172759905 10.756982129002909 0 0 1
747 4 1 0 36.33465389790008 23.861433568035523 7.22536132696057 0 0 1
411 2 1 0 35.19886650043718 20.33704895856731 4.35791269838541 0 0 0
4462 19 1 0 41.601367701163596 20.158527682107753 2.905115114389123 0 0 1
4461 19 1 0 40.91040843351921 21.158160730960358 3.8806881644343747 0 0 1
748 4 1 0 36.32887131308833 24.697535888677574 5.920633860779375 0 0 1
4460 19 1 0 41.88441619879546 22.29996490033994 4.277348612871291 0 0 1
4459 19 1 0 41.70926958512284 22.818590429509303 5.699983044796147 0 0 1
4457 19 1 0 42.28033647516938 24.151975491639487 7.75954671185248 0 0 1
749 4 1 0 34.926911022047676 25.247329320552105 5.615281957882808 0 0 1
410 2 1 0 36.011070885530614 21.063664284354743 3.240863330502926 0 0 0
4504 19 1 0 47.41142289686941 18.854483148474504 7.692332475551287 0 0 1
4502 19 1 0 46.18345509548875 19.07187818887438 5.352319864909062 0 0 1
3705 16 1 0 43.558554600296915 20.529239595164757 8.704725197078929 0 0 1
3704 16 1 0 43.5392715949409 21.239218062237484 10.078214391610683 0 0 1
4458 19 1 0 42.59851644984059 23.94074387541221 6.265480396340937 0 0 1
3872 16 2 0 46.50543276053965 22.67017991663861 7.9652050747052625 -1 -1 1
3870 16 1 0 47.237919973645475 23.384080860860127 9.062835293445849 -1 -1 1
2 1 1 0 48.62810334929925 22.630007648124852 4.514551001954935 0 0 0
3 1 1 0 47.66074757417003 22.58018084757869 3.328989778851547 0 0 0
4 1 1 0 46.40297384830913 23.510277263738946 3.413766237546981 0 0 0
4456 19 1 0 43.172411505253436 25.184691438154857 8.529483907432862 0 0 1
4500 19 1 0 45.56429644806036 19.351075649141904 2.9387306546549463 0 0 1
3869 16 1 0 46.190838550093446 23.75927929761157 10.122968258013891 -1 -1 1
4508 19 1 0 51.42398175968958 19.12414418357154 9.91555515635366 0 0 1
958 4 1 0 47.02305967436109 26.9391043006367 4.928847837973555 -1 -1 2
2528 11 1 0 51.88897669474238 23.7398488008779 53.070925029258845 0 1 -1
1 1 1 0 49.773194950596704 21.507940791296235 4.552081917132519 0 0 0
241 1 2 0 50.676895955169485 21.669569795413004 5.786442864594656 0 0 0
964 4 1 0 52.54677694583238 24.81848699967533 8.317040114020408 -1 -1 2
4510 19 1 0 50.99833696595725 21.507749097704956 10.563460096907205 0 0 1
4509 19 1 0 51.332200195081626 20.55657070920368 9.447436773655205 0 0 1
3675 16 1 0 7.198954400402523 28.04490273242036 10.043871885024679 1 0 1
3674 16 1 0 7.024109504312152 28.570377708520432 8.616807545726388 1 0 1
3673 16 1 0 6.269713806059086 27.66027017170979 7.66550205844055 1 0 1
3671 16 1 0 5.440149652245903 27.295807255608562 5.281158895145769 1 0 1
3670 16 1 0 5.1318782129413325 27.998245470124075 3.915809716536077 1 0 1
4056 17 1 0 4.029771997148094 32.54401701823754 8.224930063048411 0 0 0
3672 16 1 0 6.147158135454665 28.219303871008655 6.216996616945668 1 0 1
3567 15 1 0 9.121136897578335 31.405347988118134 4.371583253917215 0 0 0
3566 15 1 0 9.284421372188373 32.148585495579084 5.689843900772924 0 0 0
3568 15 1 0 8.18020149919451 32.02559710771942 3.3832768974538725 0 0 0
3669 16 1 0 4.0191951499937435 29.07554546850388 3.918365700082461 1 0 1
3565 15 1 0 10.460904617133052 31.47195010395242 6.329976939385003 0 0 0
3564 15 1 0 10.067114963360769 30.047667152026385 6.86535365785092 0 0 0
4057 17 1 0 5.354364527733397 32.70482113855481 8.962757745208805 0 0 0
4055 17 1 0 3.737499714524558 31.128579560071508 7.823655020973218 0 0 0
3563 15 1 0 11.11358134663404 28.983767735676214 7.243053547040071 0 0 0
3676 16 1 0 8.072844888610543 28.97673393757157 10.849270120282231 1 0 1
3042 13 1 0 15.384692929898758 27.123955923980795 6.330925468096157 0 0 0
3559 15 1 0 15.316670028669192 28.72910004584374 9.968921647325981 0 0 0
3560 15 1 0 13.858623808905051 29.153682699426824 9.986445472140003 0 0 0
3562 15 1 0 12.008960080722128 29.514934702245256 8.314472690881093 0 0 0
3561 15 1 0 12.990033989941912 28.524304253134947 8.900436429727861 0 0 0
3043 13 1 0 16.5564857097157 27.83990649887665 5.565821063020154 0 0 0
4555 19 1 0 13.467789438006973 31.40676033126526 3.595442532710166 1 0 1
4554 19 1 0 12.659320657229463 30.396213074395735 2.7448867912937844 1 0 1
4556 19 1 0 13.930861815899704 32.63454763613025 2.765271951552495 1 0 1
3557 15 1 0 17.134051608270546 27.25838297670379 10.673567565718958 0 0 0
3044 13 1 0 16.417890220464866 29.40512935182935 5.319622932113624 0 0 0
4557 19 1 0 12.901161250271473 33.66509264994424 2.5141960038362186 1 0 1
3558 15 1 0 15.715437842334987 27.582759567016097 10.907823437344032 0 0 0
4553 19 1 0 12.24408289030268 29.172864903209703 3.595641642308322 1 0 1
3045 13 1 0 17.69342436066043 30.18021580975752 4.956658792270268 0 0 0
4558 19 1 0 13.346520237989221 34.991130069155005 52.71180283223518 1 0 0
2092 9 1 0 18.225555857611667 34.644352493084526 52.83928199362286 0 0 0
4602 20 1 0 23.124805148055305 31.207576860030517 7.652676742564084 0 0 0
4601 20 1 0 22.27983345432779 29.97970498385692 7.490653545026336 0 0 0
4600 20 1 0 20.827361096840193 30.064346353138976 8.128181202616258 0 0 0
4599 20 1 0 19.92028436813514 28.999165734414277 7.59090678506662 0 0 0
3047 13 1 0 19.620582079544366 30.368606436376968 3.5663537074582052 0 0 0
3046 13 1 0 18.203663796688556 29.930241893601316 3.5930100492484938 0 0 0
3048 13 1 0 20.46210708575318 29.889953855071557 53.17363189473132 0 0 -1
761 4 1 0 23.496398558864723 27.760118526722618 4.242551798554375 0 0 1
760 4 1 0 24.996486182000243 27.571542549541782 4.126120868395509 0 0 1
4603 20 1 0 24.250915345058676 31.354621593609952 6.668172133503132 0 0 0
2084 9 1 0 17.84843321554046 32.378707939691765 8.269610432222652 0 0 1
4604 20 1 0 25.401692193472435 30.288189135754234 6.715580828146507 0 0 0
2085 9 1 0 18.918428037873277 33.24788878093741 7.684494150749238 0 0 1
4605 20 1 0 26.010467812921267 29.950201766869746 8.09894738524569 0 0 0
759 4 1 0 25.764214409090517 28.735786795418203 3.483873816002287 0 0 1
1760 8 1 0 27.916300840309205 33.35011801402662 5.494128637001722 1 -1 0
1761 8 1 0 27.537604100183092 34.78843364844572 5.048648406965035 1 -1 0
2086 9 1 0 18.466708146857226 34.66394301387271 7.349385873035838 0 0 1
1762 8 1 0 26.01275154132853 35.02435358344768 5.023804213070557 1 -1 0
3049 13 1 0 21.942219666261323 30.274916575223596 53.19646854385424 0 0 -1
758 4 1 0 27.32113743696311 28.64252395102035 3.430660932983264 0 0 1
757 4 1 0 27.928678209501058 29.989915900640757 3.105674953263034 0 0 1
4608 20 1 0 29.42934112745711 28.085797926131235 7.12388532009666 0 0 0
4609 20 1 0 30.647122989430073 28.389780650425138 6.316717021812446 0 0 0
4607 20 1 0 28.345931107169847 29.14590754126428 7.187188632040359 0 0 0