units real
atom_style full
boundary p p p

# --- Force Field (injected via PAIR_STYLE_BLOCK) ---
pair_style lj/class2/coul/cut 9.5 9.5
dielectric 1.000000
bond_style class2
angle_style class2
dihedral_style class2
improper_style class2
special_bonds lj/coul 0 0 1
pair_modify mix sixthpower tail yes
neighbor 2.0 bin
neigh_modify delay 0 every 1 check yes
neigh_modify one 4000
# KOKKOS: package loaded via -pk kokkos on the command line

read_data /home/arz2/PolyJarvis/data/PMMA2/lammps/equil/nvt_softheat/nvt_softheat_out.data
Reading data file ...
  orthogonal box = (0 0 0) to (51.750998 51.750998 51.750998)
  1 by 1 by 1 MPI processor grid
WARNING: Pair style lj/class2/coul/long/kk in data file differs from currently defined pair style lj/class2/coul/cut/kk (src/read_data.cpp:811)
  reading atoms ...
  7520 atoms
  reading velocities ...
  7520 velocities
  scanning bonds ...
  4 = max bonds/atom
  scanning angles ...
  17 = max angles/atom
  scanning dihedrals ...
  40 = max dihedrals/atom
  scanning impropers ...
  14 = max impropers/atom
  orthogonal box = (0 0 0) to (51.750998 51.750998 51.750998)
  1 by 1 by 1 MPI processor grid
  reading bonds ...
  7510 bonds
  reading angles ...
  14000 angles
  reading dihedrals ...
  18910 dihedrals
  reading impropers ...
  8500 impropers
Finding 1-2 1-3 1-4 neighbors ...
  special bond factors lj:    0        0        1       
  special bond factors coul:  0        0        1       
     4 = max # of 1-2 neighbors
    11 = max # of 1-3 neighbors
    15 = max # of special neighbors
  special bonds CPU = 0.005 seconds
  read_data CPU = 0.330 seconds
include /home/arz2/PolyJarvis/data/PMMA2/lammps/equil/emc_build.params
# LAMMPS parameters created by EMC v9.4.4, build Jul 31 2025 20:33:44

# Variables

variable	seed		index	734812
variable	ntotal		index	7520
variable	fshape		index	1
variable	output		index	emc_build
variable	field		index	pcff/pcff
variable	location1	index	/home/arz2/emc/field/
variable	nav		index	0.6022141179
variable	temperature	index	300
variable	radius		index	5
variable	nrelax		index	100
variable	weight_nonbond	index	0.0001
variable	weight_bond	index	0.0001
variable	weight_focus	index	1
variable	cutoff		index	9.5
variable	charge_cutoff	index	9.5
variable	kappa		index	4
variable	density1	index	0.6
variable	lprevious	index	0
variable	lphase		index	51.7509981335
variable	f_poly		index	10
variable	chem_repeat	index	*CC(C)(C(=O)OC)*
variable	chem_cap	index	*[H]
variable	lg_repeat	index	15
variable	lg_cap		index	1
variable	norm_poly	index	100
variable	l_poly		index	752
variable	mg_repeat	index	88.10716
variable	mg_cap		index	1.00797
variable	m_poly		index	4407.37394
variable	n_poly		index	10
variable	mtotal		index	50079.3144
variable	nphase1		index	7520
variable	mphase1		index	50079.3144
variable	vphase1		index	138597.753721
variable	lbox		index	51.7509981335
variable	lphase1		index	51.7509981335
variable	lxx		index	51.7509981335
variable	lyy		index	51.7509981335
variable	lzz		index	51.7509981335
variable	lzy		index	0
variable	lzx		index	0
variable	lyx		index	0
variable	vtotal		index	138597.753721
variable	nl_poly		index	10

# Types

variable	type_c		index	1
variable	type_c1		index	2
variable	type_c_1	index	3
variable	type_hc		index	4
variable	type_o_1	index	5
variable	type_o_2	index	6

variable	type_bond_c_c	index	1
variable	type_bond_c_c1	index	2
variable	type_bond_c_c_1	index	3
variable	type_bond_c_hc	index	4
variable	type_bond_c_o_2	index	5
variable	type_bond_c1_c_1 index	6
variable	type_bond_c1_hc	index	7
variable	type_bond_c_1_o_1 index	8
variable	type_bond_c_1_o_2 index	9

variable	type_angle_c_c_c index	1
variable	type_angle_c_c_c1 index	2
variable	type_angle_c_c_c_1 index	3
variable	type_angle_c_c_hc index	4
variable	type_angle_c_c1_c index	5
variable	type_angle_c_c1_c_1 index	6
variable	type_angle_c_c1_hc index	7
variable	type_angle_c_c_1_o_1 index	8
variable	type_angle_c_c_1_o_2 index	9
variable	type_angle_c_o_2_c_1 index	10
variable	type_angle_c1_c_hc index	11
variable	type_angle_c1_c_1_o_1 index	12
variable	type_angle_c1_c_1_o_2 index	13
variable	type_angle_c_1_c1_hc index	14
variable	type_angle_hc_c_hc index	15
variable	type_angle_hc_c_o_2 index	16
variable	type_angle_o_1_c_1_o_2 index	17

# Clusters

variable	n0_poly		index	1
variable	n1_poly		index	10
variable	nl_poly		index	10

# Flags

variable	flag_charged	index	1

# Masses

mass		1    12.01115  # c
mass		2    12.01115  # c1
mass		3    12.01115  # c_1
mass		4     1.00797  # hc
mass		5    15.99940  # o_1
mass		6    15.99940  # o_2

# Potentials

pair_modify	mix sixthpower tail yes
special_bonds	lj/coul 0 0 1

# Pair Coeffs

pair_coeff	 1  1    0.05400    4.01000  # c,c
pair_coeff	 2  2    0.05400    4.01000  # c1,c1
pair_coeff	 3  3    0.12000    3.81000  # c_1,c_1
pair_coeff	 4  4    0.02000    2.99500  # hc,hc
pair_coeff	 5  5    0.26700    3.30000  # o_1,o_1
pair_coeff	 6  6    0.24000    3.42000  # o_2,o_2

# Bond Coeffs

bond_coeff	1    1.53000  299.67000 -501.77000  679.81000  # c,c
bond_coeff	2    1.53000  299.67000 -501.77000  679.81000  # c,c1
bond_coeff	3    1.52020  253.70670 -423.03700  396.90000  # c,c_1
bond_coeff	4    1.10100  345.00000 -691.89000  844.60000  # c,hc
bond_coeff	5    1.43000  326.72730 -608.53060  689.03330  # c,o_2
bond_coeff	6    1.52020  253.70670 -423.03700  396.90000  # c1,c_1
bond_coeff	7    1.10100  345.00000 -691.89000  844.60000  # c1,hc
bond_coeff	8    1.20200  851.14030 -1918.48820 2160.76590  # c_1,o_1
bond_coeff	9    1.36830  367.14810 -794.79080 1055.23190  # c_1,o_2

# Angle Coeffs

angle_coeff	 1  112.67000   39.51600   -7.44300   -9.55830  # c,c,c
angle_coeff	 2  112.67000   39.51600   -7.44300   -9.55830  # c,c,c1
angle_coeff	 3  108.52950   51.97470   -9.48510  -10.99850  # c,c,c_1
angle_coeff	 4  110.77000   41.45300  -10.60400    5.12900  # c,c,hc
angle_coeff	 5  112.67000   39.51600   -7.44300   -9.55830  # c,c1,c
angle_coeff	 6  108.52950   51.97470   -9.48510  -10.99850  # c,c1,c_1
angle_coeff	 7  110.77000   41.45300  -10.60400    5.12900  # c,c1,hc
angle_coeff	 8  123.14510   55.54310  -17.21230    0.13480  # c,c_1,o_1
angle_coeff	 9  100.31820   38.86310   -3.83230   -7.98020  # c,c_1,o_2
angle_coeff	10  113.28800   61.28680  -28.97860    7.99290  # c,o_2,c_1
angle_coeff	11  110.77000   41.45300  -10.60400    5.12900  # c1,c,hc
angle_coeff	12  123.14510   55.54310  -17.21230    0.13480  # c1,c_1,o_1
angle_coeff	13  100.31820   38.86310   -3.83230   -7.98020  # c1,c_1,o_2
angle_coeff	14  107.73360   40.60990  -28.81210    0.00000  # c_1,c1,hc
angle_coeff	15  107.66000   39.64100  -12.92100   -2.43180  # hc,c,hc
angle_coeff	16  107.68800   65.48010  -10.34980    5.88660  # hc,c,o_2
angle_coeff	17  120.79700   95.34460  -32.28690    6.37780  # o_1,c_1,o_2

# BondBond Coeffs

angle_coeff	 1 bb    0.00000    1.53000    1.53000  # c,c,c
angle_coeff	 2 bb    0.00000    1.53000    1.53000  # c,c,c1
angle_coeff	 3 bb    5.41990    1.53000    1.52020  # c,c,c_1
angle_coeff	 4 bb    3.38720    1.53000    1.10100  # c,c,hc
angle_coeff	 5 bb    0.00000    1.53000    1.53000  # c,c1,c
angle_coeff	 6 bb    5.41990    1.53000    1.52020  # c,c1,c_1
angle_coeff	 7 bb    3.38720    1.53000    1.10100  # c,c1,hc
angle_coeff	 8 bb   46.06850    1.52020    1.20200  # c,c_1,o_1
angle_coeff	 9 bb   19.10690    1.52020    1.36830  # c,c_1,o_2
angle_coeff	10 bb   45.45030    1.43000    1.36830  # c,o_2,c_1
angle_coeff	11 bb    3.38720    1.53000    1.10100  # c1,c,hc
angle_coeff	12 bb   46.06850    1.52020    1.20200  # c1,c_1,o_1
angle_coeff	13 bb   19.10690    1.52020    1.36830  # c1,c_1,o_2
angle_coeff	14 bb    0.71150    1.52020    1.10100  # c_1,c1,hc
angle_coeff	15 bb    5.33160    1.10100    1.10100  # hc,c,hc
angle_coeff	16 bb    5.64540    1.10100    1.43000  # hc,c,o_2
angle_coeff	17 bb  121.48800    1.20200    1.36830  # o_1,c_1,o_2

# BondAngle Coeffs

angle_coeff	 1 ba    8.01600    8.01600    1.53000    1.53000  # c,c,c
angle_coeff	 2 ba    8.01600    8.01600    1.53000    1.53000  # c,c,c1
angle_coeff	 3 ba   18.16780   15.87580    1.53000    1.52020  # c,c,c_1
angle_coeff	 4 ba   20.75400   11.42100    1.53000    1.10100  # c,c,hc
angle_coeff	 5 ba    8.01600    8.01600    1.53000    1.53000  # c,c1,c
angle_coeff	 6 ba   18.16780   15.87580    1.53000    1.52020  # c,c1,c_1
angle_coeff	 7 ba   20.75400   11.42100    1.53000    1.10100  # c,c1,hc
angle_coeff	 8 ba   34.99820   37.12980    1.52020    1.20200  # c,c_1,o_1
angle_coeff	 9 ba    1.34350    4.69780    1.52020    1.36830  # c,c_1,o_2
angle_coeff	10 ba   41.91160   46.46080    1.43000    1.36830  # c,o_2,c_1
angle_coeff	11 ba   20.75400   11.42100    1.53000    1.10100  # c1,c,hc
angle_coeff	12 ba   34.99820   37.12980    1.52020    1.20200  # c1,c_1,o_1
angle_coeff	13 ba    1.34350    4.69780    1.52020    1.36830  # c1,c_1,o_2
angle_coeff	14 ba   12.46320    9.17650    1.52020    1.10100  # c_1,c1,hc
angle_coeff	15 ba   18.10300   18.10300    1.10100    1.10100  # hc,c,hc
angle_coeff	16 ba    8.68640   57.49750    1.10100    1.43000  # hc,c,o_2
angle_coeff	17 ba   76.26140   71.87610    1.20200    1.36830  # o_1,c_1,o_2

# Dihedral Coeffs

dihedral_coeff	 1    0.00000    0.00000    0.05140    0.00000   -0.14300    0.00000  # c,c,c,c
dihedral_coeff	 2    0.00000    0.00000    0.05140    0.00000   -0.14300    0.00000  # c,c,c,c1
dihedral_coeff	 3    0.09720    0.00000    0.07220    0.00000   -0.25810    0.00000  # c,c,c,c_1
dihedral_coeff	 4    0.00000    0.00000    0.03160    0.00000   -0.16810    0.00000  # c,c,c,hc
dihedral_coeff	 5    0.00000    0.00000    0.05140    0.00000   -0.14300    0.00000  # c,c,c1,c
dihedral_coeff	 6    0.09720    0.00000    0.07220    0.00000   -0.25810    0.00000  # c,c,c1,c_1
dihedral_coeff	 7    0.00000    0.00000    0.03160    0.00000   -0.16810    0.00000  # c,c,c1,hc
dihedral_coeff	 8    0.04420    0.00000    0.02920    0.00000    0.05620    0.00000  # c,c,c_1,o_1
dihedral_coeff	 9    1.83410    0.00000    2.06030    0.00000   -0.01950    0.00000  # c,c,c_1,o_2
dihedral_coeff	10    0.00000    0.00000    0.03160    0.00000   -0.16810    0.00000  # c,c1,c,hc
dihedral_coeff	11    0.04420    0.00000    0.02920    0.00000    0.05620    0.00000  # c,c1,c_1,o_1
dihedral_coeff	12    1.83410    0.00000    2.06030    0.00000   -0.01950    0.00000  # c,c1,c_1,o_2
dihedral_coeff	13   -2.55940    0.00000    2.20130    0.00000    0.03250    0.00000  # c,c_1,o_2,c
dihedral_coeff	14   -2.55940    0.00000    2.20130    0.00000    0.03250    0.00000  # c,o_2,c_1,c1
dihedral_coeff	15    0.00000    0.00000    2.20890    0.00000    0.00000    0.00000  # c,o_2,c_1,o_1
dihedral_coeff	16    0.09720    0.00000    0.07220    0.00000   -0.25810    0.00000  # c1,c,c,c_1
dihedral_coeff	17   -0.02280    0.00000    0.02800    0.00000   -0.18630    0.00000  # c_1,c,c,hc
dihedral_coeff	18   -0.02280    0.00000    0.02800    0.00000   -0.18630    0.00000  # c_1,c1,c,hc
dihedral_coeff	19    0.00000    0.00000    0.00000    0.00000   -0.19320    0.00000  # c_1,o_2,c,hc
dihedral_coeff	20   -0.14320    0.00000    0.06170    0.00000   -0.10830    0.00000  # hc,c,c1,hc
dihedral_coeff	21   -0.18040    0.00000    0.00120    0.00000    0.03710    0.00000  # hc,c1,c_1,o_1
dihedral_coeff	22   -0.63590    0.00000    1.48070    0.00000   -0.04380    0.00000  # hc,c1,c_1,o_2

# MiddleBondTorsion Coeffs

dihedral_coeff	 1 mbt  -17.78700   -7.18770    0.00000    1.53000  # c,c,c,c
dihedral_coeff	 2 mbt  -17.78700   -7.18770    0.00000    1.53000  # c,c,c,c1
dihedral_coeff	 3 mbt   -1.59450    0.22670   -0.69110    1.53000  # c,c,c,c_1
dihedral_coeff	 4 mbt  -14.87900   -3.65810   -0.31380    1.53000  # c,c,c,hc
dihedral_coeff	 5 mbt  -17.78700   -7.18770    0.00000    1.53000  # c,c,c1,c
dihedral_coeff	 6 mbt   -1.59450    0.22670   -0.69110    1.53000  # c,c,c1,c_1
dihedral_coeff	 7 mbt  -14.87900   -3.65810   -0.31380    1.53000  # c,c,c1,hc
dihedral_coeff	 8 mbt    0.33880   -0.10960    0.12190    1.52020  # c,c,c_1,o_1
dihedral_coeff	 9 mbt  -17.32800   -5.79000   -3.21140    1.52020  # c,c,c_1,o_2
dihedral_coeff	10 mbt  -14.87900   -3.65810   -0.31380    1.53000  # c,c1,c,hc
dihedral_coeff	11 mbt    0.33880   -0.10960    0.12190    1.52020  # c,c1,c_1,o_1
dihedral_coeff	12 mbt  -17.32800   -5.79000   -3.21140    1.52020  # c,c1,c_1,o_2
dihedral_coeff	13 mbt    1.34450    3.55150   -4.92020    1.36830  # c,c_1,o_2,c
dihedral_coeff	14 mbt    1.34450    3.55150   -4.92020    1.36830  # c,o_2,c_1,c1
dihedral_coeff	15 mbt    4.26000    0.00000    0.00000    1.36830  # c,o_2,c_1,o_1
dihedral_coeff	16 mbt   -1.59450    0.22670   -0.69110    1.53000  # c1,c,c,c_1
dihedral_coeff	17 mbt   -3.50390    1.24580   -0.76100    1.53000  # c_1,c,c,hc
dihedral_coeff	18 mbt   -3.50390    1.24580   -0.76100    1.53000  # c_1,c1,c,hc
dihedral_coeff	19 mbt    0.00000    0.00000    0.00000    1.43000  # c_1,o_2,c,hc
dihedral_coeff	20 mbt  -14.26100   -0.53220   -0.48640    1.53000  # hc,c,c1,hc
dihedral_coeff	21 mbt    0.23590    0.91390    0.95940    1.52020  # hc,c1,c_1,o_1
dihedral_coeff	22 mbt  -13.76860   -2.59590    1.19340    1.52020  # hc,c1,c_1,o_2

# EndBondTorsion Coeffs

dihedral_coeff	 1 ebt   -0.07320    0.00000    0.00000   -0.07320    0.00000    0.00000    1.53000    1.53000  # c,c,c,c
dihedral_coeff	 2 ebt   -0.07320    0.00000    0.00000   -0.07320    0.00000    0.00000    1.53000    1.53000  # c,c,c,c1
dihedral_coeff	 3 ebt    0.00620   -0.00020    0.00360    0.00550    0.00600   -0.00090    1.53000    1.52020  # c,c,c,c_1
dihedral_coeff	 4 ebt    0.24860    0.24220   -0.09250    0.08140    0.05910    0.22190    1.53000    1.10100  # c,c,c,hc
dihedral_coeff	 5 ebt   -0.07320    0.00000    0.00000   -0.07320    0.00000    0.00000    1.53000    1.53000  # c,c,c1,c
dihedral_coeff	 6 ebt    0.00620   -0.00020    0.00360    0.00550    0.00600   -0.00090    1.53000    1.52020  # c,c,c1,c_1
dihedral_coeff	 7 ebt    0.24860    0.24220   -0.09250    0.08140    0.05910    0.22190    1.53000    1.10100  # c,c,c1,hc
dihedral_coeff	 8 ebt    0.26540    0.05030    0.10460   -0.28100    0.08160   -0.15220    1.53000    1.20200  # c,c,c_1,o_1
dihedral_coeff	 9 ebt    0.00000    0.00000    0.00000    0.00000    0.00000    0.00000    1.53000    1.36830  # c,c,c_1,o_2
dihedral_coeff	10 ebt    0.24860    0.24220   -0.09250    0.08140    0.05910    0.22190    1.53000    1.10100  # c,c1,c,hc
dihedral_coeff	11 ebt    0.26540    0.05030    0.10460   -0.28100    0.08160   -0.15220    1.53000    1.20200  # c,c1,c_1,o_1
dihedral_coeff	12 ebt    0.00000    0.00000    0.00000    0.00000    0.00000    0.00000    1.53000    1.36830  # c,c1,c_1,o_2
dihedral_coeff	13 ebt    0.00000    0.00000    0.00000    0.00000    0.00000    0.00000    1.52020    1.43000  # c,c_1,o_2,c
dihedral_coeff	14 ebt    0.00000    0.00000    0.00000    0.00000    0.00000    0.00000    1.43000    1.52020  # c,o_2,c_1,c1
dihedral_coeff	15 ebt    0.00000    0.00000    0.00000    0.00000    0.00000    0.00000    1.43000    1.20200  # c,o_2,c_1,o_1
dihedral_coeff	16 ebt    0.00620   -0.00020    0.00360    0.00550    0.00600   -0.00090    1.53000    1.52020  # c1,c,c,c_1
dihedral_coeff	17 ebt   -0.02040    0.36280   -0.44260   -0.00970   -0.03150   -0.07550    1.52020    1.10100  # c_1,c,c,hc
dihedral_coeff	18 ebt   -0.02040    0.36280   -0.44260   -0.00970   -0.03150   -0.07550    1.52020    1.10100  # c_1,c1,c,hc
dihedral_coeff	19 ebt    0.00000    0.00000    0.00000    0.00000    0.00000    0.00000    1.36830    1.10100  # c_1,o_2,c,hc
dihedral_coeff	20 ebt    0.21300    0.31200    0.07770    0.21300    0.31200    0.07770    1.10100    1.10100  # hc,c,c1,hc
dihedral_coeff	21 ebt    1.21430    0.28310    0.39160   -0.22980    0.03540    0.38530    1.10100    1.20200  # hc,c1,c_1,o_1
dihedral_coeff	22 ebt    0.00000    0.00000    0.00000    0.00000    0.00000    0.00000    1.10100    1.36830  # hc,c1,c_1,o_2

# AngleTorsion Coeffs

dihedral_coeff	 1 at    0.38860   -0.31390    0.13890    0.38860   -0.31390    0.13890  112.67000  112.67000  # c,c,c,c
dihedral_coeff	 2 at    0.38860   -0.31390    0.13890    0.38860   -0.31390    0.13890  112.67000  112.67000  # c,c,c,c1
dihedral_coeff	 3 at   -0.26070    0.32030   -0.22830    0.05150   -0.06740   -0.04740  112.67000  108.52950  # c,c,c,c_1
dihedral_coeff	 4 at   -0.24540    0.00000   -0.11360    0.31130    0.45160   -0.19880  112.67000  110.77000  # c,c,c,hc
dihedral_coeff	 5 at    0.38860   -0.31390    0.13890    0.38860   -0.31390    0.13890  112.67000  112.67000  # c,c,c1,c
dihedral_coeff	 6 at   -0.26070    0.32030   -0.22830    0.05150   -0.06740   -0.04740  112.67000  108.52950  # c,c,c1,c_1
dihedral_coeff	 7 at   -0.24540    0.00000   -0.11360    0.31130    0.45160   -0.19880  112.67000  110.77000  # c,c,c1,hc
dihedral_coeff	 8 at    0.08850   -1.37030   -0.54520    0.67500    0.59650    0.67250  108.52950  123.14510  # c,c,c_1,o_1
dihedral_coeff	 9 at    0.00000    0.00000    0.00000    0.00000    0.00000    0.00000  108.52950  100.31820  # c,c,c_1,o_2
dihedral_coeff	10 at   -0.24540    0.00000   -0.11360    0.31130    0.45160   -0.19880  112.67000  110.77000  # c,c1,c,hc
dihedral_coeff	11 at    0.08850   -1.37030   -0.54520    0.67500    0.59650    0.67250  108.52950  123.14510  # c,c1,c_1,o_1
dihedral_coeff	12 at    0.00000    0.00000    0.00000    0.00000    0.00000    0.00000  108.52950  100.31820  # c,c1,c_1,o_2
dihedral_coeff	13 at    0.00000    0.00000    0.00000    0.00000    0.00000    0.00000  100.31820  113.28800  # c,c_1,o_2,c
dihedral_coeff	14 at    0.00000    0.00000    0.00000    0.00000    0.00000    0.00000  113.28800  100.31820  # c,o_2,c_1,c1
dihedral_coeff	15 at    0.00000    0.00000    0.00000    0.00000    0.00000    0.00000  113.28800  120.79700  # c,o_2,c_1,o_1
dihedral_coeff	16 at   -0.26070    0.32030   -0.22830    0.05150   -0.06740   -0.04740  112.67000  108.52950  # c1,c,c,c_1
dihedral_coeff	17 at   -0.74660   -0.94480   -0.63210    0.01620    1.42110   -1.40920  108.52950  110.77000  # c_1,c,c,hc
dihedral_coeff	18 at   -0.74660   -0.94480   -0.63210    0.01620    1.42110   -1.40920  108.52950  110.77000  # c_1,c1,c,hc
dihedral_coeff	19 at    0.00000    0.00000    0.00000    0.00000    0.00000    0.00000  113.28800  107.68800  # c_1,o_2,c,hc
dihedral_coeff	20 at   -0.80850    0.55690   -0.24660   -0.80850    0.55690   -0.24660  110.77000  110.77000  # hc,c,c1,hc
dihedral_coeff	21 at    9.12990   -0.48470    0.35820   -1.49460    0.73080   -0.20830  107.73360  123.14510  # hc,c1,c_1,o_1
dihedral_coeff	22 at    0.00000    0.00000    0.00000    0.00000    0.00000    0.00000  107.73360  100.31820  # hc,c1,c_1,o_2

# AngleAngleTorsion Coeffs

dihedral_coeff	 1 aat  -22.04500  112.67000  112.67000  # c,c,c,c
dihedral_coeff	 2 aat  -22.04500  112.67000  112.67000  # c,c,c,c1
dihedral_coeff	 3 aat   -0.38010  112.67000  108.52950  # c,c,c,c_1
dihedral_coeff	 4 aat  -16.16400  112.67000  110.77000  # c,c,c,hc
dihedral_coeff	 5 aat  -22.04500  112.67000  112.67000  # c,c,c1,c
dihedral_coeff	 6 aat   -0.38010  112.67000  108.52950  # c,c,c1,c_1
dihedral_coeff	 7 aat  -16.16400  112.67000  110.77000  # c,c,c1,hc
dihedral_coeff	 8 aat   -8.01900  108.52950  123.14510  # c,c,c_1,o_1
dihedral_coeff	 9 aat    0.00000  108.52950  100.31820  # c,c,c_1,o_2
dihedral_coeff	10 aat  -16.16400  112.67000  110.77000  # c,c1,c,hc
dihedral_coeff	11 aat   -8.01900  108.52950  123.14510  # c,c1,c_1,o_1
dihedral_coeff	12 aat    0.00000  108.52950  100.31820  # c,c1,c_1,o_2
dihedral_coeff	13 aat    0.00000  100.31820  113.28800  # c,c_1,o_2,c
dihedral_coeff	14 aat    0.00000  113.28800  100.31820  # c,o_2,c_1,c1
dihedral_coeff	15 aat    0.00000  113.28800  120.79700  # c,o_2,c_1,o_1
dihedral_coeff	16 aat   -0.38010  112.67000  108.52950  # c1,c,c,c_1
dihedral_coeff	17 aat   -5.36240  108.52950  110.77000  # c_1,c,c,hc
dihedral_coeff	18 aat   -5.36240  108.52950  110.77000  # c_1,c1,c,hc
dihedral_coeff	19 aat    0.00000  113.28800  107.68800  # c_1,o_2,c,hc
dihedral_coeff	20 aat  -12.56400  110.77000  110.77000  # hc,c,c1,hc
dihedral_coeff	21 aat  -15.34960  107.73360  123.14510  # hc,c1,c_1,o_1
dihedral_coeff	22 aat    0.00000  107.73360  100.31820  # hc,c1,c_1,o_2

# BondBond13 Coeffs

dihedral_coeff	 1 bb13    0.00000    1.53000    1.53000  # c,c,c,c
dihedral_coeff	 2 bb13    0.00000    1.53000    1.53000  # c,c,c,c1
dihedral_coeff	 3 bb13    0.00000    1.53000    1.52020  # c,c,c,c_1
dihedral_coeff	 4 bb13    0.00000    1.53000    1.10100  # c,c,c,hc
dihedral_coeff	 5 bb13    0.00000    1.53000    1.53000  # c,c,c1,c
dihedral_coeff	 6 bb13    0.00000    1.53000    1.52020  # c,c,c1,c_1
dihedral_coeff	 7 bb13    0.00000    1.53000    1.10100  # c,c,c1,hc
dihedral_coeff	 8 bb13    0.00000    1.53000    1.20200  # c,c,c_1,o_1
dihedral_coeff	 9 bb13    0.00000    1.53000    1.36830  # c,c,c_1,o_2
dihedral_coeff	10 bb13    0.00000    1.53000    1.10100  # c,c1,c,hc
dihedral_coeff	11 bb13    0.00000    1.53000    1.20200  # c,c1,c_1,o_1
dihedral_coeff	12 bb13    0.00000    1.53000    1.36830  # c,c1,c_1,o_2
dihedral_coeff	13 bb13    0.00000    1.52020    1.43000  # c,c_1,o_2,c
dihedral_coeff	14 bb13    0.00000    1.43000    1.52020  # c,o_2,c_1,c1
dihedral_coeff	15 bb13    0.00000    1.43000    1.20200  # c,o_2,c_1,o_1
dihedral_coeff	16 bb13    0.00000    1.53000    1.52020  # c1,c,c,c_1
dihedral_coeff	17 bb13    0.00000    1.52020    1.10100  # c_1,c,c,hc
dihedral_coeff	18 bb13    0.00000    1.52020    1.10100  # c_1,c1,c,hc
dihedral_coeff	19 bb13    0.00000    1.36830    1.10100  # c_1,o_2,c,hc
dihedral_coeff	20 bb13    0.00000    1.10100    1.10100  # hc,c,c1,hc
dihedral_coeff	21 bb13    0.00000    1.10100    1.20200  # hc,c1,c_1,o_1
dihedral_coeff	22 bb13    0.00000    1.10100    1.36830  # hc,c1,c_1,o_2

# Improper Coeffs

improper_coeff	 1    0.00000    0.00000  # c,c,c,c
improper_coeff	 2    0.00000    0.00000  # c,c,c,c_1
improper_coeff	 3    0.00000    0.00000  # c,c,c,hc
improper_coeff	 4    0.00000    0.00000  # c,c,c1,hc
improper_coeff	 5    0.00000    0.00000  # c,c,hc,hc
improper_coeff	 6    0.00000    0.00000  # c,c1,hc,hc
improper_coeff	 7    0.00000    0.00000  # c,hc,hc,hc
improper_coeff	 8    0.00000    0.00000  # c,hc,hc,o_2
improper_coeff	 9    0.00000    0.00000  # c1,c,c,c_1
improper_coeff	10    0.00000    0.00000  # c1,c,c,hc
improper_coeff	11    0.00000    0.00000  # c1,c,c_1,hc
improper_coeff	12    0.00000    0.00000  # c1,c,hc,c_1
improper_coeff	13   46.92640    0.00000  # c_1,c,o_2,o_1
improper_coeff	14   46.92640    0.00000  # c_1,c1,o_2,o_1

# AngleAngle Coeffs

improper_coeff	 1 aa   -0.17290   -0.17290   -0.17290  112.67000  112.67000  112.67000  # c,c,c,c
improper_coeff	 2 aa    0.00000    0.00000    0.00000  112.67000  108.52950  108.52950  # c,c,c,c_1
improper_coeff	 3 aa   -1.31990   -1.31990    0.11840  112.67000  110.77000  110.77000  # c,c,c,hc
improper_coeff	 4 aa   -1.31990   -1.31990    0.11840  112.67000  110.77000  110.77000  # c,c,c1,hc
improper_coeff	 5 aa    0.27380   -0.48250    0.27380  110.77000  110.77000  107.66000  # c,c,hc,hc
improper_coeff	 6 aa    0.27380   -0.48250    0.27380  110.77000  110.77000  107.66000  # c,c1,hc,hc
improper_coeff	 7 aa   -0.31570   -0.31570   -0.31570  107.66000  107.66000  107.66000  # c,hc,hc,hc
improper_coeff	 8 aa    0.00000    0.00000    0.00000  107.66000  107.68800  107.68800  # c,hc,hc,o_2
improper_coeff	 9 aa    0.00000    0.00000    0.00000  112.67000  108.52950  108.52950  # c1,c,c,c_1
improper_coeff	10 aa   -1.31990   -1.31990    0.11840  112.67000  110.77000  110.77000  # c1,c,c,hc
improper_coeff	11 aa    2.04030   -1.82020    1.08270  108.52950  110.77000  107.73360  # c1,c,c_1,hc
improper_coeff	12 aa    1.08270   -1.82020    2.04030  110.77000  108.52950  107.73360  # c1,c,hc,c_1
improper_coeff	13 aa    0.00000    0.00000    0.00000  100.31820  123.14510  120.79700  # c_1,c,o_2,o_1
improper_coeff	14 aa    0.00000    0.00000    0.00000  100.31820  123.14510  120.79700  # c_1,c1,o_2,o_1


# --- Thermo Output ---
thermo_style custom step time temp press enthalpy etotal ke pe ebond eangle edihed eimp evdwl ecoul vol lx ly lz density pxx pyy pzz
thermo_modify flush yes
thermo 1000

# --- Trajectory ---
dump dump_comp all custom 2000 npt_compress.dump id type mol x y z ix iy iz vx vy vz

restart 10000 compress_1.rst compress_2.rst
velocity all create 600.0 872256 mom yes rot yes dist gaussian
# SHAKE disabled

# --- NPT Compression ---
# High pressure compresses the cell from low to target density
# P ramp: 1.0 -> 50000.0 atm
timestep 0.5
fix npt_comp all npt temp 630.0 630.0 100.0 iso 1.0 50000.0 1000.0

run 500000
Generated 15 of 15 mixed pair_coeff terms from sixthpower/sixthpower mixing rule
Neighbor list info ...
  update: every = 1 steps, delay = 0 steps, check = yes
  max neighbors/atom: 4000, page size: 100000
  master list distance cutoff = 11.5
  ghost atom cutoff = 11.5
  binsize = 11.5, bins = 5 5 5
  1 neighbor lists, perpetual/occasional/extra = 1 0 0
  (1) pair lj/class2/coul/cut/kk, perpetual
      attributes: full, newton off, kokkos_device
      pair build: full/bin/kk/device
      stencil: full/bin/3d
      bin: kk/device
Per MPI rank memory allocation (min/avg/max) = 39.26 | 39.26 | 39.26 Mbytes
   Step          Time           Temp          Press         Enthalpy        TotEng         KinEng         PotEng         E_bond        E_angle        E_dihed        E_impro         E_vdwl         E_coul         Volume           Lx             Ly             Lz          Density          Pxx            Pyy            Pzz      
         0   0              600           -386.47146      42552.194      43333.371      13447.626      29885.744      6964.7265      9943.3223     -1478.7136      358.03116      1859.5882      12238.79       138597.75      51.750998      51.750998      51.750998      0.59999999    -871.84612      234.28466     -521.85293    
      1000   500            633.03454     -413.88829      43480.799      44302.963      14188.02       30114.943      6873.8562      9797.073      -1435.4155      367.51162      1866.7298      12645.188      136207.04      51.451715      51.451715      51.451715      0.61053122    -44.616176     -1650.0641      453.01545    
      2000   1000           630.92593     -100.72694      44866.201      45060.182      14140.76       30919.422      6854.3908      9790.6704     -1482.7383      365.25784      1746.5043      13645.337      132049.59      50.922809      50.922809      50.922809      0.62975319    -511.55624     -206.12944      415.50487    
      3000   1500           640.50789      948.95796      45392.205      43615.936      14355.518      29260.418      6782.737       9886.8223     -1425.0854      328.96509      1776.6322      11910.347      128346.99      50.442341      50.442341      50.442341      0.64792052     2503.9211     -578.74324      921.69601    
      4000   2000           632.17272     -751.79344      42253.005      43619.631      14168.704      29450.927      6965.5512      9797.6101     -1416.112       369.65805      1647.9551      12086.264      124645.12      49.952638      49.952638      49.952638      0.66716332    -487.99571     -334.53489     -1432.8497    
      5000   2500           631.48298      882.65769      45367.333      43799.339      14153.245      29646.094      6628.5338      9773.9155     -1424.8561      363.99825      1679.9104      12624.592      121808.11      49.57074       49.57074       49.57074       0.68270207     650.76437      1691.6292      305.57952    
      6000   3000           628.74632      918.03416      46069.491      44474.745      14091.909      30382.835      6878.9577      9847.5332     -1513.791       399.63972      1681.2904      13089.205      119112.39      49.202327      49.202327      49.202327      0.69815284     1288.7379      1285.3663      179.99827    
      7000   3500           631.68337     -287.53783      43510.844      43998.155      14157.737      29840.419      6790.4901      9817.1643     -1474.85        357.58301      1659.0532      12690.978      116207.75      48.799087      48.799087      48.799087      0.71560333     779.36758     -500.41749     -1141.5636    
      8000   4000           624.95972     -315.01442      43949.674      44467.571      14007.041      30460.53       6994.3951      9857.4619     -1413.3242      367.90068      1632.2981      13021.798      112729.34      48.30725       48.30725       48.30725       0.73768419    -1072.5711      403.52223     -275.99437    
      9000   4500           631.39715      478.50478      44846.203      44078.857      14151.322      29927.535      6630.5431      9805.0619     -1469.1229      392.16988      1537.7164      13031.167      109958.55      47.908179      47.908179      47.908179      0.75627271     1167.322       96.195373      171.997      
     10000   5000           620.5073       2282.6522      48068.939      44486.115      13907.251      30578.864      6656.3597      9858.7201     -1425.2952      433.964        1526.7815      13528.334      107624.18      47.566729      47.566729      47.566729      0.77267626     1986.5295      946.82551      3914.6017    
     11000   5500           635.91641      1388.3207      45648.46       43523.503      14252.611      29270.892      6644.9825      9801.5186     -1430.0105      364.9068       1424.2958      12465.199      104950.51      47.169527      47.169527      47.169527      0.79236059     2204.5219      526.50752      1433.9328    
     12000   6000           626.26058      9.3978525      42930.849      42916.847      14036.197      28880.65       6861.1197      9741.9803     -1427.4902      367.06127      1453.941       11884.038      102162.38      46.748068      46.748068      46.748068      0.81398507     1115.1817     -1041.5492     -45.438939    
     13000   6500           630.96764      1908.6313      46518.149      43735.344      14141.695      29593.649      6586.3912      9881.1529     -1432.1236      386.23376      1581.4966      12590.498      99973.503      46.411788      46.411788      46.411788      0.83180691     2271.4034      642.98429      2811.5064    
     14000   7000           626.61938      1630.8166      47123.28       44801.931      14044.239      30757.692      6808.3256      9803.3176     -1417.2957      381.33168      1395.9835      13786.029      97602.176      46.041893      46.041893      46.041893      0.85201636     1984.2427      1334.9929      1573.2143    
     15000   7500           627.86908      329.55809      42732.592      42271.743      14072.248      28199.495      6904.1597      9804.1079     -1391.9198      359.97504      1358.8181      11164.354      95884.952      45.770271      45.770271      45.770271      0.86727531    -371.06739      347.23342      1012.5083    
     16000   8000           637.79359      1903.9548      45994.384      43400.706      14294.683      29106.022      6475.4364      9773.7396     -1362.9028      364.36806      1465.4333      12389.948      93407.904      45.372692      45.372692      45.372692      0.89027424     1620.3037      2101.634       1989.9267    
     17000   8500           632.35501      1812.7327      47413.654      44987.355      14172.79       30814.565      6771.815       9933.2859     -1329.8951      372.50801      1279.122       13787.729      91777.183      45.1071        45.1071        45.1071        0.90609286     1284.6284      2010.9851      2142.5845    
     18000   9000           636.39841      2446.6977      47927.955      44721.158      14263.414      30457.744      6826.4743      9867.3932     -1461.1434      378.59118      1343.3153      13503.114      89870.108      44.792478      44.792478      44.792478      0.92532047     4382.6308     -164.00975      3121.4721    
     19000   9500           626.33289      558.34577      44866.462      44143.708      14037.818      30105.89       6826.965       9820.426      -1361.1304      392.24719      1207.3862      13219.996      88758.796      44.607081      44.607081      44.607081      0.93690602     1557.4907     -330.66396      448.21052    
     20000   10000          632.37715     -90.704378      44560.638      44676.681      14173.286      30503.395      6776.8578      9752.5745     -1296.4012      401.97973      1171.7326      13696.651      87723.144      44.432907      44.432907      44.432907      0.94796706    -720.48076     -46.465897      494.83352    
     21000   10500          632.48861      1797.4824      46559.911      44294.451      14175.784      30118.667      6866.9072      9910.4747     -1365.7453      350.75681      1266.9387      13089.335      86420.309      44.211842      44.211842      44.211842      0.9622582      3555.2477      137.6692       1699.5303    
     22000   11000          613.56368      2626.9787      47067.204      43818.705      13751.625      30067.08       6780.0008      9789.5904     -1278.7834      347.73323      1196.9508      13231.588      84791.105      43.932249      43.932249      43.932249      0.98074734     2630.3012      4834.1813      416.45359    
     23000   11500          632.58787      2943.6175      47401.627      43820.999      14178.009      29642.99       6638.1305      9739.4961     -1235.5344      376.18816      1215.5075      12909.202      83406.892      43.691871      43.691871      43.691871      0.99702373     1318.4623      3330.901       4181.4892    
     24000   12000          632.25354      1323.7162      44462.199      42857.253      14170.516      28686.737      6741.3792      9890.6979     -1228.7465      356.56128      1089.2056      11837.639      83136.129      43.644541      43.644541      43.644541      1.0002709      2190.9281      146.63156      1633.589     
     25000   12500          637.22205      5763.1994      50814.039      43883.352      14281.874      29601.478      6527.1932      9732.7793     -1248.1182      367.40776      1162.2741      13059.942      82458.749      43.525682      43.525682      43.525682      1.0084879      6353.563       6193.9152      4742.1201    
     26000   13000          625.02287      1687.4103      45104.654      43098.575      14008.457      29090.118      6598.4791      9978.677      -1365.855       388.20941      1037.2         12453.407      81517.632      43.359459      43.359459      43.359459      1.0201308      1661.3216      3119.7803      281.12888    
     27000   13500          615.2171       2408.4582      46760.624      43908.019      13788.683      30119.336      6627.9716      9795.7316     -1222.5977      354.89198      1075.1644      13488.174      81213.197      43.305415      43.305415      43.305415      1.0239549      1458.3286      3305.7592      2461.2869    
     28000   14000          634.60358      1510.8664      46745.839      44973.309      14223.187      30750.123      6874.397       9823.6429     -1250.4126      388.7003       932.60193      13981.193      80443.613      43.168192      43.168192      43.168192      1.0337508      2223.2455      1407.3908      901.96291    
     29000   14500          631.9869       4249.0873      49327.623      44378.345      14164.54       30213.805      6727.1389      9836.8331     -1274.9876      375.06182      1095.6296      13454.13       79867.533      43.064898      43.064898      43.064898      1.0412072      4758.5788      4378.8925      3609.7905    
     30000   15000          626.26876      2010.7647      45842.493      43529.795      14036.381      29493.415      6637.6779      9590.7503     -1301.6536      337.18518      1005.6594      13223.796      78864.522      42.883862      42.883862      42.883862      1.0544494      2400.4638      2482.6229      1149.2075    
     31000   15500          632.87533      3223.0077      47175.616      43436.487      14184.452      29252.036      6767.542       9755.7221     -1309.6143      372.48252      988.29063      12677.613      79548.722      43.00752       43.00752       43.00752       1.0453801      3926.8142      2717.5064      3024.7023    
     32000   16000          629.49385      1862.3201      45396.382      43250.296      14108.664      29141.632      6884.4567      9981.365      -1334.4423      367.62714      922.81563      12319.81       79016.333      42.911361      42.911361      42.911361      1.0524236      2873.6932      903.23367      1810.0336    
     33000   16500          624.93067      3020.0111      45755.559      42329.419      14006.39       28323.029      6721.5402      9735.3742     -1280.3996      355.46211      867.53937      11923.512      77789.453      42.688108      42.688108      42.688108      1.0690222      2737.3171      4507.9738      1814.7426    
     34000   17000          636.7018       3234.9506      48005.667      44322.779      14270.213      30052.565      6724.1475      9778.857      -1269.5212      352.70861      988.24211      13478.131      78062.956      42.738079      42.738079      42.738079      1.0652767      4277.8662      1133.7423      4293.2433    
     35000   17500          634.86572      5344.2478      49364.783      43313.833      14229.062      29084.771      6750.5691      9847.2997     -1264.6203      366.09524      1091.0753      12294.352      77635.642      42.659954      42.659954      42.659954      1.0711401      4555.7019      5015.6757      6461.3659    
     36000   18000          628.87051      3817.5238      48561.567      44262.74       14094.693      30168.047      6570.5397      9870.3115     -1192.4583      369.71035      1036.502       13513.442      77213.336      42.582462      42.582462      42.582462      1.0769985      5029.972       3582.4356      2840.1637    
     37000   18500          631.60038      2797.3504      45033.973      41874.726      14155.877      27718.849      6583.1625      9712.6041     -1179.1546      358.30913      946.68744      11297.24       77439.212      42.623945      42.623945      42.623945      1.0738571      5280.9228      1961.5803      1149.5481    
     38000   19000          629.52327      2875.7478      45914.632      42676.181      14109.323      28566.858      6803.9895      9771.1105     -1286.3956      382.9306       855.52876      12039.694      77216.593      42.583061      42.583061      42.583061      1.0769531      2499.1852      3866.0114      2262.0469    
     39000   19500          634.77433      3317.3846      47296.659      43613.425      14227.013      29386.412      6794.0739      9751.9406     -1165.7532      361.64119      777.30605      12867.203      76130.316      42.382432      42.382432      42.382432      1.0923198      1995.378       1903.4313      6053.3446    
     40000   20000          632.3736       3019.9226      46288.966      42946.782      14173.207      28773.576      6614.8346      9792.1654     -1175.7804      353.64903      883.80959      12304.897      75885.474      42.336948      42.336948      42.336948      1.0958441      4505.8506      1889.8191      2664.0983    
     41000   20500          632.02857      4140.598       47098.286      42549.48       14165.474      28384.006      6584.6617      9800.635      -1239.3159      374.08078      864.85923      11999.085      75328.352      42.233086      42.233086      42.233086      1.1039489      4395.9337      3901.3654      4124.4949    
     42000   21000          624.41934      3523.5646      46782.241      42887.812      13994.93       28892.882      6691.367       9899.8103     -1190.3021      353.85722      851.53612      12286.613      75785.428      42.318335      42.318335      42.318335      1.0972908      3813.1228      4924.3187      1833.2524    
     43000   21500          634.2944       3780.5235      45645.94       41492.037      14216.257      27275.78       6717.7131      9752.7686     -1208.253       363.82681      850.29132      10799.433      75340.502      42.235357      42.235357      42.235357      1.1037709      3706.575       2025.4229      5609.5726    
     44000   22000          629.80156      5308.3251      48836.966      43004.302      14115.56       28888.742      6807.6145      9725.4683     -1166.8811      366.31678      891.72599      12264.497      75341.385      42.235522      42.235522      42.235522      1.1037579      6580.3932      5352.1247      3992.4575    
     45000   22500          622.7999       2710.4917      45056.358      42087.625      13958.634      28128.991      6734.8584      9889.6671     -1252.1307      367.76943      823.27093      11565.556      75101.233      42.190599      42.190599      42.190599      1.1072874      2148.4258      2126.585       3856.4641    
     46000   23000          631.45479      4569.6751      47341.814      42358.858      14152.614      28206.244      6732.8169      9831.495      -1152.4621      355.90016      847.7347       11590.76       74769.729      42.12843       42.12843       42.12843       1.1121968      5543.9934      5068.8143      3096.2176    
     47000   23500          636.67126      4054.355       47993.976      43572.244      14269.529      29302.715      6643.2409      9915.0875     -1181.2144      367.77         856.39908      12701.432      74781.6        42.130659      42.130659      42.130659      1.1120202      4632.7257      4080.9974      3449.342     
     48000   24000          632.28552      4985.0663      48062.384      42645.579      14171.232      28474.346      6718.7618      9734.614      -1090.1714      385.63134      819.07903      11906.432      74506.887      42.079006      42.079006      42.079006      1.1161203      3954.5467      4993.9711      6006.6812    
     49000   24500          631.34346      5129.8304      47835.061      42255.334      14150.118      28105.215      6690.4136      9580.8151     -1247.6381      340.20509      912.70673      11828.713      74582.011      42.093144      42.093144      42.093144      1.1149961      4447.6549      5831.086       5110.7502    
     50000   25000          631.57569      5440.2168      48255.275      42307.247      14155.323      28151.924      6639.4483      9794.7717     -1295.7897      369.31057      874.96982      11769.213      74968.859      42.165796      42.165796      42.165796      1.1092426      5590.1277      5404.1077      5326.4151    
     51000   25500          623.47981      4311.5023      47700.89       43043.184      13973.873      29069.311      6627.9185      9725.7953     -1138.2572      393.4369       863.19782      12597.22       74074.308      41.997413      41.997413      41.997413      1.1226382      3667.5959      4587.428       4679.4831    
     52000   26000          625.6303       6002.6227      49828.309      43336.565      14022.071      29314.494      6876.9444      9863.6487     -1220.9402      369.5284       861.25962      12564.053      74155.683      42.012786      42.012786      42.012786      1.1214063      6119.1895      5922.9305      5965.748     
     53000   26500          628.77895      4832.2903      48492.246      43247.609      14092.641      29154.969      6703.3097      9855.1465     -1174.5028      383.12137      941.05242      12446.841      74419.457      42.06254       42.06254       42.06254       1.1174316      5725.374       4065.7297      4705.7673    
     54000   27000          637.20278      7157.9607      50860.451      43181.184      14281.442      28899.742      6575.2832      9607.0141     -1199.1829      348.9258       1001.5482      12566.154      73562.182      41.900403      41.900403      41.900403      1.1304538      8009.4959      5791.3517      7673.0346    
     55000   27500          627.93861      4041.8732      47242.489      42913.479      14073.807      28839.673      6595.4208      9715.5622     -1183.4764      376.34939      711.7165       12624.1        73439.556      41.877108      41.877108      41.877108      1.1323414      3827.3148      3231.7156      5066.5892    
     56000   28000          631.51908      6556.4984      50526.749      43462.51       14154.055      29308.456      6455.3267      9686.303      -1116.0758      373.40049      917.62186      12991.88       73878.411      41.960358      41.960358      41.960358      1.125615       8253.5371      6548.9604      4866.9976    
     57000   28500          627.74224      6591.965       50768.812      43722.788      14069.405      29653.383      6627.6215      9770.4457     -1166.4336      382.50153      968.01735      13071.231      73291.45       41.848938      41.848938      41.848938      1.1346296      6390.6797      5394.939       7990.2761    
     58000   29000          634.58979      5330.9183      48743.315      43050.972      14222.878      28828.095      6699.8499      9719.7172     -1123.7124      412.99077      864.23985      12255.009      73217.199      41.834801      41.834801      41.834801      1.1357803      4442.8719      4133.4581      7416.4248    
     59000   29500          631.63235      4264.3366      46954.64       42441.39       14156.593      28284.796      6626.8963      9514.0553     -1148.7695      366.34535      845.72455      12080.544      72570.82       41.711327      41.711327      41.711327      1.1458965      4226.5914      3761.7327      4804.6856    
     60000   30000          634.95591      6675.8877      49826.693      42757.742      14231.083      28526.659      6648.0473      9829.8974     -1150.626       370.10607      947.32729      11881.907      72605.583      41.717987      41.717987      41.717987      1.1453479      7288.7111      5631.937       7107.015     
     61000   30500          628.66035      8286.7787      51258.579      42496.814      14089.983      28406.831      6642.4093      9779.4275     -1163.4776      366.72576      1022.6582      11759.088      72498.664      41.697498      41.697498      41.697498      1.147037       9770.3428      6362.6525      8727.341     
     62000   31000          618.48128      6873.0843      50263.062      42994.254      13861.842      29132.412      6557.2324      9800.5398     -1178.7332      349.66804      836.81301      12766.892      72516.295      41.700878      41.700878      41.700878      1.1467581      6140.5932      6268.989       8209.6707    
     63000   31500          633.12543      8905.348       52504.993      43153.62       14190.057      28963.562      6394.0993      9640.2075     -1082.6692      368.23675      899.11438      12744.574      72002.671      41.602191      41.602191      41.602191      1.1549384      8484.791       8954.3893      9276.8636    
     64000   32000          638.24632      5836.9479      49155.046      43025.075      14304.83       28720.245      6721.5402      9891.3861     -1195.6921      381.6385       911.93385      12009.438      72010.643      41.603726      41.603726      41.603726      1.1548106      7450.6406      3851.2488      6208.9542    
     65000   32500          631.55844      5855.1119      48771.507      42602.753      14154.937      28447.817      6684.6723      9810.7808     -1200.9643      376.66362      831.7221       11944.942      72241.428      41.648124      41.648124      41.648124      1.1511214      6256.1204      4977.1689      6332.0464    
     66000   33000          634.42497      8224.0831      50808.779      42242.038      14219.183      28022.855      6478.7942      9830.3634     -1129.491       393.50651      885.03019      11564.652      71425.323      41.490698      41.490698      41.490698      1.1642741      7220.1959      8103.9515      9348.1018    
     67000   33500          628.55468      6522.6706      49771.754      42971.12       14087.614      28883.505      6617.8292      9644.4796     -1093.5473      335.45244      883.55711      12495.734      71490.457      41.503306      41.503306      41.503306      1.1632133      6309.5729      6740.5987      6517.8402    
     68000   34000          618.68175      5939.7668      49712.275      43507.557      13866.335      29641.222      6691.5915      9728.525      -1072.2521      382.69528      749.26601      13161.397      71627.001      41.529712      41.529712      41.529712      1.1609958      6447.5695      5522.1696      5849.5612    
     69000   34500          622.1523       5512.7705      49119.449      43372.437      13944.12       29428.317      6456.6608      9972.5705     -1210.0498      360.42366      670.87604      13177.836      71481.944      41.501658      41.501658      41.501658      1.1633518      6885.3652      5983.8491      3669.0972    
     70000   35000          630.29692      9085.5705      51778.392      42356.144      14126.663      28229.481      6636.4228      9872.6311     -1233.0087      353.86255      873.74615      11725.827      71109.308      41.429417      41.429417      41.429417      1.1694482      11337.268      7623.3309      8296.1123    
     71000   35500          633.89653      4111.1873      47114.646      42840.148      14207.34       28632.808      6880.802       9770.3845     -1137.1537      418.71069      719.74914      11980.316      71292.198      41.464904      41.464904      41.464904      1.1664481      5141.6189      1649.2758      5542.6673    
     72000   36000          626.74698      7730.7049      50756.549      42721.972      14047.099      28674.873      6668.8462      9798.6061     -1141.2858      348.20976      914.0224       12086.475      71263.646      41.459368      41.459368      41.459368      1.1669155      9002.4816      7212.3695      6977.2635    
     73000   36500          627.08652      7104.4813      50355.233      43043.873      14054.709      28989.165      6605.7412      9685.1967     -1078.351       360.05181      777.58499      12638.941      70565.088      41.323455      41.323455      41.323455      1.1784673      6217.443       6938.7193      8157.2816    
     74000   37000          634.8235       7753.098       50264.873      42256.746      14228.115      28028.631      6603.1072      9694.5664     -1158.5671      347.93248      826.64747      11714.944      70823.891      41.373913      41.373913      41.373913      1.174161       7045.7316      8871.758       7341.8045    
     75000   37500          637.21549      7338.52        51208.074      43656.906      14281.727      29375.179      6638.6524      9863.5512     -1146.2353      351.03457      807.89199      12860.284      70555.319      41.321548      41.321548      41.321548      1.1786305      8204.8473      7165.8087      6644.9041    
     76000   38000          632.95051      8574.9557      52739.316      43895.94       14186.137      29709.803      6596.8852      9761.0847     -1120.4483      367.31206      732.26161      13372.708      70714.805      41.35266       41.35266       41.35266       1.1759723      8753.749       9191.8757      7779.2423    
     77000   38500          625.96673      7378.9949      51079.685      43493.975      14029.611      29464.364      6617.9889      9866.9954     -1084.1821      344.15649      778.27127      12941.134      70489.295      41.308655      41.308655      41.308655      1.1797345      8150.0488      6377.2843      7609.6515    
     78000   39000          632.71816      7876.6721      51184.248      43097.151      14180.929      28916.222      6643.3039      9848.0866     -1136.6089      365.39026      822.34282      12373.707      70400.22       41.291248      41.291248      41.291248      1.1812271      6380.4218      9498.1346      7751.4599    
     79000   39500          631.92788      8316.0774      51769.407      43246.263      14163.217      29083.046      6722.6737      9757.6171     -1033.6643      375.11474      797.12493      12464.18       70275.739      41.266896      41.266896      41.266896      1.1833195      9736.9249      6749.5994      8461.7079    
     80000   40000          630.01647      6497.6716      49389.187      42706.762      14120.377      28586.385      6647.2796      9763.5966     -1187.983       372.91182      904.69164      12085.889      70518.074      41.314276      41.314276      41.314276      1.179253       5830.7687      5709.7581      7952.488     
     81000   40500          619.67511      8394.6516      50265.643      41647.309      13888.599      27758.71       6453.583       9743.4387     -1080.9242      386.43165      832.12636      11424.055      70395.475      41.29032       41.29032       41.29032       1.1813068      7128.8437      7885.0175      10170.094    
     82000   41000          632.38417      10217.37       54278.787      43861.75       14173.444      29688.306      6533.9654      9584.5724     -1110.732       360.31813      867.93022      13452.252      69908.372      41.194863      41.194863      41.194863      1.1895378      9520.7119      10258.102      10873.297    
     83000   41500          629.50064      6669.4004      49581.277      42713.972      14108.816      28605.156      6428.8788      9762.5644     -1134.9517      344.89058      778.48267      12425.292      70603.078      41.33087       41.33087       41.33087       1.1778332      5285.5935      6890.9838      7831.6238    
     84000   42000          633.99712      8818.2461      52993.57       43997.931      14209.594      29788.337      6592.9794      9705.5733     -1051.481       341.67205      770.03043      13429.563      69947.777      41.202602      41.202602      41.202602      1.1888677      9487.5174      7878.5939      9088.6269    
     85000   42500          630.6854       9110.1552      51598.389      42340.422      14135.37       28205.052      6650.5873      9916.3617     -1161.1896      374.88417      817.37368      11607.035      69680.931      41.15014       41.15014       41.15014       1.1934205      8627.9534      6866.6649      11835.847    
     86000   43000          634.13224      7048.2847      47984.724      40783.148      14212.623      26570.525      6452.1773      9756.9181     -1079.8932      362.75201      812.55656      10266.014      70059.699      41.224566      41.224566      41.224566      1.1869684      7768.3293      5671.1547      7705.3701    
     87000   43500          629.12455      9100.112       52196.553      42946.783      14100.387      28846.396      6461.2983      9859.4444     -1127.0522      359.94298      806.29093      12486.472      69696.076      41.153121      41.153121      41.153121      1.1931612      8992.6436      9277.6671      9030.0252    
     88000   44000          631.55382      11352.876      54822.348      43371.843      14154.833      29217.01       6489.5069      9772.9054     -1071.1988      374.76619      896.80574      12754.225      69158.067      41.046955      41.046955      41.046955      1.2024432      10182.496      11443.999      12432.133    
     89000   44500          624.64233      7926.5999      50994.606      42964.958      13999.928      28965.03       6693.6651      9842.3274     -1043.5602      369.47126      784.8205       12318.306      69459.821      41.106568      41.106568      41.106568      1.1972195      6873.0371      8526.3463      8380.4163    
     90000   45000          626.62588      9002.0707      52185.569      43088.852      14044.385      29044.467      6527.4014      9695.4483     -1098.9462      379.99298      769.46314      12771.108      69289.332      41.072909      41.072909      41.072909      1.2001653      8055.3412      10828.926      8121.9447    
     91000   45500          632.60874      8975.3584      52550.708      43460.99       14178.477      29282.513      6415.6083      9708.0803     -1069.158       418.11966      868.67586      12941.187      69442.082      41.103068      41.103068      41.103068      1.1975253      8678.6241      8912.9298      9334.5214    
     92000   46000          637.825        10004.368      52836.822      42779.652      14295.387      28484.264      6434.0314      9652.9629     -1049.7819      356.81456      932.09818      12158.139      68930.316      41.001847      41.001847      41.001847      1.2064162      11195.976      10950.264      7866.8641    
     93000   46500          615.66048      10371.039      52882.497      42437.665      13798.62       28639.045      6438.2516      9573.874      -1148.5264      333.87444      861.37531      12580.196      69056.301      41.026812      41.026812      41.026812      1.2042153      8852.9401      11563.218      10696.957    
     94000   47000          631.52028      9292.8011      52738.66       43402.669      14154.081      29248.587      6599.9298      9705.3971     -1003.5526      403.27543      852.87629      12690.661      68887.104      40.993277      40.993277      40.993277      1.207173       8524.3439      11336.95       8017.1099    
     95000   47500          631.65442      12794.034      57236.653      44402.117      14157.088      30245.03       6540.6747      9708.2913     -988.93637      400.31689      879.48687      13705.196      68785.482      40.97311       40.97311       40.97311       1.2089564      12931.883      13305.984      12144.235    
     96000   48000          617.65865      8145.6476      50909.628      42680.949      13843.405      28837.544      6615.2174      9692.1706     -1200.1384      366.28574      813.18481      12550.824      69267.358      41.068566      41.068566      41.068566      1.200546       6821.4193      9343.1139      8272.4095    
     97000   48500          627.93053      8877.2843      51351.985      42444.72       14073.625      28371.095      6381.9122      9736.6722     -1192.5821      369.17363      877.55231      12198.367      68799.982      40.975989      40.975989      40.975989      1.2087016      11774.017      7508.6975      7349.1383    
     98000   49000          621.72665      10631.469      53914.521      43306.42       13934.58       29371.84       6624.1343      9856.1312     -1125.1028      395.82497      898.41789      12722.435      68417.704      40.899955      40.899955      40.899955      1.2154552      12735.415      9903.8701      9255.1211    
     99000   49500          628.16254      10314.764      53010.129      42672.836      14078.825      28594.011      6628.1442      9738.2031     -1115.8201      398.0961       953.18832      11992.199      68718.181      40.959743      40.959743      40.959743      1.2101404      9964.1847      11001.689      9978.418     
    100000   50000          633.02243      11801.523      54629.341      42920.9        14187.749      28733.151      6503.7122      9834.8882     -1140.4404      350.76004      946.35154      12237.88       68027.593      40.822071      40.822071      40.822071      1.2224253      11596.588      12505.278      11302.704    
    101000   50500          635.66782      7951.5464      50923.772      42946.706      14247.039      28699.667      6733.9526      9902.4556     -1147.3355      363.70927      765.29464      12081.59       68788.48       40.973705      40.973705      40.973705      1.2089037      6600.6671      7641.6107      9612.3612    
    102000   51000          621.21765      10245.677      53779.67       43588.596      13923.172      29665.424      6593.9359      9782.0807     -1148.7931      372.63932      883.8817       13181.68       68202.992      40.857126      40.857126      40.857126      1.2192816      11691.297      10593.04       8452.6936    
    103000   51500          623.80993      11075.825      54338.458      43271.525      13981.271      29290.254      6495.4153      9764.7621     -1171.2626      382.32351      861.68693      12957.329      68513.365      40.919008      40.919008      40.919008      1.2137581      9374.3962      11061.701      12791.377    
    104000   52000          631.08835      11026.714      54084.66       43138.254      14144.401      28993.853      6388.5822      9685.336      -1173.5737      357.50015      935.9003       12800.108      68069.027      40.830357      40.830357      40.830357      1.2216812      11261.528      12682.826      9135.7886    
    105000   52500          623.01152      10027.153      53578.735      43615.097      13963.377      29651.72       6521.0008      9714.1593     -1045.9652      367.48127      767.83063      13327.213      68134.078      40.84336       40.84336       40.84336       1.2205148      6775.6882      11379.258      11926.513    
    106000   53000          632.91041      10684.399      52602.837      42048.113      14185.238      27862.875      6306.2109      9777.7577     -1117.5739      357.864        959.3587       11579.258      67736.213      40.763704      40.763704      40.763704      1.2276838      12382.111      7680.2258      11990.859    
    107000   53500          637.77699      12430.975      55335.023      42969.104      14294.311      28674.793      6463.5943      9757.0106     -1188.2287      360.20899      896.72358      12385.484      68209.575      40.85844       40.85844       40.85844       1.2191639      12567.829      13261.502      11463.593    
    108000   54000          631.69229      10828.503      54221.218      43589.69       14157.937      29431.754      6625.0055      9837.8801     -1074.5749      406.55045      946.64567      12690.247      67321.124      40.680266      40.680266      40.680266      1.2352534      10884.769      10300.858      11299.882    
    109000   54500          637.27812      8172.4695      50521.722      42367.857      14283.13       28084.727      6536.0051      9846.9222     -1123.7234      372.20722      792.58381      11660.732      68412.317      40.898882      40.898882      40.898882      1.2155509      5555.0472      9518.1458      9444.2155    
    110000   55000          631.55746      14029.011      57140.525      43355.671      14154.915      29200.756      6336.9809      9716.7469     -1042.7639      331.2271       1002.6888      12855.876      67375.074      40.69113       40.69113       40.69113       1.2342643      14614.837      15192.812      12279.384    
    111000   55500          623.77471      11793.058      54597.814      42866.436      13980.482      28885.954      6439.7359      9753.9012     -1162.9272      392.56768      970.5449       12492.132      68209.789      40.858483      40.858483      40.858483      1.2191601      9860.6133      12893.045      12625.515    
    112000   56000          635.12767      10555.68       53399.658      42959.233      14234.933      28724.3        6443.9518      9699.6446     -1140.8276      375.80931      909.03313      12436.689      67819.732      40.780451      40.780451      40.780451      1.2261719      7814.4535      12338.394      11514.194    
    113000   56500          641.86797      11956.994      54948.621      43138.76       14386.001      28752.759      6512.0287      9827.036      -1059.5246      348.0477       921.12911      12204.042      67724.667      40.761387      40.761387      40.761387      1.2278931      12293.054      13842.144      9735.7843    
    114000   57000          633.87637      10678.995      53707.822      43196.724      14206.888      28989.837      6697.6581      9802.875      -1148.8146      383.18338      906.08857      12348.846      67490.366      40.714327      40.714327      40.714327      1.2321559      9404.8987      12713.254      9918.8321    
    115000   57500          629.45984      10236.69       52973.288      42900.406      14107.901      28792.505      6348.5984      9925.7054     -1083.4039      363.3918       790.77326      12447.44       67471.18       40.710469      40.710469      40.710469      1.2325063      8973.1623      11368.368      10368.539    
    116000   58000          631.85617      12557.482      56228.01       43951.354      14161.61       29789.745      6455.4894      9840.3034     -1121.6899      355.16273      925.18359      13335.296      67035.006      40.622553      40.622553      40.622553      1.2405257      11873.631      14375.082      11423.731    
    117000   58500          624.71072      10490.444      52731.566      42371.381      14001.461      28369.92       6531.0549      9739.6151     -1118.3862      366.85683      971.77521      11879.004      67717.008      40.759851      40.759851      40.759851      1.228032       9249.9771      10164.554      12056.799    
    118000   59000          629.39434      13460.755      55911.286      42735.973      14106.433      28629.539      6266.2026      9798.2994     -1134.179       358.37889      930.60192      12410.235      67114.386      40.638582      40.638582      40.638582      1.2390585      14008.356      14766.164      11607.746    
    119000   59500          625.19015      13561.851      54830.907      41545.981      14012.206      27533.775      6245.7729      9676.5876     -1036.1694      354.20654      953.21158      11340.166      67168.284      40.649457      40.649457      40.649457      1.2380642      13338.165      12355.304      14992.085    
    120000   60000          626.17586      13312.927      56295.264      43260.257      14034.298      29225.959      6375.9711      9805.515      -1156.0189      384.83597      926.89252      12888.763      67136.979      40.643141      40.643141      40.643141      1.2386415      10933.407      13770.336      15235.037    
    121000   60500          629.30456      12095.161      55113.872      43287.59       14104.421      29183.169      6583.6093      9863.7797     -1151.4563      380.457        911.03137      12595.748      67044.121      40.624394      40.624394      40.624394      1.2403571      11197.608      12841.767      12246.108    
    122000   61000          625.68211      14975.34       58001.049      43372.434      14023.232      29349.202      6529.2108      9743.2778     -1108.2824      357.70975      834.30275      12992.983      66980.848      40.611611      40.611611      40.611611      1.2415288      13513.714      15510.235      15902.07     
    123000   61500          631.58065      11981.481      55251.736      43615.048      14155.434      29459.613      6445.6488      9659.7187     -1106.2798      359.28828      799.1949       13302.042      66595.211      40.533521      40.533521      40.533521      1.2487182      11720.204      12036.84       12187.399    
    124000   62000          620.39745      11159.324      54337.6        43427.589      13904.789      29522.8        6498.2582      9627.7285     -1127.8176      379.08443      1011.2489      13134.298      67036.515      40.622858      40.622858      40.622858      1.2404978      13002.607      8829.8497      11645.515    
    125000   62500          629.52476      11516.28       53128.323      41924.321      14109.356      27814.965      6523.4455      9697.8609     -1030.113       402.37926      697.31974      11524.073      66709.095      40.556613      40.556613      40.556613      1.2465864      12407.88       10894.669      11246.292    
    126000   63000          625.56986      11569.732      55504.365      44192.085      14020.716      30171.369      6549.4724      9810.4547     -1079.0441      370.23749      821.36919      13698.879      67042.621      40.624092      40.624092      40.624092      1.2403848      13796.054      11616.569      9296.5729    
    127000   63500          628.0277       14913.046      58037.028      43584.528      14075.803      29508.725      6548.811       9730.6085     -987.96602      407.99796      961.88004      12847.394      66450.88       40.504217      40.504217      40.504217      1.2514304      12536.619      17389.785      14812.734    
    128000   64000          635.95336      11741.151      54606.163      43215.37       14253.439      28961.932      6487.124       9758.6849     -1106.6438      384.09702      904.23699      12534.433      66522.319      40.518727      40.518727      40.518727      1.2500865      12295.781      9926.5048      13001.168    
    129000   64500          627.69629      12978.235      55652.584      43094.582      14068.375      29026.207      6481.7615      9734.5273     -1103.8256      334.40908      962.40912      12616.925      66348.182      40.483341      40.483341      40.483341      1.2533674      14756.276      12009.045      12169.384    
    130000   65000          625.54502      14476.768      56146.526      42106.468      14020.16       28086.308      6554.695       9718.6662     -1162.3831      367.36532      957.52662      11650.438      66499.963      40.514188      40.514188      40.514188      1.2505067      15136.799      13704.924      14588.58     
    131000   65500          633.99904      14024.256      55342.364      41813.095      14209.637      27603.458      6392.5583      9685.667      -1100.193       365.32795      862.93555      11397.162      66148.288      40.442644      40.442644      40.442644      1.257155       13377.891      14248.489      14446.39     
    132000   66000          637.21317      14367.026      57307.337      43422.102      14281.674      29140.427      6404.5223      9825.9422     -1095.9216      349.01869      951.64172      12705.224      66269.008      40.467231      40.467231      40.467231      1.2548649      14746.189      14548.096      13806.794    
    133000   66500          636.05576      14074.017      56373.001      42834.97       14255.734      28579.236      6524.097       9798.0437     -1139.0562      369.93485      968.72958      12057.487      65957.095      40.403641      40.403641      40.403641      1.2607992      12195.181      14638.223      15388.648    
    134000   67000          624.5725       13825.972      56745.823      43361.739      13998.363      29363.376      6315.159       9523.6        -1072.6188      352.54852      923.07542      13321.612      66376.918      40.489184      40.489184      40.489184      1.2528248      16321.462      12273.024      12883.429    
    135000   67500          629.48514      13126.771      56639.355      43964.161      14108.468      29855.693      6445.2942      9771.6412     -1081.2111      371.04555      986.48709      13362.436      66209.573      40.455129      40.455129      40.455129      1.2559914      15114.639      12008.495      12257.18     
    136000   68000          631.59854      14649.782      58296.665      44191.346      14155.835      30035.511      6473.6476      9724.0273     -1085.4051      380.12542      1079.9381      13463.178      66020.051      40.416492      40.416492      40.416492      1.2595969      12123.737      18697.858      13127.75     
    137000   68500          638.78699      13736.205      56995.165      43710.36       14316.948      29393.412      6414.8798      9606.0717     -1141.84        350.42244      993.95915      13169.919      66315.118      40.476615      40.476615      40.476615      1.2539923      12725.25       13882.669      14600.696    
    138000   69000          633.39895      13704.761      55858.474      42650.24       14196.187      28454.053      6371.9732      9688.8291     -1107.4854      408.95719      963.10821      12128.67       66084.164      40.429571      40.429571      40.429571      1.2583749      13517.474      10460.127      17136.681    
    139000   69500          634.63165      14410.765      57808.716      43954.369      14223.816      29730.554      6608.1412      9825.6997     -1115.148       365.00435      921.22554      13125.631      65920.899      40.396249      40.396249      40.396249      1.2614915      14637          15285.134      13310.16     
    140000   70000          624.66624      13367.957      56067.708      43205.682      14000.464      29205.218      6411.8725      9969.8353     -1079.8265      382.29659      933.35056      12587.69       65973.333      40.406957      40.406957      40.406957      1.2604888      14303.47       13708.443      12091.959    
    141000   70500          626.93369      14168.874      56177.386      42534.625      14051.283      28483.341      6413.7537      9605.6317     -1051.8343      356.69189      923.60973      12235.489      66022.36       40.416963      40.416963      40.416963      1.2595528      16123.243      13992.132      12391.247    
    142000   71000          622.87345      16746.178      58948.132      42865.788      13960.282      28905.505      6287.2325      9662.1731     -1020.4397      413.70892      1209.2407      12353.59       65850.302      40.381823      40.381823      40.381823      1.2628439      19060.012      15113.67       16064.852    
    143000   71500          633.47629      14625.587      57904.237      43844.514      14197.921      29646.593      6381.5714      9780.7952     -1048.0106      364.26409      949.30314      13218.67       65915.499      40.395146      40.395146      40.395146      1.2615948      16300.599      13282.17       14293.993    
    144000   72000          643.67297      13089.871      57188.871      44635.947      14426.456      30209.491      6603.5775      9901.6933     -1125.4012      345.11959      1020.2309      13464.271      65755.739      40.362484      40.362484      40.362484      1.26466        11994.275      15041.255      12234.082    
    145000   72500          634.58995      13912.018      56433.958      43147.119      14222.881      28924.238      6407.0293      9674.4722     -1100.3327      330.66481      960.41706      12651.987      65487.089      40.307441      40.307441      40.307441      1.269848       11782.983      14574.349      15378.722    
    146000   73000          624.96764      12726.877      55231.748      43000.45       14007.219      28993.231      6337.2945      9932.3917     -1077.5823      364.41568      848.48517      12588.227      65898.388      40.39165       40.39165       40.39165       1.2619224      11405.906      11803.489      14971.235    
    147000   73500          629.67528      16230.307      59160.713      43700.787      14112.73       29588.057      6360.5464      9876.1825     -1118.6844      340.19393      1104.6919      13025.127      65313.773      40.271851      40.271851      40.271851      1.2732177      15786.908      16266.124      16637.889    
    148000   74000          641.73399      15287.268      58221.563      43548.2        14382.998      29165.202      6495.2468      9641.0559     -1079.5945      371.47521      995.01118      12742.007      65814.85       40.374575      40.374575      40.374575      1.2635241      14785.463      13669.842      17406.498    
    149000   74500          633.77208      14622.529      57610.001      43725.561      14204.55       29521.011      6351.7785      9739.0353     -1033.8224      372.20153      1093.8746      12997.944      65107.345      40.229379      40.229379      40.229379      1.2772545      16406.696      12723.116      14737.773    
    150000   75000          630.99368      14735.236      56875.481      42675.304      14142.279      28533.025      6496.821       9564.4006     -1023.2888      401.33788      1049.1896      12044.565      66078.589      40.428434      40.428434      40.428434      1.258481       14748.709      15401.378      14055.621    
    151000   75500          630.09028      16170.604      58409.476      43061.872      14122.031      28939.841      6284.542       9799.5717     -1064.7345      361.44334      1142.4355      12416.583      65078.637      40.223465      40.223465      40.223465      1.277818       15549.969      15633.736      17328.107    
    152000   76000          626.13295      13573.08       55519.434      42533.266      14033.337      28499.929      6416.8737      9777.5977     -1098.9364      397.03154      1037.5766      11969.786      65603.457      40.331302      40.331302      40.331302      1.2675956      14290.876      14641.412      11786.953    
    153000   76500          626.96156      14500.153      56562.262      42731.506      14051.908      28679.598      6293.7153      9749.0933     -1062.96        403.60335      1090.7459      12205.4        65402.966      40.290174      40.290174      40.290174      1.2714813      12632.144      14463.216      16405.098    
    154000   77000          632.57136      14873.225      58459.145      44261.453      14177.639      30083.814      6307.7726      9658.9081     -1029.7289      389.38732      913.71646      13843.758      65454.078      40.300667      40.300667      40.300667      1.2704885      14786.65       14752.294      15080.732    
    155000   77500          630.52556      15964.061      60464.179      45216.7        14131.787      31084.913      6359.2531      9815.3202     -1068.4919      387.59526      1003.6401      14587.597      65490.568      40.308155      40.308155      40.308155      1.2697806      15463.575      13789.709      18638.899    
    156000   78000          634.31475      15660.57       58689.177      43802.536      14216.713      29585.823      6505.1672      9612.1724     -1032.2073      379.80433      1047.2019      13073.685      65179.832      40.244303      40.244303      40.244303      1.2758341      17068.131      15693.366      14220.212    
    157000   78500          641.50165      15166.658      58197.473      43735.107      14377.791      29357.316      6544.1882      9758.6699     -1058.0835      418.43795      1017.6507      12676.452      65384.316      40.286344      40.286344      40.286344      1.271844       15193.899      15368.864      14937.211    
    158000   79000          633.68915      15173.47       57921.473      43586.417      14202.692      29383.726      6338.648       9682.0222     -1048.8907      367.08803      1183.1135      12861.745      64779.65       40.161772      40.161772      40.161772      1.2837157      14332.561      17832.866      13354.982    
    159000   79500          631.03322      17796.114      60784.294      43806.762      14143.165      29663.597      6331.7915      9656.3927     -1165.1181      384.46754      1081.0445      13375.018      65414.421      40.292526      40.292526      40.292526      1.2712587      16842.796      19057.064      17488.481    
    160000   80000          620.68362      13987.422      56180.217      42906.743      13911.202      28995.54       6413.0997      9761.8289     -1079.8585      385.61281      1026.0007      12488.857      65068.538      40.221385      40.221385      40.221385      1.2780163      14235.83       11962.855      15763.582    
    161000   80500          633.07364      15875.352      59301.886      44272.642      14188.896      30083.746      6305.8223      9784.1078     -1071.6064      373.46994      1047.0427      13644.91       64913.926      40.189502      40.189502      40.189502      1.2810602      13616.871      15030.127      18979.058    
    162000   81000          634.83594      18269.018      61272.464      43942.626      14228.394      29714.231      6456.0412      9602.4092     -1064.0446      369.80285      1128.1078      13221.915      65043.429      40.21621       40.21621       40.21621       1.2785096      18578.128      18273.059      17955.867    
    163000   81500          625.97292      17437.638      60181.915      43682.649      14029.75       29652.899      6222.496       9720.006      -1062.8924      374.20995      1300.7945      13098.285      64878.543      40.182199      40.182199      40.182199      1.2817589      18983.543      18761.289      14568.083    
    164000   82000          629.1247       17636.837      59874.435      43151.543      14100.39       29051.153      6121.777       9654.2555     -1014.0805      366.35842      1222.1152      12700.728      65015.183      40.210388      40.210388      40.210388      1.2790651      17778.013      17465.248      17667.251    
    165000   82500          625.60117      17428.555      59830.312      43326.341      14021.418      29304.923      6317.6372      9549.9947     -1067.5261      363.34113      1084.2434      13057.232      64930.863      40.192997      40.192997      40.192997      1.2807261      17465.442      17437.304      17382.92     
[...]
    449000   224500         614.17218      44133.465      82950.098      45772.209      13765.263      32006.946      5998.2959      9829.4563     -898.7305       366.25948      2865.4707      13846.194      57761.812      38.655705      38.655705      38.655705      1.4396822      43046.988      43097.6        46255.806    
    450000   225000         624.50468      44635.259      81595.156      44078.087      13996.843      30081.244      5779.971       9644.1909     -901.22916      429.56051      2867.96        12260.791      57633.496      38.62706       38.62706       38.62706       1.4428875      40942.415      47401.622      45561.738    
    451000   225500         629.1181       42940.967      80757.55       44557.073      14100.242      30456.831      5878.7582      9728.3893     -849.67343      404.94939      2720.2409      12574.167      57805.156      38.665372      38.665372      38.665372      1.4386027      42755.357      44343.715      41723.828    
    452000   226000         634.02214      44586.226      81557.27       44036.909      14210.155      29826.754      5797.0569      9565.6821     -806.17642      379.64387      2869.3105      12021.237      57701.939      38.642345      38.642345      38.642345      1.441176       44493.804      45165.15       44099.726    
    453000   226500         630.36396      44074.192      82054.403      44986.311      14128.165      30858.146      5831.0029      9416.6237     -835.98734      401.57756      2965.7492      13079.18       57668.676      38.634918      38.634918      38.634918      1.4420073      42443.41       45486.334      44292.83     
    454000   227000         621.13754      44529.645      81929.231      44532.578      13921.376      30611.202      5764.4217      9556.7918     -855.17188      378.38506      2975.237       12791.539      57584.767      38.616171      38.616171      38.616171      1.4441085      41267.988      44423.858      47897.088    
    455000   227500         630.60358      45891.208      83547.414      44952.604      14133.536      30819.068      5774.157       9572.2995     -861.42378      346.9293       2891.3429      13095.763      57666.493      38.63443       38.63443       38.63443       1.4420619      47318.91       45366.643      44988.07     
    456000   228000         638.94488      43402.566      82262.861      45789.323      14320.487      31468.836      5930.7051      9541.3838     -941.53764      354.80072      2937.9444      13645.539      57621.771      38.62444       38.62444       38.62444       1.4431811      40516.882      45709.57       43981.248    
    457000   228500         637.13402      47154.923      84446.779      44961.402      14279.901      30681.502      5767.7997      9705.6028     -922.50242      367.33648      3076.1736      12687.092      57416.056      38.578421      38.578421      38.578421      1.4483519      47363.445      45279.203      48822.121    
    458000   229000         636.09447      46105.551      83547.78       44985.435      14256.601      30728.833      5664.6386      9718.9469     -882.12546      371.29605      3118.0018      12738.075      57350.12       38.563648      38.563648      38.563648      1.450017       45282.847      47701.916      45331.89     
    459000   229500         638.59625      45732.888      83216.516      44904.331      14312.673      30591.658      5806.6179      9411.8633     -819.02542      349.81787      3041.6448      12800.74       57442.377      38.584316      38.584316      38.584316      1.4476882      46736.913      44738.797      45722.953    
    460000   230000         622.25428      45279.212      83352.486      45353.031      13946.405      31406.626      5963.5518      9564.1685     -908.9463       364.2511       3025.3703      13398.23       57544.341      38.607132      38.607132      38.607132      1.445123       44210.689      49399.856      42227.092    
    461000   230500         625.62221      46218.272      84146.671      45354.876      14021.89       31332.986      5839.3169      9396.1863     -846.9581       374.4776       3023.4571      13546.506      57550.657      38.608544      38.608544      38.608544      1.4449644      44796.613      44999.667      48858.537    
    462000   231000         630.9819       44390.38       82446.104      45335.992      14142.015      31193.977      5807.4249      9562.1983     -894.91247      402.18403      3142.8436      13174.239      57322.815      38.557527      38.557527      38.557527      1.4507077      43947.426      43359.709      45864.004    
    463000   231500         622.25209      44192.712      81569.529      44530.407      13946.356      30584.051      5987.5144      9653.2006     -866.68718      395.68952      3086.3571      12327.977      57469.066      38.59029       38.59029       38.59029       1.4470159      44588.646      43405.201      44584.288    
    464000   232000         632.37698      46521.24       85749.976      46610.737      14173.282      32437.455      6006.4109      9696.9809     -887.22964      373.58967      2886.8347      14360.868      57687.963      38.639225      38.639225      38.639225      1.4415252      47155.673      46647.9        45760.149    
    465000   232500         625.93957      43779.882      81174.114      44548.892      14029.003      30519.889      5900.4448      9565.6952     -763.86103      412.49923      2979.293       12425.818      57362.727      38.566474      38.566474      38.566474      1.4496983      43043.47       44678.334      43617.842    
    466000   233000         631.22775      46966.165      83809.057      44579.112      14147.525      30431.587      5751.9814      9459.1231     -832.40421      362.32161      3133.8072      12556.757      57273.894      38.546555      38.546555      38.546555      1.4519469      45432.132      46867.351      48599.013    
    467000   233500         625.40561      46690.697      83742.622      44702.533      14017.035      30685.498      5985.5454      9539.343      -937.63724      371.80314      2946.0235      12780.42       57332.986      38.559807      38.559807      38.559807      1.4504504      46375.727      46679.779      47016.583    
    468000   234000         624.7534       45441.238      82825.033      44726.717      14002.417      30724.3        5966.8052      9757.9639     -977.41427      391.1423       3063.0716      12522.731      57488.336      38.594603      38.594603      38.594603      1.4465308      45076.291      41752.666      49494.758    
    469000   234500         631.60755      44606.569      81923.378      44502.159      14156.037      30346.121      5995.0565      9488.3571     -827.73242      382.03357      3042.2017      12266.205      57523.224      38.602409      38.602409      38.602409      1.4456535      45120.96       43646.002      45052.747    
    470000   235000         625.92398      44785.274      82554.006      45112.781      14028.653      31084.128      5667.9995      9550.778      -857.29342      383.31975      2955.0635      13384.261      57324.321      38.557865      38.557865      38.557865      1.4506696      43458.158      44903.733      45993.933    
    471000   235500         629.04785      47409.211      86117.258      46503.99       14098.667      32405.323      5821.5604      9652.9536     -845.62306      398.0239       3106.0781      14272.33       57293.064      38.550855      38.550855      38.550855      1.4514611      45238.518      47927.888      49061.227    
    472000   236000         623.31228      46984.979      84355.385      45128.59       13970.118      31158.473      5996.5651      9667.0854     -887.41283      365.74052      3134.6361      12881.858      57246.362      38.540377      38.540377      38.540377      1.4526452      47498.807      48833.077      44623.053    
    473000   236500         634.11771      47954.348      85588.538      45531.976      14212.297      31319.679      5918.2035      9610.019      -882.58137      381.76672      3077.9299      13214.341      57275.618      38.546942      38.546942      38.546942      1.4519032      48201.011      46986.17       48675.865    
    474000   237000         630.1567       48177.192      85679.582      45457.031      14123.52       31333.511      5815.3543      9789.8808     -863.75382      430.03841      3027.9437      13134.048      57246.935      38.540506      38.540506      38.540506      1.4526306      49271.27       46499.62       48760.687    
    475000   237500         640.12792      46864.563      85225.919      46107.012      14347.002      31760.01       5828.9828      9435.5754     -867.73276      392.03481      3208.2094      13762.94       57235.602      38.537963      38.537963      38.537963      1.4529182      47589.682      47156.866      45847.14     
    476000   238000         633.27002      44894.733      82839.591      45342.959      14193.298      31149.661      5774.2192      9582.5448     -872.02628      410.19662      3143.9927      13110.734      57269.183      38.545498      38.545498      38.545498      1.4520663      45406.244      43609.001      45668.955    
    477000   238500         630.58238      48834.53       87353.282      46620.13       14133.06       32487.07       5809.2195      9599.0814     -865.26748      346.2538       3124.6434      14473.139      57193.294      38.528465      38.528465      38.528465      1.453993       50254.751      47744.718      48504.121    
    478000   239000         624.83588      46919.616      84803.86       45547.741      14004.266      31543.475      5860.2436      9682.6739     -843.66702      353.76149      3111.6441      13378.819      57368.967      38.567872      38.567872      38.567872      1.4495407      48247.02       46862.482      45649.346    
    479000   239500         628.48524      46169.729      84176.207      45559.104      14086.058      31473.046      5880.4875      9613.3895     -893.35585      391.7161       2954.6613      13526.148      57351.723      38.564007      38.564007      38.564007      1.4499765      45262.204      46488.773      46758.212    
    480000   240000         626.75081      47995.503      85704.302      45585.698      14047.185      31538.513      5870.6236      9447.9105     -859.29709      378.81319      3057.4495      13643.014      57315.142      38.555806      38.555806      38.555806      1.4509019      47909.945      48606.071      47470.495    
    481000   240500         634.85753      47523.114      85659.409      45887.278      14228.878      31658.4        5725.7805      9468.527      -893.8721       406.00425      3059.1335      13892.827      57384.96       38.571455      38.571455      38.571455      1.4491367      47506.236      48303.73       46759.377    
    482000   241000         635.66415      45834.567      83318.963      45062.282      14246.957      30815.325      5743.0465      9574.7974     -843.06756      382.73393      3069.9505      12887.865      57231.913      38.537135      38.537135      38.537135      1.4530119      44547.741      44933.667      48022.292    
    483000   241500         621.10724      48264.386      84548.456      44242.834      13920.697      30322.137      5757.334       9700.3273     -826.73797      390.5659       3002.334       12298.314      57261.53       38.543781      38.543781      38.543781      1.4522604      46343.864      48798.819      49650.476    
    484000   242000         635.85523      47949.327      85821.958      45808.623      14251.239      31557.384      5883.4145      9555.2707     -894.41473      408.48677      3110.0616      13494.565      57219.801      38.534416      38.534416      38.534416      1.4533195      44315.222      49497.426      50035.333    
    485000   242500         632.89621      47988.295      85400.907      45470.554      14184.92       31285.634      5848.0852      9544.5788     -843.11651      377.25423      3207.544       13151.288      57054.769      38.497334      38.497334      38.497334      1.4575232      47163.774      48633.585      48167.525    
    486000   243000         640.8972       47442.953      84469.87       45002.173      14364.244      30637.929      5800.8885      9562.697      -870.81639      394.15165      3192.4203      12558.588      57041.925      38.494445      38.494445      38.494445      1.4578514      42361.674      48631.138      51336.049    
    487000   243500         635.5329       49968.775      87342.376      45692.232      14244.015      31448.216      5913.8923      9669.132      -887.8415       394.5119       3225.4184      13133.103      57153.38       38.5195        38.5195        38.5195        1.4550084      48922.681      49908.226      51075.416    
    488000   244000         633.07351      48964.773      86713.772      45932.515      14188.893      31743.622      5896.8171      9514.9043     -872.98794      367.95995      3329.8311      13507.097      57108.529      38.509421      38.509421      38.509421      1.4561512      45988.346      49176.972      51729        
    489000   244500         634.82681      52127.845      88855.322      45472.755      14228.19       31244.565      5666.2797      9343.0491     -845.51208      370.10819      3328.1409      13382.499      57064.97       38.499628      38.499628      38.499628      1.4572627      52820.624      51296.638      52266.273    
    490000   245000         630.99181      49237.194      86705.38       45708.261      14142.237      31566.024      5843.7745      9444.6225     -854.23472      365.59756      3194.6312      13571.633      57093.17       38.505969      38.505969      38.505969      1.4565429      47040.146      51601.154      49070.282    
    491000   245500         637.76465      47099.714      85434.486      46179.121      14294.035      31885.087      5960.5439      9615.9398     -880.0256       365.68042      3266.8719      13556.076      57148.504      38.518404      38.518404      38.518404      1.4551326      48822.123      45507.627      46969.393    
    492000   246000         638.25436      50623.808      87527.836      45405.564      14305.01       31100.553      5949.6768      9537.8543     -900.2604       377.25115      3275.6972      12860.334      57053.342      38.497013      38.497013      38.497013      1.4575597      50202.27       47921.837      53747.318    
    493000   246500         633.15285      51053.845      87987.328      45689.164      14190.672      31498.492      5799.8234      9578.2659     -815.20591      382.72356      3361.104       13191.781      56809.003      38.441978      38.441978      38.441978      1.4638287      51972.052      51953.004      49236.479    
    494000   247000         630.51086      48834.674      87472.619      46856.937      14131.458      32725.479      5914.2821      9443.0209     -871.61684      388.79344      3224.1195      14626.88       57028.187      38.491354      38.491354      38.491354      1.4582026      49122.558      49101.18       48280.285    
    495000   247500         630.32847      50428.399      88088.816      46113.294      14127.37       31985.924      5861.3442      9510.0464     -889.22774      381.43708      3242.8637      13879.46       57074.884      38.501857      38.501857      38.501857      1.4570095      49347.527      52150.907      49786.762    
    496000   248000         624.35734      51564.269      89815.784      46923.884      13993.54       32930.343      5853.2999      9574.157      -858.46509      366.03558      3278.4171      14716.899      57036.194      38.493155      38.493155      38.493155      1.4579979      49276.381      51070.973      54345.454    
    497000   248500         643.53685      49136.187      87050.244      46312.023      14423.405      31888.618      5917.3585      9705.657      -839.32625      400.90148      3315.8116      13388.216      56849.246      38.451053      38.451053      38.451053      1.4627925      50583.288      49015.487      47809.787    
    498000   249000         640.31539      51171.981      88840.692      46396.353      14351.204      32045.149      5742.3589      9645.1401     -920.58863      380.77748      3364.9972      13832.464      56873.723      38.456571      38.456571      38.456571      1.4621629      50321.953      51848.366      51345.625    
    499000   249500         618.77689      52243.538      88998.441      45735.41       13868.467      31866.942      5827.5724      9605.3389     -877.98801      422.02384      3494.5451      13395.45       56781.712      38.435821      38.435821      38.435821      1.4645323      49533.584      51210.633      55986.396    
    500000   250000         625.98176      48519.657      85380.329      45108.614      14029.948      31078.666      5905.6812      9565.7732     -879.8299       370.55007      3138.905       12977.586      56912.35       38.465275      38.465275      38.465275      1.4611706      46439.009      49969.732      49150.228    
Loop time of 1707.98 on 1 procs for 500000 steps with 7520 atoms

Performance: 12.647 ns/day, 1.898 hours/ns, 292.743 timesteps/s, 2.201 Matom-step/s
99.9% CPU use with 1 MPI tasks x 1 OpenMP threads

MPI task timing breakdown:
Section |  min time  |  avg time  |  max time  |%varavg| %total
---------------------------------------------------------------
Pair    | 1028.8     | 1028.8     | 1028.8     |   0.0 | 60.24
Bond    | 356.54     | 356.54     | 356.54     |   0.0 | 20.87
Neigh   | 189.79     | 189.79     | 189.79     |   0.0 | 11.11
Comm    | 17.13      | 17.13      | 17.13      |   0.0 |  1.00
Output  | 4.6569     | 4.6569     | 4.6569     |   0.0 |  0.27
Modify  | 92.526     | 92.526     | 92.526     |   0.0 |  5.42
Other   |            | 18.5       |            |       |  1.08

Nlocal:           7520 ave        7520 max        7520 min
Histogram: 1 0 0 0 0 0 0 0 0 0
Nghost:          23083 ave       23083 max       23083 min
Histogram: 1 0 0 0 0 0 0 0 0 0
Neighs:              0 ave           0 max           0 min
Histogram: 1 0 0 0 0 0 0 0 0 0
FullNghs:  6.28047e+06 ave 6.28047e+06 max 6.28047e+06 min
Histogram: 1 0 0 0 0 0 0 0 0 0

Total # of neighbors = 6280474
Ave neighs/atom = 835.16941
Ave special neighs/atom = 5.7207447
Neighbor list builds = 14919
Dangerous builds = 0

unfix npt_comp

undump dump_comp

write_dump all custom npt_compress_last.dump id type mol x y z xu yu zu vx vy vz modify sort id
write_data /home/arz2/PolyJarvis/data/PMMA2/lammps/equil/npt_compress/npt_compress_out.data
System init for write_data ...
Generated 15 of 15 mixed pair_coeff terms from sixthpower/sixthpower mixing rule

print "STAGE COMPLETE: NPT compression P=1.0->50000.0atm density target reached"
STAGE COMPLETE: NPT compression P=1.0->50000.0atm density target reached
quit
.79     | 189.79     | 189.79     |   0.0 | 11.11
Comm    | 17.13      | 17.13      | 17.13      |   0.0 |  1.00
Output  | 4.6569     | 4.6569     | 4.6569     |   0.0 |  0.27
Modify  | 92.526     | 92.526     | 92.526     |   0.0 |  5.42
Other   |            | 18.5       |            |       |  1.08

Nlocal:           7520 ave        7520 max        7520 min
Histogram: 1 0 0 0 0 0 0 0 0 0
Nghost:          23083 ave       23083 max       23083 min
Histogram: 1 0 0 0 0 0 0 0 0 0
Neighs:              0 ave           0 max           0 min
Histogram: 1 0 0 0 0 0 0 0 0 0
FullNghs:  6.28047e+06 ave 6.28047e+06 max 6.28047e+06 min
Histogram: 1 0 0 0 0 0 0 0 0 0

Total # of neighbors = 6280474
Ave neighs/atom = 835.16941
Ave special neighs/atom = 5.7207447
Neighbor list builds = 14919
Dangerous builds = 0
System init for write_data ...
Generated 15 of 15 mixed pair_coeff terms from sixthpower/sixthpower mixing rule
STAGE COMPLETE: NPT compression P=1.0->50000.0atm density target reached
