units real
atom_style full
boundary p p p

# --- Force Field Styles ---
pair_style lj/class2/coul/long 9.5 9.5
kspace_style pppm 1e-6
dielectric 1.000000
bond_style class2
angle_style class2
dihedral_style class2
improper_style class2
special_bonds lj/coul 0 0 1
pair_modify mix sixthpower tail yes
neighbor 2.0 bin
neigh_modify delay 0 every 1 check yes
neigh_modify one 4000
# KOKKOS: package loaded via -pk kokkos on the command line

read_data /home/arz2/PolyJarvis/data/PLA4/lammps/equil/npt_pppm/npt_pppm_out.data
Reading data file ...
  orthogonal box = (3.6906519 3.6906519 3.6906519) to (41.942472 41.942472 41.942472)
  1 by 1 by 1 MPI processor grid
  reading atoms ...
  4520 atoms
  reading velocities ...
  4520 velocities
  scanning bonds ...
  4 = max bonds/atom
  scanning angles ...
  12 = max angles/atom
  scanning dihedrals ...
  21 = max dihedrals/atom
  scanning impropers ...
  8 = max impropers/atom
  orthogonal box = (3.6906519 3.6906519 3.6906519) to (41.942472 41.942472 41.942472)
  1 by 1 by 1 MPI processor grid
  reading bonds ...
  4510 bonds
  reading angles ...
  8000 angles
  reading dihedrals ...
  9970 dihedrals
  reading impropers ...
  4500 impropers
Finding 1-2 1-3 1-4 neighbors ...
  special bond factors lj:    0        0        1       
  special bond factors coul:  0        0        1       
     4 = max # of 1-2 neighbors
     6 = max # of 1-3 neighbors
    10 = max # of special neighbors
  special bonds CPU = 0.003 seconds
  read_data CPU = 0.260 seconds
include /home/arz2/PolyJarvis/data/PLA4/lammps/equil/emc_build.params
# LAMMPS parameters created by EMC v9.4.4, build Jul 31 2025 20:33:44

# Variables

variable	seed		index	481723
variable	ntotal		index	4520
variable	fshape		index	1
variable	output		index	emc_build
variable	field		index	pcff/pcff
variable	location1	index	/home/arz2/emc/field/
variable	nav		index	0.6022141179
variable	temperature	index	300
variable	radius		index	5
variable	nrelax		index	100
variable	weight_nonbond	index	0.0001
variable	weight_bond	index	0.0001
variable	weight_focus	index	1
variable	cutoff		index	9.5
variable	charge_cutoff	index	9.5
variable	kappa		index	4
variable	density1	index	0.63
variable	lprevious	index	0
variable	lphase		index	45.6331234262
variable	f_poly		index	10
variable	chem_repeat	index	*C(C)C(=O)O*
variable	chem_cap	index	*[H]
variable	lg_repeat	index	9
variable	lg_cap		index	1
variable	norm_poly	index	100
variable	l_poly		index	452
variable	mg_repeat	index	44.05358
variable	mg_cap		index	0
variable	m_poly		index	2202.679
variable	n_poly		index	10
variable	mtotal		index	36052.2247
variable	nphase1		index	4520
variable	mphase1		index	36052.2247
variable	vphase1		index	95025.5927105
variable	lbox		index	45.6331234262
variable	lphase1		index	45.6331234262
variable	lxx		index	45.6331234262
variable	lyy		index	45.6331234262
variable	lzz		index	45.6331234262
variable	lzy		index	0
variable	lzx		index	0
variable	lyx		index	0
variable	vtotal		index	95025.5927105
variable	nl_poly		index	10

# Types

variable	type_c		index	1
variable	type_c1		index	2
variable	type_c_1	index	3
variable	type_hc		index	4
variable	type_ho2	index	5
variable	type_o_1	index	6
variable	type_o_2	index	7

variable	type_bond_c_c	index	1
variable	type_bond_c_c1	index	2
variable	type_bond_c_c_1	index	3
variable	type_bond_c_hc	index	4
variable	type_bond_c1_c_1 index	5
variable	type_bond_c1_hc	index	6
variable	type_bond_c1_o_2 index	7
variable	type_bond_c_1_o_1 index	8
variable	type_bond_c_1_o_2 index	9
variable	type_bond_ho2_o_2 index	10

variable	type_angle_c_c_c_1 index	1
variable	type_angle_c_c_hc index	2
variable	type_angle_c_c1_c_1 index	3
variable	type_angle_c_c1_hc index	4
variable	type_angle_c_c1_o_2 index	5
variable	type_angle_c_c_1_o_1 index	6
variable	type_angle_c_c_1_o_2 index	7
variable	type_angle_c1_c_hc index	8
variable	type_angle_c1_c_1_o_1 index	9
variable	type_angle_c1_c_1_o_2 index	10
variable	type_angle_c1_o_2_c_1 index	11
variable	type_angle_c_1_c_hc index	12
variable	type_angle_c_1_c1_hc index	13
variable	type_angle_c_1_c1_o_2 index	14
variable	type_angle_c_1_o_2_ho2 index	15
variable	type_angle_hc_c_hc index	16
variable	type_angle_hc_c1_o_2 index	17
variable	type_angle_o_1_c_1_o_2 index	18

# Clusters

variable	n0_poly		index	1
variable	n1_poly		index	10
variable	nl_poly		index	10

# Flags

variable	flag_charged	index	1

# Masses

mass		1    12.01115  # c
mass		2    12.01115  # c1
mass		3    12.01115  # c_1
mass		4     1.00797  # hc
mass		5     1.00800  # ho2
mass		6    15.99940  # o_1
mass		7    15.99940  # o_2

# Potentials

pair_modify	mix sixthpower tail yes
special_bonds	lj/coul 0 0 1

# Pair Coeffs

pair_coeff	 1  1    0.05400    4.01000  # c,c
pair_coeff	 2  2    0.05400    4.01000  # c1,c1
pair_coeff	 3  3    0.12000    3.81000  # c_1,c_1
pair_coeff	 4  4    0.02000    2.99500  # hc,hc
pair_coeff	 5  5    0.01300    1.11000  # ho2,ho2
pair_coeff	 6  6    0.26700    3.30000  # o_1,o_1
pair_coeff	 7  7    0.24000    3.42000  # o_2,o_2

# Bond Coeffs

bond_coeff	 1    1.53000  299.67000 -501.77000  679.81000  # c,c
bond_coeff	 2    1.53000  299.67000 -501.77000  679.81000  # c,c1
bond_coeff	 3    1.52020  253.70670 -423.03700  396.90000  # c,c_1
bond_coeff	 4    1.10100  345.00000 -691.89000  844.60000  # c,hc
bond_coeff	 5    1.52020  253.70670 -423.03700  396.90000  # c1,c_1
bond_coeff	 6    1.10100  345.00000 -691.89000  844.60000  # c1,hc
bond_coeff	 7    1.43000  326.72730 -608.53060  689.03330  # c1,o_2
bond_coeff	 8    1.20200  851.14030 -1918.48820 2160.76590  # c_1,o_1
bond_coeff	 9    1.36830  367.14810 -794.79080 1055.23190  # c_1,o_2
bond_coeff	10    0.95200  534.29940 -1287.19370 1889.13960  # ho2,o_2

# Angle Coeffs

angle_coeff	 1  108.52950   51.97470   -9.48510  -10.99850  # c,c,c_1
angle_coeff	 2  110.77000   41.45300  -10.60400    5.12900  # c,c,hc
angle_coeff	 3  108.52950   51.97470   -9.48510  -10.99850  # c,c1,c_1
angle_coeff	 4  110.77000   41.45300  -10.60400    5.12900  # c,c1,hc
angle_coeff	 5  107.41000   63.39070  -13.45130    1.66500  # c,c1,o_2
angle_coeff	 6  123.14510   55.54310  -17.21230    0.13480  # c,c_1,o_1
angle_coeff	 7  100.31820   38.86310   -3.83230   -7.98020  # c,c_1,o_2
angle_coeff	 8  110.77000   41.45300  -10.60400    5.12900  # c1,c,hc
angle_coeff	 9  123.14510   55.54310  -17.21230    0.13480  # c1,c_1,o_1
angle_coeff	10  100.31820   38.86310   -3.83230   -7.98020  # c1,c_1,o_2
angle_coeff	11  113.28800   61.28680  -28.97860    7.99290  # c1,o_2,c_1
angle_coeff	12  107.73360   40.60990  -28.81210    0.00000  # c_1,c,hc
angle_coeff	13  107.73360   40.60990  -28.81210    0.00000  # c_1,c1,hc
angle_coeff	14  109.50000   60.00000    0.00000    0.00000  # c_1,c1,o_2
angle_coeff	15  112.87400   53.25120  -14.99790    2.46400  # c_1,o_2,ho2
angle_coeff	16  107.66000   39.64100  -12.92100   -2.43180  # hc,c,hc
angle_coeff	17  107.68800   65.48010  -10.34980    5.88660  # hc,c1,o_2
angle_coeff	18  120.79700   95.34460  -32.28690    6.37780  # o_1,c_1,o_2

# BondBond Coeffs

angle_coeff	 1 bb    5.41990    1.53000    1.52020  # c,c,c_1
angle_coeff	 2 bb    3.38720    1.53000    1.10100  # c,c,hc
angle_coeff	 3 bb    5.41990    1.53000    1.52020  # c,c1,c_1
angle_coeff	 4 bb    3.38720    1.53000    1.10100  # c,c1,hc
angle_coeff	 5 bb   23.26470    1.53000    1.43000  # c,c1,o_2
angle_coeff	 6 bb   46.06850    1.52020    1.20200  # c,c_1,o_1
angle_coeff	 7 bb   19.10690    1.52020    1.36830  # c,c_1,o_2
angle_coeff	 8 bb    3.38720    1.53000    1.10100  # c1,c,hc
angle_coeff	 9 bb   46.06850    1.52020    1.20200  # c1,c_1,o_1
angle_coeff	10 bb   19.10690    1.52020    1.36830  # c1,c_1,o_2
angle_coeff	11 bb   45.45030    1.43000    1.36830  # c1,o_2,c_1
angle_coeff	12 bb    0.71150    1.52020    1.10100  # c_1,c,hc
angle_coeff	13 bb    0.71150    1.52020    1.10100  # c_1,c1,hc
angle_coeff	14 bb    0.00000    1.52020    1.43000  # c_1,c1,o_2
angle_coeff	15 bb    9.56710    1.36830    0.95200  # c_1,o_2,ho2
angle_coeff	16 bb    5.33160    1.10100    1.10100  # hc,c,hc
angle_coeff	17 bb    5.64540    1.10100    1.43000  # hc,c1,o_2
angle_coeff	18 bb  121.48800    1.20200    1.36830  # o_1,c_1,o_2

# BondAngle Coeffs

angle_coeff	 1 ba   18.16780   15.87580    1.53000    1.52020  # c,c,c_1
angle_coeff	 2 ba   20.75400   11.42100    1.53000    1.10100  # c,c,hc
angle_coeff	 3 ba   18.16780   15.87580    1.53000    1.52020  # c,c1,c_1
angle_coeff	 4 ba   20.75400   11.42100    1.53000    1.10100  # c,c1,hc
angle_coeff	 5 ba   23.39200   47.94870    1.53000    1.43000  # c,c1,o_2
angle_coeff	 6 ba   34.99820   37.12980    1.52020    1.20200  # c,c_1,o_1
angle_coeff	 7 ba    1.34350    4.69780    1.52020    1.36830  # c,c_1,o_2
angle_coeff	 8 ba   20.75400   11.42100    1.53000    1.10100  # c1,c,hc
angle_coeff	 9 ba   34.99820   37.12980    1.52020    1.20200  # c1,c_1,o_1
angle_coeff	10 ba    1.34350    4.69780    1.52020    1.36830  # c1,c_1,o_2
angle_coeff	11 ba   41.91160   46.46080    1.43000    1.36830  # c1,o_2,c_1
angle_coeff	12 ba   12.46320    9.17650    1.52020    1.10100  # c_1,c,hc
angle_coeff	13 ba   12.46320    9.17650    1.52020    1.10100  # c_1,c1,hc
angle_coeff	14 ba    0.00000    0.00000    1.52020    1.43000  # c_1,c1,o_2
angle_coeff	15 ba   37.91630   21.43640    1.36830    0.95200  # c_1,o_2,ho2
angle_coeff	16 ba   18.10300   18.10300    1.10100    1.10100  # hc,c,hc
angle_coeff	17 ba    8.68640   57.49750    1.10100    1.43000  # hc,c1,o_2
angle_coeff	18 ba   76.26140   71.87610    1.20200    1.36830  # o_1,c_1,o_2

# Dihedral Coeffs

dihedral_coeff	 1    0.04420    0.00000    0.02920    0.00000    0.05620    0.00000  # c,c,c_1,o_1
dihedral_coeff	 2    1.83410    0.00000    2.06030    0.00000   -0.01950    0.00000  # c,c,c_1,o_2
dihedral_coeff	 3    0.04420    0.00000    0.02920    0.00000    0.05620    0.00000  # c,c1,c_1,o_1
dihedral_coeff	 4    1.83410    0.00000    2.06030    0.00000   -0.01950    0.00000  # c,c1,c_1,o_2
dihedral_coeff	 5    0.00000    0.00000    0.00000    0.00000   -0.19320    0.00000  # c,c1,o_2,c_1
dihedral_coeff	 6   -2.55940    0.00000    2.20130    0.00000    0.03250    0.00000  # c,c_1,o_2,c1
dihedral_coeff	 7   -2.55940    0.00000    2.20130    0.00000    0.03250    0.00000  # c1,c_1,o_2,c1
dihedral_coeff	 8   -2.91260    0.00000    1.01990    0.00000   -0.20770    0.00000  # c1,c_1,o_2,ho2
dihedral_coeff	 9    0.00000    0.00000    2.20890    0.00000    0.00000    0.00000  # c1,o_2,c_1,o_1
dihedral_coeff	10   -0.02280    0.00000    0.02800    0.00000   -0.18630    0.00000  # c_1,c,c,hc
dihedral_coeff	11   -0.02280    0.00000    0.02800    0.00000   -0.18630    0.00000  # c_1,c1,c,hc
dihedral_coeff	12    0.00000    0.00000    0.00000    0.00000   -0.19320    0.00000  # c_1,c1,o_2,c_1
dihedral_coeff	13    0.00000    0.00000    0.00000    0.00000   -0.19320    0.00000  # c_1,o_2,c1,hc
dihedral_coeff	14   -0.14320    0.00000    0.06170    0.00000   -0.10830    0.00000  # hc,c,c,hc
dihedral_coeff	15   -0.14320    0.00000    0.06170    0.00000   -0.10830    0.00000  # hc,c,c1,hc
dihedral_coeff	16    0.00000    0.00000    0.00000    0.00000   -0.25000    0.00000  # hc,c,c1,o_2
dihedral_coeff	17   -0.18040    0.00000    0.00120    0.00000    0.03710    0.00000  # hc,c,c_1,o_1
dihedral_coeff	18   -0.63590    0.00000    1.48070    0.00000   -0.04380    0.00000  # hc,c,c_1,o_2
dihedral_coeff	19   -0.18040    0.00000    0.00120    0.00000    0.03710    0.00000  # hc,c1,c_1,o_1
dihedral_coeff	20   -0.63590    0.00000    1.48070    0.00000   -0.04380    0.00000  # hc,c1,c_1,o_2
dihedral_coeff	21    0.00000    0.00000    2.20890    0.00000    0.00000    0.00000  # ho2,o_2,c_1,o_1
dihedral_coeff	22    0.00000  180.00000    0.00000    0.00000    0.00000    0.00000  # o_1,c_1,c1,o_2
dihedral_coeff	23    0.00000  180.00000    0.00000    0.00000    0.00000    0.00000  # o_2,c1,c_1,o_2

# MiddleBondTorsion Coeffs

dihedral_coeff	 1 mbt    0.33880   -0.10960    0.12190    1.52020  # c,c,c_1,o_1
dihedral_coeff	 2 mbt  -17.32800   -5.79000   -3.21140    1.52020  # c,c,c_1,o_2
dihedral_coeff	 3 mbt    0.33880   -0.10960    0.12190    1.52020  # c,c1,c_1,o_1
dihedral_coeff	 4 mbt  -17.32800   -5.79000   -3.21140    1.52020  # c,c1,c_1,o_2
dihedral_coeff	 5 mbt   -5.43500    0.00000    0.00000    1.43000  # c,c1,o_2,c_1
dihedral_coeff	 6 mbt    1.34450    3.55150   -4.92020    1.36830  # c,c_1,o_2,c1
dihedral_coeff	 7 mbt    1.34450    3.55150   -4.92020    1.36830  # c1,c_1,o_2,c1
dihedral_coeff	 8 mbt    2.14520    0.54820   -2.36930    1.36830  # c1,c_1,o_2,ho2
dihedral_coeff	 9 mbt    4.26000    0.00000    0.00000    1.36830  # c1,o_2,c_1,o_1
dihedral_coeff	10 mbt   -3.50390    1.24580   -0.76100    1.53000  # c_1,c,c,hc
dihedral_coeff	11 mbt   -3.50390    1.24580   -0.76100    1.53000  # c_1,c1,c,hc
dihedral_coeff	12 mbt    0.00000    0.00000    0.00000    1.43000  # c_1,c1,o_2,c_1
dihedral_coeff	13 mbt    0.00000    0.00000    0.00000    1.43000  # c_1,o_2,c1,hc
dihedral_coeff	14 mbt  -14.26100   -0.53220   -0.48640    1.53000  # hc,c,c,hc
dihedral_coeff	15 mbt  -14.26100   -0.53220   -0.48640    1.53000  # hc,c,c1,hc
dihedral_coeff	16 mbt    0.00000    0.00000    0.00000    1.53000  # hc,c,c1,o_2
dihedral_coeff	17 mbt    0.23590    0.91390    0.95940    1.52020  # hc,c,c_1,o_1
dihedral_coeff	18 mbt  -13.76860   -2.59590    1.19340    1.52020  # hc,c,c_1,o_2
dihedral_coeff	19 mbt    0.23590    0.91390    0.95940    1.52020  # hc,c1,c_1,o_1
dihedral_coeff	20 mbt  -13.76860   -2.59590    1.19340    1.52020  # hc,c1,c_1,o_2
dihedral_coeff	21 mbt    4.26000    0.00000    0.00000    1.36830  # ho2,o_2,c_1,o_1
dihedral_coeff	22 mbt    0.00000    0.00000    0.00000    1.52020  # o_1,c_1,c1,o_2
dihedral_coeff	23 mbt    0.00000    0.00000    0.00000    1.52020  # o_2,c1,c_1,o_2

# EndBondTorsion Coeffs

dihedral_coeff	 1 ebt    0.26540    0.05030    0.10460   -0.28100    0.08160   -0.15220    1.53000    1.20200  # c,c,c_1,o_1
dihedral_coeff	 2 ebt    0.00000    0.00000    0.00000    0.00000    0.00000    0.00000    1.53000    1.36830  # c,c,c_1,o_2
dihedral_coeff	 3 ebt    0.26540    0.05030    0.10460   -0.28100    0.08160   -0.15220    1.53000    1.20200  # c,c1,c_1,o_1
dihedral_coeff	 4 ebt    0.00000    0.00000    0.00000    0.00000    0.00000    0.00000    1.53000    1.36830  # c,c1,c_1,o_2
dihedral_coeff	 5 ebt    0.00000    0.00000    0.00000    0.00000    0.00000    0.00000    1.53000    1.36830  # c,c1,o_2,c_1
dihedral_coeff	 6 ebt    0.00000    0.00000    0.00000    0.00000    0.00000    0.00000    1.52020    1.43000  # c,c_1,o_2,c1
dihedral_coeff	 7 ebt    0.00000    0.00000    0.00000    0.00000    0.00000    0.00000    1.52020    1.43000  # c1,c_1,o_2,c1
dihedral_coeff	 8 ebt    0.00000    0.00000    0.00000    0.00000    0.00000    0.00000    1.52020    0.95200  # c1,c_1,o_2,ho2
dihedral_coeff	 9 ebt    0.00000    0.00000    0.00000    0.00000    0.00000    0.00000    1.43000    1.20200  # c1,o_2,c_1,o_1
dihedral_coeff	10 ebt   -0.02040    0.36280   -0.44260   -0.00970   -0.03150   -0.07550    1.52020    1.10100  # c_1,c,c,hc
dihedral_coeff	11 ebt   -0.02040    0.36280   -0.44260   -0.00970   -0.03150   -0.07550    1.52020    1.10100  # c_1,c1,c,hc
dihedral_coeff	12 ebt    0.00000    0.00000    0.00000    0.00000    0.00000    0.00000    1.52020    1.36830  # c_1,c1,o_2,c_1
dihedral_coeff	13 ebt    0.00000    0.00000    0.00000    0.00000    0.00000    0.00000    1.36830    1.10100  # c_1,o_2,c1,hc
dihedral_coeff	14 ebt    0.21300    0.31200    0.07770    0.21300    0.31200    0.07770    1.10100    1.10100  # hc,c,c,hc
dihedral_coeff	15 ebt    0.21300    0.31200    0.07770    0.21300    0.31200    0.07770    1.10100    1.10100  # hc,c,c1,hc
dihedral_coeff	16 ebt    0.00000    0.00000    0.00000    0.00000    0.00000    0.00000    1.10100    1.43000  # hc,c,c1,o_2
dihedral_coeff	17 ebt    1.21430    0.28310    0.39160   -0.22980    0.03540    0.38530    1.10100    1.20200  # hc,c,c_1,o_1
dihedral_coeff	18 ebt    0.00000    0.00000    0.00000    0.00000    0.00000    0.00000    1.10100    1.36830  # hc,c,c_1,o_2
dihedral_coeff	19 ebt    1.21430    0.28310    0.39160   -0.22980    0.03540    0.38530    1.10100    1.20200  # hc,c1,c_1,o_1
dihedral_coeff	20 ebt    0.00000    0.00000    0.00000    0.00000    0.00000    0.00000    1.10100    1.36830  # hc,c1,c_1,o_2
dihedral_coeff	21 ebt    0.00000    0.00000    0.00000    0.00000    0.00000    0.00000    0.95200    1.20200  # ho2,o_2,c_1,o_1
dihedral_coeff	22 ebt    0.00000    0.00000    0.00000    0.00000    0.00000    0.00000    1.20200    1.43000  # o_1,c_1,c1,o_2
dihedral_coeff	23 ebt    0.00000    0.00000    0.00000    0.00000    0.00000    0.00000    1.43000    1.36830  # o_2,c1,c_1,o_2

# AngleTorsion Coeffs

dihedral_coeff	 1 at    0.08850   -1.37030   -0.54520    0.67500    0.59650    0.67250  108.52950  123.14510  # c,c,c_1,o_1
dihedral_coeff	 2 at    0.00000    0.00000    0.00000    0.00000    0.00000    0.00000  108.52950  100.31820  # c,c,c_1,o_2
dihedral_coeff	 3 at    0.08850   -1.37030   -0.54520    0.67500    0.59650    0.67250  108.52950  123.14510  # c,c1,c_1,o_1
dihedral_coeff	 4 at    0.00000    0.00000    0.00000    0.00000    0.00000    0.00000  108.52950  100.31820  # c,c1,c_1,o_2
dihedral_coeff	 5 at    0.00000    0.00000    0.00000    0.00000    0.00000    0.00000  107.41000  113.28800  # c,c1,o_2,c_1
dihedral_coeff	 6 at    0.00000    0.00000    0.00000    0.00000    0.00000    0.00000  100.31820  113.28800  # c,c_1,o_2,c1
dihedral_coeff	 7 at    0.00000    0.00000    0.00000    0.00000    0.00000    0.00000  100.31820  113.28800  # c1,c_1,o_2,c1
dihedral_coeff	 8 at    0.00000    0.00000    0.00000    0.00000    0.00000    0.00000  100.31820  112.87400  # c1,c_1,o_2,ho2
dihedral_coeff	 9 at    0.00000    0.00000    0.00000    0.00000    0.00000    0.00000  113.28800  120.79700  # c1,o_2,c_1,o_1
dihedral_coeff	10 at   -0.74660   -0.94480   -0.63210    0.01620    1.42110   -1.40920  108.52950  110.77000  # c_1,c,c,hc
dihedral_coeff	11 at   -0.74660   -0.94480   -0.63210    0.01620    1.42110   -1.40920  108.52950  110.77000  # c_1,c1,c,hc
dihedral_coeff	12 at    0.00000    0.00000    0.00000    0.00000    0.00000    0.00000  109.50000  113.28800  # c_1,c1,o_2,c_1
dihedral_coeff	13 at    0.00000    0.00000    0.00000    0.00000    0.00000    0.00000  113.28800  107.68800  # c_1,o_2,c1,hc
dihedral_coeff	14 at   -0.80850    0.55690   -0.24660   -0.80850    0.55690   -0.24660  110.77000  110.77000  # hc,c,c,hc
dihedral_coeff	15 at   -0.80850    0.55690   -0.24660   -0.80850    0.55690   -0.24660  110.77000  110.77000  # hc,c,c1,hc
dihedral_coeff	16 at    0.00000    0.00000    0.00000    0.00000    0.00000    0.00000  110.77000  107.41000  # hc,c,c1,o_2
dihedral_coeff	17 at    9.12990   -0.48470    0.35820   -1.49460    0.73080   -0.20830  107.73360  123.14510  # hc,c,c_1,o_1
dihedral_coeff	18 at    0.00000    0.00000    0.00000    0.00000    0.00000    0.00000  107.73360  100.31820  # hc,c,c_1,o_2
dihedral_coeff	19 at    9.12990   -0.48470    0.35820   -1.49460    0.73080   -0.20830  107.73360  123.14510  # hc,c1,c_1,o_1
dihedral_coeff	20 at    0.00000    0.00000    0.00000    0.00000    0.00000    0.00000  107.73360  100.31820  # hc,c1,c_1,o_2
dihedral_coeff	21 at    0.00000    0.00000    0.00000    0.00000    0.00000    0.00000  112.87400  120.79700  # ho2,o_2,c_1,o_1
dihedral_coeff	22 at    0.00000    0.00000    0.00000    0.00000    0.00000    0.00000  123.14510  109.50000  # o_1,c_1,c1,o_2
dihedral_coeff	23 at    0.00000    0.00000    0.00000    0.00000    0.00000    0.00000  109.50000  100.31820  # o_2,c1,c_1,o_2

# AngleAngleTorsion Coeffs

dihedral_coeff	 1 aat   -8.01900  108.52950  123.14510  # c,c,c_1,o_1
dihedral_coeff	 2 aat    0.00000  108.52950  100.31820  # c,c,c_1,o_2
dihedral_coeff	 3 aat   -8.01900  108.52950  123.14510  # c,c1,c_1,o_1
dihedral_coeff	 4 aat    0.00000  108.52950  100.31820  # c,c1,c_1,o_2
dihedral_coeff	 5 aat    0.00000  107.41000  113.28800  # c,c1,o_2,c_1
dihedral_coeff	 6 aat    0.00000  100.31820  113.28800  # c,c_1,o_2,c1
dihedral_coeff	 7 aat    0.00000  100.31820  113.28800  # c1,c_1,o_2,c1
dihedral_coeff	 8 aat    0.00000  100.31820  112.87400  # c1,c_1,o_2,ho2
dihedral_coeff	 9 aat    0.00000  113.28800  120.79700  # c1,o_2,c_1,o_1
dihedral_coeff	10 aat   -5.36240  108.52950  110.77000  # c_1,c,c,hc
dihedral_coeff	11 aat   -5.36240  108.52950  110.77000  # c_1,c1,c,hc
dihedral_coeff	12 aat    0.00000  109.50000  113.28800  # c_1,c1,o_2,c_1
dihedral_coeff	13 aat    0.00000  113.28800  107.68800  # c_1,o_2,c1,hc
dihedral_coeff	14 aat  -12.56400  110.77000  110.77000  # hc,c,c,hc
dihedral_coeff	15 aat  -12.56400  110.77000  110.77000  # hc,c,c1,hc
dihedral_coeff	16 aat    0.00000  110.77000  107.41000  # hc,c,c1,o_2
dihedral_coeff	17 aat  -15.34960  107.73360  123.14510  # hc,c,c_1,o_1
dihedral_coeff	18 aat    0.00000  107.73360  100.31820  # hc,c,c_1,o_2
dihedral_coeff	19 aat  -15.34960  107.73360  123.14510  # hc,c1,c_1,o_1
dihedral_coeff	20 aat    0.00000  107.73360  100.31820  # hc,c1,c_1,o_2
dihedral_coeff	21 aat    0.00000  112.87400  120.79700  # ho2,o_2,c_1,o_1
dihedral_coeff	22 aat    0.00000  123.14510  109.50000  # o_1,c_1,c1,o_2
dihedral_coeff	23 aat    0.00000  109.50000  100.31820  # o_2,c1,c_1,o_2

# BondBond13 Coeffs

dihedral_coeff	 1 bb13    0.00000    1.53000    1.20200  # c,c,c_1,o_1
dihedral_coeff	 2 bb13    0.00000    1.53000    1.36830  # c,c,c_1,o_2
dihedral_coeff	 3 bb13    0.00000    1.53000    1.20200  # c,c1,c_1,o_1
dihedral_coeff	 4 bb13    0.00000    1.53000    1.36830  # c,c1,c_1,o_2
dihedral_coeff	 5 bb13    0.00000    1.53000    1.36830  # c,c1,o_2,c_1
dihedral_coeff	 6 bb13    0.00000    1.52020    1.43000  # c,c_1,o_2,c1
dihedral_coeff	 7 bb13    0.00000    1.52020    1.43000  # c1,c_1,o_2,c1
dihedral_coeff	 8 bb13    0.00000    1.52020    0.95200  # c1,c_1,o_2,ho2
dihedral_coeff	 9 bb13    0.00000    1.43000    1.20200  # c1,o_2,c_1,o_1
dihedral_coeff	10 bb13    0.00000    1.52020    1.10100  # c_1,c,c,hc
dihedral_coeff	11 bb13    0.00000    1.52020    1.10100  # c_1,c1,c,hc
dihedral_coeff	12 bb13    0.00000    1.52020    1.36830  # c_1,c1,o_2,c_1
dihedral_coeff	13 bb13    0.00000    1.36830    1.10100  # c_1,o_2,c1,hc
dihedral_coeff	14 bb13    0.00000    1.10100    1.10100  # hc,c,c,hc
dihedral_coeff	15 bb13    0.00000    1.10100    1.10100  # hc,c,c1,hc
dihedral_coeff	16 bb13    0.00000    1.10100    1.43000  # hc,c,c1,o_2
dihedral_coeff	17 bb13    0.00000    1.10100    1.20200  # hc,c,c_1,o_1
dihedral_coeff	18 bb13    0.00000    1.10100    1.36830  # hc,c,c_1,o_2
dihedral_coeff	19 bb13    0.00000    1.10100    1.20200  # hc,c1,c_1,o_1
dihedral_coeff	20 bb13    0.00000    1.10100    1.36830  # hc,c1,c_1,o_2
dihedral_coeff	21 bb13    0.00000    0.95200    1.20200  # ho2,o_2,c_1,o_1
dihedral_coeff	22 bb13    0.00000    1.20200    1.43000  # o_1,c_1,c1,o_2
dihedral_coeff	23 bb13    0.00000    1.43000    1.36830  # o_2,c1,c_1,o_2

# Improper Coeffs

improper_coeff	 1    0.00000    0.00000  # c,c,hc,c_1
improper_coeff	 2    0.00000    0.00000  # c,c,hc,hc
improper_coeff	 3    0.00000    0.00000  # c,c1,hc,hc
improper_coeff	 4    0.00000    0.00000  # c,c_1,hc,hc
improper_coeff	 5    0.00000    0.00000  # c,hc,hc,hc
improper_coeff	 6    0.00000    0.00000  # c1,c,hc,c_1
improper_coeff	 7    0.00000    0.00000  # c1,c,hc,o_2
improper_coeff	 8    0.00000    0.00000  # c1,c,o_2,c_1
improper_coeff	 9    0.00000    0.00000  # c1,c_1,hc,o_2
improper_coeff	10   46.92640    0.00000  # c_1,c,o_2,o_1
improper_coeff	11   46.92640    0.00000  # c_1,c1,o_2,o_1

# AngleAngle Coeffs

improper_coeff	 1 aa    1.08270   -1.82020    2.04030  110.77000  108.52950  107.73360  # c,c,hc,c_1
improper_coeff	 2 aa    0.27380   -0.48250    0.27380  110.77000  110.77000  107.66000  # c,c,hc,hc
improper_coeff	 3 aa    0.27380   -0.48250    0.27380  110.77000  110.77000  107.66000  # c,c1,hc,hc
improper_coeff	 4 aa   -3.38670   -3.49760   -3.38670  107.73360  107.73360  107.66000  # c,c_1,hc,hc
improper_coeff	 5 aa   -0.31570   -0.31570   -0.31570  107.66000  107.66000  107.66000  # c,hc,hc,hc
improper_coeff	 6 aa    1.08270   -1.82020    2.04030  110.77000  108.52950  107.73360  # c1,c,hc,c_1
improper_coeff	 7 aa    0.00000    0.00000    0.00000  110.77000  107.41000  107.68800  # c1,c,hc,o_2
improper_coeff	 8 aa    0.00000    0.00000    0.00000  107.41000  108.52950  109.50000  # c1,c,o_2,c_1
improper_coeff	 9 aa    0.00000    0.00000    0.00000  107.73360  109.50000  107.68800  # c1,c_1,hc,o_2
improper_coeff	10 aa    0.00000    0.00000    0.00000  100.31820  123.14510  120.79700  # c_1,c,o_2,o_1
improper_coeff	11 aa    0.00000    0.00000    0.00000  100.31820  123.14510  120.79700  # c_1,c1,o_2,o_1


# --- Thermo Output ---
thermo_style custom step time temp press enthalpy etotal ke pe ebond eangle edihed eimp evdwl ecoul elong etail vol lx ly lz density pxx pyy pzz
thermo_modify flush yes
thermo 1000

# --- Trajectory ---
dump dump_npt all custom 1000 npt_cool.dump id type mol x y z ix iy iz vx vy vz

# --- Restart Checkpointing ---
restart 10000 npt_1.rst npt_2.rst

# --- Initial Velocities (optional) ---
# Velocities read from data file

# --- SHAKE Constraints ---
# SHAKE disabled

# --- NPT Thermostat + Barostat (Nose-Hoover) ---
# T_damp = 100.0 fs  (heat bath coupling)
# P_damp = 1000.0 fs  (pressure bath coupling, ~10x T_damp typical)
# Ramp: T=700.0->620.0K  P=1.0->1.0atm
timestep 1.0
fix npt_fix all npt temp 700.0 620.0 100.0 iso 1.0 1.0 1000.0

run 1000000
PPPM Kokkos initialization ...
  using 12-bit tables for long-range coulomb
  G vector (1/distance) = 0.33984649
  grid = 45 45 45
  stencil order = 5
  estimated absolute RMS force accuracy = 0.00028577784
  estimated relative force accuracy = 8.6061147e-07
  using double precision cuFFT
  3d grid and FFT values/proc = 140608 91125
Generated 21 of 21 mixed pair_coeff terms from sixthpower/sixthpower mixing rule
Neighbor list info ...
  update: every = 1 steps, delay = 0 steps, check = yes
  max neighbors/atom: 4000, page size: 100000
  master list distance cutoff = 11.5
  ghost atom cutoff = 11.5
  binsize = 11.5, bins = 4 4 4
  1 neighbor lists, perpetual/occasional/extra = 1 0 0
  (1) pair lj/class2/coul/long/kk, perpetual
      attributes: full, newton off, kokkos_device
      pair build: full/bin/kk/device
      stencil: full/bin/3d
      bin: kk/device
Per MPI rank memory allocation (min/avg/max) = 36 | 36 | 36 Mbytes
   Step          Time           Temp          Press         Enthalpy        TotEng         KinEng         PotEng         E_bond        E_angle        E_dihed        E_impro         E_vdwl         E_coul         E_long         E_tail         Volume           Lx             Ly             Lz          Density          Pxx            Pyy            Pzz      
         0   0              701.0313       462.13346      28561.558      28184.333      9443.0884      18741.245      4208.0493      5994.811      -3355.2389      312.91153     -1553.5408      44775.318     -31641.065     -337.90066      55970.128      38.25182       38.25182       38.25182       1.0696085      256.95376      1397.5737     -268.12706    
      1000   1000           692.52063      615.56902      28464.005      27963.604      9328.4472      18635.157      4194.9498      5869.8942     -3312.666       375.98038     -1638.4448      44798.156     -31652.713     -339.29724      55739.751      38.199265      38.199265      38.199265      1.0740292      125.47264      193.79915      1527.4353    
      2000   2000           704.58071      122.85571      28398.661      28299.367      9490.8999      18808.467      4421.5436      5913.9771     -3374.7534      384.06929     -1606.0473      44719.111     -31649.433     -341.26656      55418.097      38.125645      38.125645      38.125645      1.080263       230.91714      1750.1515     -1612.5015    
      3000   3000           693.56011     -583.82678      27597.774      28065.298      9342.4493      18722.849      4189.7435      5994.8044     -3331.5898      350.72305     -1601.7301      44763.154     -31642.256     -344.4308       54908.978      38.008534      38.008534      38.008534      1.0902793      2052.6761     -2052.1534     -1752.0031    
      4000   4000           684.36033     -1693.2111      26564.498      27938.254      9218.5257      18719.728      4300.736       6058.9618     -3401.2733      368.83309     -1685.2841      44722.846     -31645.091     -339.95599      55631.74       38.174575      38.174575      38.174575      1.0761145     -2107.6536     -3622.1036      650.12403    
      5000   5000           703.84818     -681.79027      27766.709      28317.567      9481.0325      18836.535      4418.3782      5982.642      -3365.3976      359.89638     -1532.538       44630.791     -31657.237     -341.37552      55400.409      38.121589      38.121589      38.121589      1.080608      -1999.2659     -1081.7486      1035.6437    
      6000   6000           710.45041      1169.8041      29471.132      28512.148      9569.9664      18942.182      4371.4917      6158.9386     -3444.0191      310.79055     -1513.0819      44704.039     -31645.977     -336.45206      56211.109      38.306639      38.306639      38.306639      1.065023       969.45269      2211.7491      328.2105     
      7000   7000           688.7343      -3071.8641      25703.478      28205.587      9277.4443      18928.143      4321.1001      6029.2477     -3396.2646      336.3523      -1513.5095      44783.478     -31632.262     -338.62349      55850.654      38.224583      38.224583      38.224583      1.0718965     -2061.3437     -2682.6721     -4471.5767    
      8000   8000           699.96537     -506.58825      27870.242      28279.124      9428.73        18850.394      4259.1963      6108.339      -3399.3953      327.43711     -1497.8024      44698.353     -31645.734     -341.72566      55343.644      38.108564      38.108564      38.108564      1.0817163     -34.45154       864.7393      -2350.0525    
      9000   9000           690.06715      820.73656      28679.028      28005.623      9295.3981      18710.225      4318.6214      5915.012      -3323.8874      338.82195     -1580.4706      44683.083     -31640.955     -336.16197      56259.616      38.317655      38.317655      38.317655      1.0641047      1144.3747      734.90234      582.93264    
     10000   10000          694.9482      -272.60449      27984.818      28207.773      9361.1473      18846.625      4287.6597      6108.3775     -3427.9173      362.22995     -1564.3813      44718.916     -31638.259     -337.23914      56079.918      38.276815      38.276815      38.276815      1.0675144     -374.91535      1874.4865     -2317.3846    
     11000   11000          702.69796      1865.99        30002.069      28482.024      9465.5387      19016.485      4293.6559      6037.9144     -3275.3031      385.17363     -1520.346       44725.457     -31630.067     -338.58997      55856.183      38.225844      38.225844      38.225844      1.0717904      3523.4962      1477.9783      596.49544    
     12000   12000          689.88079     -1398.7589      27128.46       28277.422      9292.8878      18984.534      4452.7785      6026.5962     -3445.5801      363.42234     -1519.0876      44732.629     -31626.225     -335.78295      56323.12       38.332067      38.332067      38.332067      1.0629049     -1078.1005     -100.14318     -3018.0331    
     13000   13000          685.06335     -1741.7391      26766.879      28194.606      9227.9956      18966.61       4357.7776      5992.4078     -3366.2373      368.1462      -1474.4415      44721.556     -31632.598     -336.47992      56206.454      38.305582      38.305582      38.305582      1.0651112     -373.58259     -3328.0154     -1523.6195    
     14000   14000          700.11402      587.41704      28570.301      28082.01       9430.7323      18651.277      4066.2835      6029.5966     -3409.8856      331.32477     -1504.4319      44767.144     -31628.754     -331.80917      56997.651      38.484483      38.484483      38.484483      1.0503261     -554.61934      2340.7234     -23.852986    
     15000   15000          687.06234      928.81821      28576.358      27818.341      9254.9225      18563.419      4114.6649      5977.1233     -3466.2733      371.38557     -1562.1003      44761.049     -31632.43      -337.96599      55959.31       38.249355      38.249355      38.249355      1.0698152      1912.2478      2118.2014     -1243.9946    
     16000   16000          699.22442     -2409.6547      26273.897      28272.414      9418.7491      18853.665      4330.8833      6068.1126     -3410.0874      343.81351     -1542.0674      44705.541     -31642.531     -332.55856      56869.213      38.455554      38.455554      38.455554      1.0526983     -747.25827     -4135.092      -2346.6139    
     17000   17000          709.68881     -1332.161       27453.505      28542.581      9559.7075      18982.874      4403.4415      6063.8691     -3397.3916      375.90825     -1535.2999      44712.595     -31640.249     -337.3803       56056.454      38.271476      38.271476      38.271476      1.0679613     -442.92761     -442.55401     -3111.0015    
     18000   18000          696.48983     -1171.6062      27433.573      28396.34       9381.9135      19014.427      4179.9904      6266.6819     -3374.5716      364.0629      -1557.6497      44771.493     -31635.581     -335.64622      56346.064      38.337271      38.337271      38.337271      1.0624721     -1609.1983     -417.02905     -1488.5911    
     19000   19000          691.04941     -991.57663      27400.714      28226.762      9308.6295      18918.132      4216.6871      6080.1899     -3373.2745      322.69801     -1453.7719      44741.521     -31615.917     -331.08719      57121.943      38.512436      38.512436      38.512436      1.0480407     -2130.5487     -1727.2652      883.08401    
     20000   20000          703.88269     -309.95744      27984.223      28235.897      9481.4973      18754.399      4339.1581      5978.2339     -3395.3644      339.67024     -1567.8908      44695.805     -31635.213     -339.69144      55675.067      38.184483      38.184483      38.184483      1.0752771      1573.0199     -982.11625     -1520.7759    
     21000   21000          696.36841      182.94015      28417.277      28265.285      9380.2779      18885.007      4313.6933      5982.4559     -3332.583       367.91485     -1498.7199      44677.093     -31624.847     -331.97817      56968.636      38.477951      38.477951      38.477951      1.0508611      150.24817      2286.7995     -1888.2272    
     22000   22000          701.79684     -444.45583      27970.664      28338.859      9453.4003      18885.459      4359.8461      6059.7632     -3393.8293      313.06376     -1486.5498      44669.965     -31636.8       -332.94409      56803.361      38.440705      38.440705      38.440705      1.0539187     -886.19995     -1546.3082      1099.1407    
     23000   23000          698.65717      77.408624      28417.272      28354.027      9411.1082      18942.918      4247.7746      6052.9825     -3311.3854      321.81022     -1485.5017      44748.345     -31631.107     -337.58444      56022.557      38.26376       38.26376       38.26376       1.0686075     -989.58748      145.98897      1075.8244    
     24000   24000          708.1239       665.40048      28869.743      28317.662      9538.6277      18779.034      4318.6255      5995.2221     -3425.0764      327.50768     -1526.5813      44722.712     -31633.375     -332.43084      56891.062      38.460478      38.460478      38.460478      1.052294       2032.3655      536.63595     -572.79997    
     25000   25000          707.33888      2660.0636      30342.231      28146.81       9528.0532      18618.757      4094.0663      5952.5792     -3340.5068      288.79988     -1452.7628      44705.348     -31628.768     -334.19151      56591.334      38.392817      38.392817      38.392817      1.0578673      3489.3828      1981.5228      2509.2851    
     26000   26000          688.7424      -940.63657      27218.893      27992.212      9277.5533      18714.659      4300.3633      5936.8434     -3403.3626      350.3315      -1464.3281      44631.815     -31637.004     -335.49364      56371.69       38.343082      38.343082      38.343082      1.0619891     -3513.5917     -1349.5077      2041.1897    
     27000   27000          688.50048      447.80336      28411.411      28047.595      9274.2947      18773.3        4257.6194      5960.5515     -3371.3271      344.44087     -1519.6991      44731.456     -31629.741     -339.4901       55708.085      38.19203       38.19203       38.19203       1.0746397     -200.95718      593.01769      951.34958    
     28000   28000          704.22084      95.145024      28325.196      28246.565      9486.0524      18760.513      4279.8647      6013.9955     -3403.8562      333.35495     -1475.0892      44640.894     -31628.651     -333.74788      56666.557      38.40982       38.40982       38.40982       1.056463       1185.739       34.738397     -935.04235    
     29000   29000          699.48368     -1761.9204      27093.486      28531.203      9422.2415      19108.962      4343.7932      6234.2106     -3344.5346      370.41285     -1572.8209      44700.066     -31622.165     -338.01364      55951.421      38.247557      38.247557      38.247557      1.0699661     -1884.357      -2316.0217     -1085.3825    
     30000   30000          695.49006     -1109.6471      27470.139      28374.03       9368.4462      19005.584      4271.5355      6139.4484     -3255.6165      367.50964     -1611.3823      44732.507     -31638.418     -338.60208      55854.186      38.225389      38.225389      38.225389      1.0718288     -209.1192      -2496.8656     -622.9566     
     31000   31000          701.01427      902.93987      29058.783      28319.875      9442.859       18877.016      4217.8597      6085.0062     -3351.3026      285.39808     -1468.8844      44741.357     -31632.419     -337.0463       56112.004      38.284113      38.284113      38.284113      1.066904       1922.82        408.07525      377.92439    
     32000   32000          685.19048      879.0789       28779.884      28062.176      9229.708       18832.468      4228.5045      5997.7914     -3337.6626      362.62371     -1466.53        44680.467     -31632.726     -337.83226      55981.461      38.254401      38.254401      38.254401      1.0693919     -149.19983      2245.7157      540.72085    
     33000   33000          694.49319     -9.9565103      27947.413      27955.646      9355.0182      18600.628      4172.1763      5964.209      -3417.9101      359.26668     -1537.7518      44700.376     -31639.738     -333.54867      56700.402      38.417466      38.417466      38.417466      1.0558324      2449.1142     -1483.0795     -995.90429    
     34000   34000          694.05501     -50.008867      28145.445      28186.734      9349.1157      18837.618      4227.784       6018.5268     -3319.3425      346.2105      -1488.8415      44697.699     -31644.418     -334.07195      56611.588      38.397397      38.397397      38.397397      1.0574888      1121.7335     -1312.616       40.855843    
     35000   35000          707.11956     -480.79797      27975.871      28368.665      9525.0989      18843.566      4237.3608      6092.8507     -3348.546       350.31679     -1563.3273      44697.183     -31622.272     -337.61284      56017.844      38.262687      38.262687      38.262687      1.0686974     -307.61414     -1289.2956      154.51587    
     36000   36000          700.10625      1795.1924      29578.065      28105.673      9430.6277      18675.045      4068.7838      6001.211      -3322.7943      335.64706     -1507.0769      44729.815     -31630.54      -336.28589      56238.885      38.312948      38.312948      38.312948      1.064497       3760.2039     -169.8575       1795.2309    
     37000   37000          717.00986     -1238.4208      27509.075      28540.743      9658.324       18882.419      4238.3051      6015.4288     -3375.9365      374.08817     -1465.3731      44720.932     -31625.025     -331.09258      57121.013      38.512227      38.512227      38.512227      1.0480578     -636.97976     -1252.3151     -1825.9676    
     38000   38000          694.1419       1183.8953      29019.492      28054.606      9350.2862      18704.32       4286.2683      5916.5925     -3367.606       375.81166     -1540.3408      44674.754     -31641.16      -338.42192      55883.92       38.232171      38.232171      38.232171      1.0712585      416.52556      884.64752      2250.5128    
     39000   39000          705.05856     -174.75285      28050.532      28195.95       9497.3366      18698.613      4205.8575      5917.3909     -3449.4865      362.96041     -1407.9288      44691.498     -31621.678     -331.4579       57058.055      38.498073      38.498073      38.498073      1.0492142     -14.349151      121.11089     -631.0203     
     40000   40000          693.10676      13.192462      28078.879      28067.897      9336.3425      18731.554      4190.7161      5905.2893     -3396.0112      311.74655     -1423.971       44760.291     -31616.507     -331.30782      57083.903      38.503885      38.503885      38.503885      1.0487391      170.68932     -524.52065      393.40872    
     41000   41000          698.2184      -361.23719      28106.522      28404.007      9405.1978      18998.809      4271.3411      6101.9953     -3322.9946      356.78048     -1550.4361      44776.941     -31634.818     -334.92583      56467.259      38.364738      38.364738      38.364738      1.0601918     -969.30004     -1316.093       1201.6814    
     42000   42000          691.68365      302.20172      28309.601      28059.84       9317.1729      18742.667      4258.7077      6026.9097     -3502.9708      367.10564     -1473.3732      44707.468     -31641.181     -333.72844      56669.859      38.410566      38.410566      38.410566      1.0564015     -1151.217       2956.8682     -899.04607    
     43000   43000          710.52283      1153.1872      29254.674      28303.844      9570.9419      18732.902      4239.714       6087.8762     -3489.7957      348.07115     -1491.6365      44683.042     -31644.369     -334.51686      56536.293      38.380366      38.380366      38.380366      1.0588972     -500.60652      3835.0907      125.07735    
     44000   44000          704.02516     -752.06088      27587.194      28208.16       9483.4165      18724.744      4285.6941      5979.7295     -3388.7473      327.24256     -1542.8288      44720.166     -31656.513     -334.04576      56616.026      38.3984        38.3984        38.3984        1.0574059     -2407.0028      583.47296     -432.65283    
     45000   45000          697.73093      1799.3309      29521.21       28050.959      9398.6314      18652.328      4118.4887      5989.9634     -3400.1266      341.94589     -1496.1768      44727.991     -31629.758     -337.55215      56027.915      38.26498       38.26498       38.26498       1.0685053      2353.1269      1364.1968      1680.669     
     46000   46000          688.71178     -454.66613      27886.636      28256.418      9277.1409      18979.277      4367.187       6190.262      -3379.8624      337.62024     -1581.8786      44689.833     -31643.884     -339.1319       55766.925      38.205472      38.205472      38.205472      1.0735059     -2283.2153     -1637.303       2556.5199    
     47000   47000          688.34492     -975.09227      27279.716      28077.472      9272.1992      18805.273      4273.2782      6005.6424     -3337.2979      345.90119     -1612.7439      44767.759     -31637.266     -337.12937      56098.178      38.280969      38.280969      38.280969      1.067167      -719.80071      308.47404     -2513.9501    
     48000   48000          702.70077     -1413.5957      26886.455      28043.97       9465.5765      18578.393      4238.1244      5926.083      -3410.4019      328.81206     -1543.2443      44670.883     -31631.863     -336.83694      56146.881      38.292044      38.292044      38.292044      1.0662413     -2281.1444      69.544936     -2029.1877    
     49000   49000          710.00649     -3136.0219      25802.58       28394.875      9563.9867      18830.889      4306.3407      6108.6904     -3451.3977      355.3447      -1531.6772      44677.824     -31634.236     -333.66905      56679.946      38.412845      38.412845      38.412845      1.0562135     -2183.0569     -1315.8465     -5909.1623    
     50000   50000          693.4299      -27.676643      28114.996      28137.286      9340.6954      18796.59       4293.0619      6153.7583     -3405.0006      300.48319     -1635.6908      44727.025     -31637.047     -342.47124      55223.158      38.080889      38.080889      38.080889      1.0840764     -2552.2161      2190.1801      279.00609    
     51000   51000          694.6867      -1625.4094      26812.957      28156.693      9357.6248      18799.068      4405.6797      6148.2072     -3529.5393      312.36209     -1557.6356      44650.627     -31630.633     -333.63388      56685.919      38.414195      38.414195      38.414195      1.0561022     -1476.1029     -2676.8613     -723.26392    
     52000   52000          692.93162      574.82549      28561.481      28083.64       9333.9834      18749.656      4380.9629      5927.3315     -3516.5204      330.05279     -1463.5492      44721.726     -31630.347     -331.79823      56999.531      38.484906      38.484906      38.484906      1.0502915     -625.2864       1094.4623      1255.3006    
     53000   53000          694.46886     -244.94518      27700.784      27901.63       9354.6904      18546.94       4216.4743      5912.7001     -3432.5309      380.8647      -1639.8153      44744.925     -31635.678     -336.37801      56223.483      38.30945       38.30945       38.30945       1.0647886     -445.28612     -2370.2488      2080.6994    
     54000   54000          693.76972     -161.6601       28082.336      28216.976      9345.2729      18871.703      4183.3175      6103.7238     -3390.9606      358.07034     -1458.3737      44700.925     -31624.999     -331.1692       57107.797      38.509257      38.509257      38.509257      1.0483003      466.97498      386.73012     -1338.6854    
     55000   55000          676.62175      488.4552       28230.211      27825.627      9114.2848      18711.342      4020.3699      6125.9362     -3350.8436      298.89404     -1500.505       44757.534     -31640.043     -332.99447      56794.767      38.438766      38.438766      38.438766      1.0540781      82.279163      1493.5164     -110.43001    
     56000   56000          706.2599       2085.0286      30080.601      28364.702      9513.519       18851.183      4287.5624      5872.4443     -3330.9782      349.88687     -1442.672       44735.549     -31620.609     -335.15178      56429.189      38.356114      38.356114      38.356114      1.060907       1300.4573      2215.2988      2739.3296    
     57000   57000          705.68226      925.40296      29165.674      28393.339      9505.7381      18887.6        4296.8851      6068.4875     -3422.6871      340.98963     -1477.5306      44705.608     -31624.152     -330.48079      57226.756      38.535977      38.535977      38.535977      1.0461212      2964.4684     -1613.8803      1425.6208    
     58000   58000          696.42701     -1103.8674      27456.792      28389.114      9381.0672      19008.047      4285.1494      6070.5879     -3412.0101      339.78545     -1441.6876      44786.713     -31620.491     -326.56703      57912.592      38.689312      38.689312      38.689312      1.0337324     -806.62811     -2698.7732      193.79918    
     59000   59000          691.59182      186.61522      28192.33       28036.938      9315.9358      18721.002      4184.7568      5920.4093     -3440.2268      337.23427     -1456.4292      44790.916     -31615.658     -331.23829      57095.885      38.506579      38.506579      38.506579      1.048519       2255.4897     -697.07331     -998.57075    
     60000   60000          690.34583      1924.2909      29660.627      28036.912      9299.152       18737.76       4180.3256      5882.1467     -3414.1281      350.37089     -1350.3942      44725.916     -31636.477     -326.87531      57857.974      38.677145      38.677145      38.677145      1.0347082      3085.2262      1991.2254      696.42112    
     61000   61000          696.00797     -107.66939      28085.988      28173.882      9375.4227      18798.459      4231.7774      5944.0602     -3294.8628      358.74785     -1534.6867      44716.417     -31622.993     -337.87221      55974.842      38.252894      38.252894      38.252894      1.0695184     -262.99585      2343.7362     -2403.7485    
     62000   62000          695.22811     -2528.3096      26119.36       28246.33       9364.9178      18881.412      4335.6923      6021.1662     -3338.9099      316.31453     -1550.8119      44720.103     -31622.142     -327.86119      57683.995      38.638339      38.638339      38.638339      1.037829      -2614.0136     -1787.4226     -3183.4928    
     63000   63000          690.01131      168.47038      28308.435      28168.15       9294.646       18873.504      4234.2565      6034.7831     -3350.5776      342.89361     -1504.3077      44754.696     -31638.24      -331.23306      57096.787      38.506782      38.506782      38.506782      1.0485025     -9.0113984      540.12511     -25.702564    
     64000   64000          691.24799     -873.91324      27253.745      27971.513      9311.3044      18660.208      4181.7506      5885.9397     -3348.7705      391.93949     -1502.5955      44686.274     -31634.33      -335.81921      56317.038      38.330687      38.330687      38.330687      1.0630197     -2982.3331      680.11584     -319.52247    
     65000   65000          682.3724      -1424.986       26656.077      27835.324      9191.7478      18643.576      4079.2461      5896.5206     -3307.3603      336.72778     -1443.0184      44723.837     -31642.377     -333.29351      56743.809      38.427267      38.427267      38.427267      1.0550247     -1014.0055     -3052.9597     -207.99277    
     66000   66000          688.05327      294.94709      28361.756      28120.127      9268.2707      18851.857      4283.7014      6025.7536     -3362.544       335.46661     -1515.6196      44723.969     -31638.87      -336.67977      56173.091      38.298001      38.298001      38.298001      1.0657438     -870.1586       989.71726      765.28261    
     67000   67000          678.61355     -2149.4796      26187.527      27965.498      9141.1149      18824.384      4272.0459      6056.3179     -3421.5474      409.607       -1547.4579      44676.289     -31620.871     -333.44921      56717.313      38.421285      38.421285      38.421285      1.0555176     -1866.7618     -2510.0358     -2071.641     
     68000   68000          687.71701      474.732        28241.075      27850.981      9263.7411      18587.24       4197.5597      6038.2411     -3455.1044      296.70272     -1577.1407      44720.479     -31633.498     -335.66099      56343.585      38.336709      38.336709      38.336709      1.0625189     -757.485        2036.5859      145.09508    
     69000   69000          703.26644     -1325.8615      27236.71       28333.407      9473.1963      18860.21       4391.5864      6083.6907     -3405.7954      313.76759     -1517.8598      44628.734     -31633.913     -333.45147      56716.928      38.421198      38.421198      38.421198      1.0555248     -795.08296     -806.43362     -2376.0679    
     70000   70000          693.93323      531.24901      28542.203      28106.819      9347.4754      18759.343      4165.5805      6117.8446     -3454.0393      358.40088     -1507.0338      44704.427     -31625.836     -336.54771      56195.134      38.30301       38.30301       38.30301       1.0653257      455.29912      1125.0176      13.430335    
     71000   71000          702.1951      -155.72519      27954.166      28083.615      9458.7651      18624.85       4220.6073      5946.0685     -3503.5368      372.78091     -1452.3657      44677.799     -31636.503     -331.80492      56998.382      38.484647      38.484647      38.484647      1.0503127      769.51896     -232.90438     -1003.7901    
     72000   72000          698.71262      792.59496      28965.014      28317.255      9411.855       18905.4        4217.8064      6184.5224     -3369.5984      334.91161     -1568.4448      44737.476     -31631.274     -337.4885       56038.482      38.267385      38.267385      38.267385      1.0683038      3870.7102     -498.59113     -994.33423    
     73000   73000          689.57676      86.785545      28077.826      28005.826      9288.7925      18717.034      4188.7411      5915.9445     -3388.7771      371.76275     -1462.8478      44736.16      -31643.949     -332.4598       56886.106      38.459361      38.459361      38.459361      1.0523857      339.0765       109.72256     -188.44242    
     74000   74000          699.68011      1829.4032      29677.686      28157.846      9424.8875      18732.958      4153.1439      5891.9736     -3330.9676      332.88194     -1416.9007      44747.273     -31644.446     -331.99597      56965.582      38.477264      38.477264      38.477264      1.0509174      3823.4247      1979.2828     -314.49786    
     75000   75000          684.99842      193.08199      28208.503      28048.093      9227.1209      18820.973      4164.8164      5988.2348     -3332.7587      381.92561     -1509.4727      44760.675     -31632.448     -331.99587      56965.599      38.477267      38.477267      38.477267      1.0509171      1917.9162     -1965.3355      626.66527    
     76000   76000          704.29969      962.00188      29140.169      28342.966      9487.1145      18855.851      4196.1349      6034.2581     -3365.7963      344.30803     -1400.581       44686.125     -31638.597     -332.83425      56822.107      38.444933      38.444933      38.444933      1.053571       552.68793      1083.5111      1249.8066    
     77000   77000          693.52638      1682.0302      29422.982      28017.944      9341.995       18675.949      4165.2034      5826.2043     -3349.0768      340.8648      -1378.4836      44711.533     -31640.297     -330.19232      57276.752      38.547196      38.547196      38.547196      1.0452081      3051.9562     -357.95421      2352.0884    
     78000   78000          694.08336     -1520.5767      26907.029      28154.791      9349.4977      18805.293      4296.2183      5956.1061     -3380.8128      313.17213     -1490.6636      44733.06      -31621.787     -336.12265      56266.198      38.319149      38.319149      38.319149      1.0639802     -2340.1667     -1129.7838     -1091.7797    
     79000   79000          684.00597     -2202.8907      26055.822      27902.559      9213.7523      18688.807      4345.1401      5867.607      -3418.773       356.67745     -1524.695       44689.038     -31626.187     -329.0099       57482.597      38.593319      38.593319      38.593319      1.0414652     -2480.4752     -2466.8785     -1661.3183    
     80000   80000          692.11882      1361.9138      29297.101      28169.769      9323.0347      18846.734      4192.6363      5975.963      -3322.9875      337.81581     -1469.2248      44759.441     -31626.91      -333.21065      56757.921      38.430452      38.430452      38.430452      1.0547624      1743.1493     -1121.8912      3464.4833    
     81000   81000          707.70228     -2535.1211      25990.204      28080.96       9532.9483      18548.012      4143.2323      5897.272      -3378.2957      345.32731     -1544.69        44716.776     -31631.61      -334.43877      56549.495      38.383353      38.383353      38.383353      1.05865       -4074.1016     -446.70197     -3084.5597    
     82000   82000          686.24587     -864.65269      27248.109      27962.801      9243.9244      18718.876      4173.0415      6077.4775     -3363.7549      314.58226     -1549.2201      44701.892     -31635.142     -333.69077      56676.256      38.412012      38.412012      38.412012      1.0562822      2619.9272     -2322.7434     -2891.1419    
     83000   83000          700.48338     -257.78148      28001.418      28219.954      9435.7077      18784.247      4149.1585      5972.4468     -3302.1427      378.78924     -1498.7915      44719.65      -31634.863     -325.34871      58129.456      38.737544      38.737544      38.737544      1.0298758      1207.0503     -135.06968     -1845.3251    
     84000   84000          688.84187     -200.4308       27857.652      28021.633      9278.8933      18742.74       4045.7935      5986.7065     -3273.4763      366.4028      -1559.2623      44800.982     -31624.407     -337.12657      56098.644      38.281075      38.281075      38.281075      1.0671581      388.92569     -150.50998     -839.70811    
     85000   85000          698.70867      1745.1592      29717.833      28266.547      9411.8018      18854.745      4233.792       6189.9064     -3466.439       317.25081     -1477.4631      44683.388     -31625.69      -331.66775      57021.954      38.489952      38.489952      38.489952      1.0498785      1692.7736     -1325.2121      4867.916     
     86000   86000          695.57869     -917.19106      27675.529      28443.864      9369.6402      19074.223      4290.3404      6070.3178     -3318.6625      353.84097     -1457.6591      44764.659     -31628.613     -329.25371      57440.031      38.58379       38.58379       38.58379       1.0422369     -1260.1749     -234.39938     -1256.9989    
     87000   87000          685.51895     -467.14485      27467.619      27856.642      9234.1326      18622.509      4088.1349      5983.2473     -3395.4448      350.78425     -1486.9239      44718.865     -31636.153     -331.20581      57101.485      38.507838      38.507838      38.507838      1.0484162     -632.54463     -1421.5744      652.6845     
     88000   88000          698.61699      770.23215      28773.823      28124.913      9410.567       18714.346      4270.5223      5841.5115     -3441.0682      363.73683     -1451.3698      44756.68      -31625.666     -327.38491      57767.915      38.657067      38.657067      38.657067      1.0363213     -364.70196     -333.00804      3008.4064    
     89000   89000          695.11814      152.5341       28328.647      28199.503      9363.4364      18836.066      4284.6226      5916.5172     -3423.8976      353.91846     -1410.1951      44742.352     -31627.251     -325.77076      58054.146      38.720808      38.720808      38.720808      1.0312118      1246.248      -1337.5466      548.9009     
     90000   90000          674.74613     -866.36168      27168.815      27887.975      9089.0197      18798.955      4152.0054      6092.3708     -3389.095       355.43874     -1582.2186      44800.332     -31629.878     -332.27281      56918.119      38.466574      38.466574      38.466574      1.0517938     -1245.9925     -138.13397     -1214.9586    
     91000   91000          705.68977      795.9404       28939.697      28282.372      9505.8392      18776.533      4288.0033      5882.5591     -3396.5405      341.4485      -1446.5634      44749.928     -31642.303     -333.98081      56627.037      38.400889      38.400889      38.400889      1.0572003      2458.5393     -2800.2242      2729.5062    
     92000   92000          693.54878      786.22794      28881.044      28237.79       9342.2967      18895.493      4207.2251      5987.0729     -3242.6041      339.5976      -1525.5624      44769.474     -31639.71      -337.12202      56099.401      38.281247      38.281247      38.281247      1.0671437      1150.5819      1312.4405     -104.33854    
     93000   93000          684.83814     -107.71306      27781.552      27869.706      9224.9619      18644.744      4255.3403      5885.579      -3427.4728      312.9134      -1551.5297      44775.309     -31605.396     -337.01653      56116.961      38.285241      38.285241      38.285241      1.0668098     -898.74139      1303.7175     -728.11533    
     94000   94000          686.78099     -4213.1442      24597.672      28102.605      9251.1327      18851.472      4241.7151      6006.9805     -3307.9335      338.27675     -1511.5859      44720.276     -31636.256     -331.54912      57042.357      38.494542      38.494542      38.494542      1.0495029     -3927.5577     -2990.7519     -5721.123     
     95000   95000          692.15527      1646.7303      29510.874      28153.777      9323.5257      18830.251      4180.8129      6023.3739     -3383.3007      358.67117     -1510.4492      44784.71      -31623.567     -334.68231      56508.346      38.374041      38.374041      38.374041      1.0594209      3763.5546      1685.3532     -508.71686    
     96000   96000          689.37086     -3522.8235      25024.364      27953.625      9286.019       18667.606      4257.2978      5912.3597     -3343.1542      337.445       -1563.255       44699.365     -31632.453     -331.70662      57015.272      38.488448      38.488448      38.488448      1.0500015     -3254.7782     -2377.4659     -4936.2264    
     97000   97000          696.96773      2611.9357      30014.921      27901.316      9388.3509      18512.965      4115.7441      5930.9066     -3436.2519      331.63057     -1523.3526      44720.751     -31626.462     -340.84743      55486.243      38.141266      38.141266      38.141266      1.0789363      3535.0007      714.99466      3585.8117    
     98000   98000          689.39027      1264.6892      29109.238      28073.295      9286.2804      18787.015      4200.0433      6064.4938     -3373.6247      343.88085     -1512.1782      44711.777     -31647.378     -336.72014      56166.357      38.296471      38.296471      38.296471      1.0658716      1128.5066      1457.9374      1207.6236    
     99000   99000          686.09467     -226.55775      27707.881      27894.248      9241.8877      18652.36       4243.7776      5935.5897     -3408.162       310.84991     -1557.3455      44761.727     -31634.077     -335.29896      56404.421      38.350502      38.350502      38.350502      1.0613729     -783.51745      1084.1415     -980.29728    
    100000   100000         686.22302     -805.14882      27216.341      27885.179      9243.6167      18641.563      4345.1395      5905.5592     -3493.2657      344.94125     -1497.4648      44682.797     -31646.144     -332.02909      56959.899      38.475984      38.475984      38.475984      1.0510223     -1170.3073     -39.026613     -1206.1126    
    101000   101000         696.30821      1815.6244      29716.858      28231.34       9379.4669      18851.873      4308.04        6061.5857     -3400.6849      329.53232     -1525.8874      44730.874     -31651.587     -337.10811      56101.716      38.281773      38.281773      38.281773      1.0670997      2118.6164      755.69092      2572.5659    
    102000   102000         682.85431     -785.74427      27312.127      27966.367      9198.2392      18768.128      4306.5504      6114.4978     -3510.7417      321.44624     -1557.6829      44742.844     -31648.786     -331.25703      57092.655      38.505853      38.505853      38.505853      1.0485783      190.3336       753.57074     -3301.1371    
    103000   103000         691.22801      1212.3451      29064.619      28075.928      9311.0352      18764.893      4189.1719      6109.3406     -3359.768       344.12907     -1569.9189      44693.971     -31642.032     -338.21058      55918.84       38.240132      38.240132      38.240132      1.0705895      443.16604      990.62204      2203.2473    
    104000   104000         678.59777      1088.7081      28462.55       27584.281      9140.9024      18443.378      4112.2715      5788.9473     -3383.9593      342.21934     -1560.3791      44794.405     -31650.127     -341.90464      55314.673      38.101913      38.101913      38.101913      1.0822829      1642.8413      3131.2792     -1507.9962    
    105000   105000         689.93657     -304.48534      27735.652      27984.41       9293.6392      18690.771      4191.3845      5966.2039     -3431.7811      364.11684     -1549.6423      44776.122     -31625.633     -337.60628      56018.933      38.262935      38.262935      38.262935      1.0686766      234.29094     -1353.5046      205.75764    
    106000   106000         695.7374      -1357.8275      26905.725      28017.906      9371.778       18646.128      4309.5992      5924.9962     -3472.107       365.81287     -1569.195       44739.098     -31652.076     -336.73693      56163.556      38.295834      38.295834      38.295834      1.0659247     -783.4473      -421.58415     -2868.4511    
    107000   107000         702.53444      108.77481      28157.674      28068.146      9463.336       18604.81       4169.9538      5947.142      -3427.7448      392.46378     -1554.0159      44722.222     -31645.211     -335.11385      56435.577      38.357561      38.357561      38.357561      1.0607869      1061.2695      671.43341     -1406.3784    
    108000   108000         693.56677     -293.70428      28014.806      28256.323      9342.539       18913.784      4287.4353      6167.9285     -3425.1062      347.60484     -1504.43        44686.542     -31646.19      -335.41575      56384.781      38.34605       38.34605       38.34605       1.0617426      539.77294     -2479.0625      1058.1767    
    109000   109000         682.70172      675.48168      28525.463      27976.023      9196.1838      18779.839      4234.0979      5998.4859     -3306.0404      379.04534     -1537.4457      44655.155     -31643.459     -339.08954      55773.893      38.207063      38.207063      38.207063      1.0733718     -28.188417      425.97014      1628.6633    
    110000   110000         691.08236      1656.9218      29337.487      27952.017      9309.0734      18642.944      4259.7197      5851.3618     -3467.7325      348.18303     -1382.8014      44691.831     -31657.617     -329.85731      57334.923      38.560241      38.560241      38.560241      1.0441476      1911.1041      391.37502      2668.2861    
    111000   111000         695.62069      42.437056      27925.165      27890.319      9370.2059      18520.113      4192.6706      5942.7041     -3494.9762      324.0602      -1528.5514      44717.565     -31633.359     -335.89994      56303.503      38.327616      38.327616      38.327616      1.0632753      1390.8502     -150.42807     -1113.111     
    112000   112000         688.95886     -1267.8404      26887.547      27929.569      9280.4692      18649.1        4160.9946      6019.4769     -3419.9221      353.92922     -1570.9556      44740.909     -31635.332     -335.58987      56355.525      38.339417      38.339417      38.339417      1.0622938     -1434.8916     -858.1408      -1510.4887    
    113000   113000         695.27348     -56.57453       27915.084      27961.636      9365.5289      18596.107      4177.2979      5875.7392     -3440.81        346.31005     -1479.2483      44753.831     -31637.013     -335.20108      56420.89       38.354234      38.354234      38.354234      1.0610631      968.46682     -1026.6161     -111.57436    
    114000   114000         690.8794       2408.5918      30029.901      28012.675      9306.3394      18706.336      4071.542       6015.7176     -3470.0746      330.30899     -1374.6129      44764.42      -31630.966     -329.32885      57426.925      38.580856      38.580856      38.580856      1.0424748      1138.3318      1828.3313      4259.1123    
    115000   115000         705.31285     -1519.3716      26858.37       28106.878      9500.762       18606.116      4214.0335      5966.438      -3447.1441      345.28517     -1524.1161      44678.744     -31627.125     -335.6556       56344.49       38.336914      38.336914      38.336914      1.0625018     -371.04785     -3086.9502     -1100.1167    
    116000   116000         698.30349      1398.0942      29329.198      28173.102      9406.344       18766.758      4281.2553      5888.6106     -3340.3548      365.54837     -1490.7583      44694.507     -31632.05      -333.55218      56699.805      38.417331      38.417331      38.417331      1.0558435      2857.7296      466.19639      870.35663    
    117000   117000         693.27398      1234.0943      29022.191      28005.258      9338.5951      18666.663      4182.3479      6116.2997     -3490.5134      349.75159     -1538.9986      44674.478     -31626.702     -334.71645      56502.581      38.372736      38.372736      38.372736      1.059529       1642.4816      595.88446      1463.9168    
    118000   118000         684.92045     -617.21871      27386.192      27898.115      9226.0707      18672.044      4212.7127      6010.5511     -3416.414       323.10509     -1552.7068      44723.26      -31628.464     -332.54864      56870.908      38.455936      38.455936      38.455936      1.0526669      907.00744     -809.34022     -1949.3233    
    119000   119000         705.61062     -256.19033      27948.493      28159.745      9504.7731      18654.972      4160.7185      5931.7395     -3359.8414      344.51196     -1515.3109      44715.66      -31622.506     -334.49059      56540.735      38.381371      38.381371      38.381371      1.058814      -1428.2531      3001.3644     -2341.6823    
    120000   120000         683.65023     -158.57522      27741.892      27873.914      9208.9604      18664.953      4249.9643      5894.0507     -3370.0623      332.74409     -1553.4423      44743.099     -31631.4       -331.29245      57086.552      38.504481      38.504481      38.504481      1.0486905      475.29257     -1564.4067      613.38853    
    121000   121000         678.99733      2587.232       29827.799      27747.396      9146.2846      18601.111      4243.2235      5903.2152     -3433.8467      324.06451     -1484.1128      44686.505     -31637.938     -343.01182      55136.128      38.060874      38.060874      38.060874      1.0857876      2692.4289      2467.4662      2601.8009    
    122000   122000         688.29148     -449.2521       27624.532      27996.266      9271.4794      18724.786      4272.4864      6035.2306     -3466.3306      312.81983     -1502.6611      44718.422     -31645.181     -333.33406      56736.907      38.425709      38.425709      38.425709      1.0551531     -1732.2526      796.90537     -412.4091     
    123000   123000         674.16476     -685.71614      27024.188      27580.743      9081.1884      18499.555      4154.3228      5986.9414     -3358.6724      324.1518      -1662.1818      44696.949     -31641.956     -339.82631      55652.97       38.179431      38.179431      38.179431      1.075704       404.93473     -2170.2556     -291.82759    
    124000   124000         699.96549     -4.4955843      28008.089      28011.824      9428.7316      18583.092      4247.5844      5973.1751     -3522.2408      336.49234     -1558.0144      44738.019     -31631.924     -332.04649      56956.914      38.475312      38.475312      38.475312      1.0510774     -388.38513      51.42588       323.4725     
    125000   125000         686.70029      246.42868      28375.661      28172.586      9250.0457      18922.54       4340.6084      6096.0619     -3427.7468      354.50486     -1523.871       44719.638     -31636.655     -334.69929      56505.477      38.373391      38.373391      38.373391      1.0594747     -1452.9528      619.96585      1572.273     
    126000   126000         687.00063      3276.1516      30563.442      27865.438      9254.0913      18611.346      4148.1017      5959.2356     -3471.0109      323.79898     -1466.388       44747.227     -31629.618     -334.92108      56468.059      38.364919      38.364919      38.364919      1.0601767      4611.8399      2795.4633      2421.1516    
    127000   127000         677.82811     -490.36625      27367.106      27777.149      9130.5348      18646.614      4199.8587      5940.0612     -3426.0734      322.33355     -1493.2665      44751.753     -31648.053     -329.84697      57336.72       38.560644      38.560644      38.560644      1.0441149     -700.39999      547.51074     -1318.2095    
    128000   128000         701.97404      2206.9581      30160.032      28322.949      9455.7873      18867.162      4227.4449      6073.2383     -3370.8034      344.72774     -1513.8173      44735.582     -31629.21      -331.34974      57076.682      38.502261      38.502261      38.502261      1.0488718      402.19021      3908.4099      2310.2743    
    129000   129000         688.47123     -749.24092      27254.848      27871.428      9273.9007      18597.527      4280.283       5850.8568     -3461.6569      356.46485     -1494.1119      44700.604     -31634.912     -335.16064      56427.698      38.355776      38.355776      38.355776      1.060935      -189.33535     -2732.785       674.39761    
    130000   130000         690.75765     -652.74883      27211.535      27744.552      9304.6994      18439.852      4182.5908      5742.2232     -3356.6591      320.0172      -1548.7559      44736.371     -31635.935     -337.77423      55991.078      38.256592      38.256592      38.256592      1.0692082      700.65506      1249.1918     -3908.0934    
    131000   131000         706.18463      620.13119      28753.697      28236.277      9512.5051      18723.772      4176.8298      5925.6047     -3305.1909      336.74765     -1491.3995      44717.655     -31636.474     -330.56894      57211.495      38.532551      38.532551      38.532551      1.0464002      246.40268     -711.3755       2325.3664    
    132000   132000         686.95853      414.35692      28171.532      27830.46       9253.5241      18576.936      4064.5113      5995.1485     -3359.9064      361.96869     -1593.2907      44743.866     -31635.362     -335.08085      56441.135      38.358821      38.358821      38.358821      1.0606825      2001.6119     -192.06314     -566.47798    
    133000   133000         703.38442     -3121.6266      25697.435      28327.95       9474.7855      18853.164      4272.7551      6133.2291     -3485.3307      320.06315     -1485.6097      44723.954     -31625.897     -327.31171      57780.833      38.659948      38.659948      38.659948      1.0360896     -5370.7235     -2819.3616     -1174.7947    
    134000   134000         685.83376      102.03388      27999.779      27916.476      9238.3732      18678.103      4106.5138      5905.0157     -3315.8852      309.444       -1465.0379      44779.632     -31641.579     -337.83408      55981.159      38.254332      38.254332      38.254332      1.0693977      937.82652     -1870.7335      1239.0086    
    135000   135000         696.96089     -407.70181      27825.181      28162.17       9388.2588      18773.911      4249.1615      6028.7632     -3382.7289      333.13228     -1520.2076      44698.832     -31633.042     -333.69461      56675.604      38.411864      38.411864      38.411864      1.0562944     -713.39283     -324.71307     -184.99955    
    136000   136000         666.79073     -691.59606      27178.707      27745.178      8981.8583      18763.32       4232.6172      5911.8485     -3366.9335      338.32888     -1480.2933      44761.469     -31633.716     -336.74096      56162.883      38.295681      38.295681      38.295681      1.0659375      134.85454     -1658.3422     -551.30052    
    137000   137000         696.25766     -446.1351       27539.613      27905.861      9378.7861      18527.075      4093.1577      5940.7325     -3411.6009      392.55533     -1597.3896      44738.239     -31628.619     -335.97895      56290.263      38.324611      38.324611      38.324611      1.0635254     -53.51773       424.36148     -1709.2491    
    138000   138000         696.33256     -1866.2163      26578.284      28141.92       9379.795       18762.125      4223.9216      5932.8748     -3335.5213      303.73479     -1458.0866      44718.629     -31623.428     -329.19073      57451.02       38.586251      38.586251      38.586251      1.0420376     -1524.8979     -1709.6611     -2364.0898    
    139000   139000         690.32994     -152.26076      27633.699      27758.805      9298.938       18459.867      4091.4284      5874.3019     -3422.339       311.27561     -1495.926       44730.85      -31629.724     -335.68366      56339.78       38.335846      38.335846      38.335846      1.0625906      1423.6512     -1455.025      -425.40854    
    140000   140000         691.22724     -60.977718      27824.304      27874.372      9311.0249      18563.347      4092.2046      5884.5023     -3387.5632      348.88311     -1548.286       44815.155     -31641.548     -335.91567      56300.866      38.327018      38.327018      38.327018      1.0633251     -721.94459      1286.9592     -747.94781    
    141000   141000         692.2898      -384.70064      27712.004      28027.082      9325.3379      18701.744      4191.9238      5949.2575     -3455.3352      359.79736     -1498.0869      44789.101     -31634.914     -336.76411      56159.023      38.294804      38.294804      38.294804      1.0660108      1128.7322     -3866.9561      1584.122     
    142000   142000         673.04994      1029.5156      28543.74       27704.513      9066.1715      18638.341      4337.5637      5848.5295     -3444.5142      346.48279     -1505.3112      44694.469     -31638.878     -338.35649      55894.726      38.234634      38.234634      38.234634      1.0710514      374.16537      2357.8723      356.50926    
    143000   143000         666.60486     -1574.4771      26453.012      27752.055      8979.3545      18772.701      4464.0922      5994.6462     -3515.4197      333.33678     -1530.5074      44670.331     -31643.778     -334.29813      56573.285      38.388735      38.388735      38.388735      1.0582048     -3972.1786      3.0856623     -754.33839    
    144000   144000         684.87603      487.40583      28308.381      27910.207      9225.4723      18684.734      4098.8323      6069.0559     -3429.5352      332.51988     -1537.9594      44781.443     -31629.622     -337.62857      56015.234      38.262093      38.262093      38.262093      1.0687472      396.86268      1614.6434     -549.28854    
    145000   145000         684.10854     -375.27588      27768.363      28071.241      9215.134       18856.107      4261.3922      6149.1113     -3441.8296      384.144       -1553.0055      44701.891     -31645.596     -341.74624      55340.312      38.107799      38.107799      38.107799      1.0817814     -1764.6092     -285.68697      924.46847    
    146000   146000         693.28857      979.34083      28991.53       28189.523      9338.7916      18850.732      4237.9692      6057.6609     -3317.0245      367.60237     -1538.851       44693.559     -31650.185     -336.80399      56152.373      38.293292      38.293292      38.293292      1.066137      -1986.2921      3793.0153      1131.2993    
    147000   147000         676.34789     -899.85502      26997.686      27748.925      9110.5958      18638.329      4272.9835      5917.8509     -3475.7978      329.69551     -1493.8054      44725.885     -31638.482     -330.38143      57243.966      38.53984       38.53984       38.53984       1.0458067     -2068.0543      857.08975     -1488.6005    
[...]
    955000   955000         609.15081      901.00677      26475.905      25759.695      8205.4324      17554.263      3836.1866      5643.9723     -3582.7517      295.29911     -1673.4503      44692.076     -31657.069     -346.98374      54504.984      37.915088      37.915088      37.915088      1.0983605     -914.67027      746.68405      2871.0065    
    956000   956000         624.27239      464.83292      26332.149      25957.295      8409.1243      17548.171      3856.4018      5586.4144     -3616.472       278.91449     -1592.6732      44699.162     -31663.576     -342.02329      55295.484      38.097507      38.097507      38.097507      1.0826584      560.65724      1311.3447     -477.50316    
    957000   957000         627.99802      186.78217      26085.759      25937.684      8459.3095      17478.375      3783.8596      5618.9102     -3511.1415      285.34586     -1770.613       44725.5       -31653.487     -347.91743      54358.712      37.881141      37.881141      37.881141      1.101316       1539.2004      206.5187      -1185.3726    
    958000   958000         619.19318     -2413.9268      23916.234      25857.67       8340.7058      17516.964      3894.2691      5587.9622     -3550.7377      292.24352     -1676.3822      44619.254     -31649.645     -342.94333      55147.139      38.063407      38.063407      38.063407      1.0855708     -1538.545      -1704.6036     -3998.6318    
    959000   959000         633.07079     -449.95954      25703.027      26061.2        8527.6412      17533.559      3808.8828      5691.1162     -3573.635       285.3166      -1684.1951      44653.986     -31647.913     -346.49879      54581.269      37.932769      37.932769      37.932769      1.0968254     -489.13218      448.93828     -1309.6847    
    960000   960000         620.31254     -3089.5076      23338.951      25807.241      8355.784       17451.457      3916.0704      5520.3193     -3619.1917      306.04861     -1680.59        44662.909     -31654.109     -345.23461      54781.135      37.979013      37.979013      37.979013      1.0928237     -2890.9306     -3475.6213     -2901.9708    
    961000   961000         617.91052      304.27492      25962.575      25721.655      8323.4281      17398.227      3888.1121      5553.2333     -3614.8973      284.15445     -1728.2854      44664.124     -31648.214     -348.3491       54291.352      37.865487      37.865487      37.865487      1.1026825      1142.042       333.98209     -563.19937    
    962000   962000         620.04742      580.26523      26265.232      25801.653      8352.2127      17449.44       3887.3211      5652.7213     -3695.0422      284.0744      -1671.3065      44655.85      -31664.178     -345.24233      54779.908      37.97873       37.97873       37.97873       1.0928482      765.854        1130.5286     -155.58694    
    963000   963000         627.8501       243.42716      26296.614      26101.163      8457.3171      17643.846      4053.675       5702.7547     -3681.7111      310.49378     -1675.9182      44592.981     -31658.429     -343.51987      55054.583      38.042101      38.042101      38.042101      1.0873958     -424.90726     -182.89628      1338.085     
    964000   964000         629.42245     -1089.1785      25034.09       25898.874      8478.4971      17420.377      3794.5653      5515.6531     -3517.4707      326.78025     -1709.1817      44663.717     -31653.686     -347.38642      54441.804      37.900433      37.900433      37.900433      1.0996352     -513.47691     -2458.5544     -295.50417    
    965000   965000         625.95722      1068.4799      26694.471      25849.563      8431.8194      17417.744      3820.3115      5532.5378     -3494.1448      321.26086     -1752.2247      44655.965     -31665.962     -348.80148      54220.938      37.84911       37.84911       37.84911       1.1041145      788.12271      1790.5608      626.75614    
    966000   966000         621.31771     -707.54586      25512.62       26079.353      8369.3239      17710.029      3960.3638      5634.6923     -3591.1072      290.18095     -1656.7759      44723.217     -31650.541     -344.34752      54922.259      38.011598      38.011598      38.011598      1.0900157     -1096.5247     -2122.2277      1096.1148    
    967000   967000         614.99708      722.53005      26428.795      25847.742      8284.1832      17563.559      3896.5267      5554.4758     -3577.4724      323.80131     -1648.5086      44676.888     -31662.151     -342.97467      55142.1        38.062248      38.062248      38.062248      1.08567        3112.4403     -1599.6255      654.77537    
    968000   968000         620.87439      566.70758      26558.889      26094.322      8363.3523      17730.969      3970.4579      5532.8831     -3616.9304      320.29258     -1543.4146      44712.788     -31645.107     -336.45872      56209.997      38.306387      38.306387      38.306387      1.065044       674.6473      -1678.5374      2704.0128    
    969000   969000         616.74514     -845.35222      25329.332      26014.965      8307.7301      17707.235      3902.9374      5645.2678     -3579.4377      318.54439     -1596.4011      44663.182     -31646.858     -340.06916      55613.228      38.170341      38.170341      38.170341      1.0764727      141.18065     -1376.9816     -1300.2557    
    970000   970000         619.90485     -3173.9868      23442.865      25978.917      8350.2923      17628.625      3959.2765      5559.9875     -3548.7202      340.88447     -1668.6406      44643.536     -31657.699     -345.19786      54786.966      37.980361      37.980361      37.980361      1.0927074     -5509.8621     -2607.5614     -1404.5368    
    971000   971000         633.35315     -868.495        25473.658      26178.311      8531.4446      17646.866      3890.0084      5619.8471     -3606.7144      322.06521     -1616.8458      44689.223     -31650.717     -339.94896      55632.891      38.174839      38.174839      38.174839      1.0760922     -2079.1357     -184.62887     -341.72045    
    972000   972000         619.55357     -1412.4058      24682.26       25816.803      8345.5604      17471.243      3794.0669      5616.6652     -3658.4893      320.30002     -1696.2032      44734.652     -31639.749     -343.36797      55078.939      38.04771       38.04771       38.04771       1.086915      -2173.8555      1343.297      -3406.6589    
    973000   973000         628.32673      604.48687      26458.053      25977.941      8463.7373      17514.204      3964.6336      5561.4313     -3603.1505      312.23368     -1751.0506      44692.61      -31662.503     -347.26855      54460.283      37.90472       37.90472       37.90472       1.099262      -313.25796     -241.85274      2368.5713    
    974000   974000         610.31188     -176.59147      25478.619      25619.29       8221.0722      17398.218      3846.0889      5653.3893     -3694.9932      294.56192     -1766.7056      44716.4       -31650.524     -346.24652      54621.035      37.941979      37.941979      37.941979      1.0960269      471.42286     -44.334594     -956.86267    
    975000   975000         616.77691      505.14053      26150.345      25749.62       8308.158       17441.461      3864.5795      5566.8748     -3619.5208      319.03463     -1676.5328      44660.085     -31673.059     -347.68531      54395.002      37.889569      37.889569      37.889569      1.1005813      779.31992     -80.187301      816.28897    
    976000   976000         623.17511     -1354.99        24741.204      25816.066      8394.3436      17421.723      3894.0494      5730.5779     -3708.3617      303.72301     -1798.082       44650.917     -31651.101     -347.69985      54392.729      37.889041      37.889041      37.889041      1.1006273     -1572.063      -362.20621     -2130.7006    
    977000   977000         630.52177      373.89241      26338.586      26038.417      8493.3052      17545.112      3970.9391      5662.0239     -3614.1421      286.82801     -1725.9806      44633.018     -31667.574     -343.55988      55048.173      38.040624      38.040624      38.040624      1.0875224     -940.87159     -1595.5409      3658.0897    
    978000   978000         616.29734      1641.2631      26954.582      25662.012      8301.6981      17360.314      3812.7233      5487.3174     -3550.2692      312.08916     -1670.6799      44631.905     -31662.772     -350.22356      54000.774      37.797812      37.797812      37.797812      1.108616       2526.5437      605.01973      1792.2259    
    979000   979000         612.23395      600.26118      26113.849      25642.634      8246.9631      17395.671      3769.8339      5646.4609     -3585.2289      292.8179      -1691.2736      44639.27      -31676.209     -351.35197      53827.344      37.757305      37.757305      37.757305      1.1121879     -1502.8542      593.27543      2710.3624    
    980000   980000         634.85214      121.75079      26228.562      26131.189      8551.6365      17579.553      3901.4414      5586.8358     -3585.3812      303.63501     -1685.952       44722.16      -31663.186     -344.86913      54839.189      37.992424      37.992424      37.992424      1.0916668     -2369.3405      722.47155      2012.1213    
    981000   981000         612.1916      -647.56573      25080.3        25592.957      8246.3927      17346.565      3806.6945      5606.857      -3587.8756      295.43421     -1746.1532      44635.651     -31664.043     -348.40006      54283.411      37.863641      37.863641      37.863641      1.1028438      1585.6784     -3636.4048      108.0292     
    982000   982000         626.16114      1154.6499      26873.058      25954.857      8434.5662      17520.291      3799.2915      5640.3809     -3539.2353      339.24925     -1700.8738      44654.183     -31672.705     -346.84364      54527.001      37.920193      37.920193      37.920193      1.097917       427.78355      1734.5428      1301.6234    
    983000   983000         623.35195      97.01161       25870.084      25792.345      8396.7257      17395.619      3923.333       5473.4359     -3645.097       303.54069     -1654.1488      44672.319     -31677.764     -344.19703      54946.271      38.017137      38.017137      38.017137      1.0895393      3098.2069     -131.64193     -2675.5302    
    984000   984000         636.96731      1760.061       27618.482      26216.589      8580.1284      17636.461      3951.324       5611.7439     -3553.8767      302.47416     -1646.8871      44631.52      -31659.838     -346.28542      54614.9        37.940558      37.940558      37.940558      1.09615        1152.8859      805.88961      3321.4075    
    985000   985000         622.43765      42.696173      26011.944      25977.383      8384.4098      17592.973      3905.7539      5679.7927     -3640.7276      322.1641      -1654.7856      44635.403     -31654.628     -340.73575      55504.43       38.145433      38.145433      38.145433      1.0785828     -1099.9576     -1019.576       2247.6221    
    986000   986000         627.61618      350.91376      26144.487      25858.896      8454.1661      17404.73       3848.5508      5553.1678     -3617.8516      305.88665     -1658.4213      44636.686     -31663.288     -338.90412      55804.407      38.214029      38.214029      38.214029      1.0727848      1448.5845      622.17774     -1018.0209    
    987000   987000         621.10556     -210.82044      25794.236      25962.035      8366.4662      17595.569      3861.3664      5753.1352     -3548.7058      307.82955     -1762.9839      44646.552     -31661.625     -346.53335      54575.824      37.931507      37.931507      37.931507      1.0969348     -1305.2865      360.03977      312.78544    
    988000   988000         608.05439     -885.34699      25179.209      25893.769      8190.6632      17703.106      3860.1676      5553.2774     -3476.2299      329.67539     -1599.2012      44699.493     -31664.076     -341.74016      55341.297      38.108025      38.108025      38.108025      1.0817622      818.2638      -1609.2453     -1865.0595    
    989000   989000         630.22703     -1549.746       24545.502      25775.837      8489.335       17286.502      3736.9533      5626.0634     -3571.8848      320.30166     -1780.8972      44614.339     -31658.373     -347.42289      54436.089      37.899107      37.899107      37.899107      1.0997506     -3204.4753     -552.20973     -892.553      
    990000   990000         622.19605     -1170.1287      24987.631      25912.243      8381.1553      17531.088      3922.2777      5617.4871     -3573.8256      293.30754     -1717.6032      44650.201     -31660.756     -349.05592      54181.414      37.839912      37.839912      37.839912      1.1049199      78.413641     -1064.486      -2524.3136    
    991000   991000         621.17619      849.24561      26450.777      25774.705      8367.4175      17407.288      3806.7612      5669.2854     -3589.8502      285.15884     -1744.6076      44639.204     -31658.664     -346.46698      54586.279      37.933929      37.933929      37.933929      1.0967247     -580.70227      2505.946       622.49308    
    992000   992000         617.76936      2103.1137      27459.854      25804.051      8321.5266      17482.524      3934.6163      5567.7448     -3614.6976      344.76207     -1764.7398      44665.751     -31650.913     -350.32831      53984.628      37.794045      37.794045      37.794045      1.1089476      3582.5551      263.99676      2462.7892    
    993000   993000         612.11757     -914.95804      24843.06       25567.619      8245.3955      17322.223      3781.7324      5468.2383     -3470.3741      304.14941     -1774.9018      44672.393     -31659.014     -348.29636      54299.573      37.867399      37.867399      37.867399      1.1025155     -795.20655     -2622.3615      672.69389    
    994000   994000         622.46566     -1744.589       24576.342      25962.847      8384.7871      17578.06       3920.6378      5712.5175     -3569.0782      328.1937      -1812.938       44637.702     -31638.975     -347.05068      54494.472      37.912651      37.912651      37.912651      1.0985724     -2688.0587     -1801.3865     -744.32177    
    995000   995000         614.5985      -1111.7373      24852.572      25731.366      8278.8143      17452.551      3887.3232      5522.6453     -3505.373       351.51653     -1762.6615      44617.282     -31658.181     -348.92844      54201.209      37.844519      37.844519      37.844519      1.1045164      970.67795     -4038.9474     -266.94242    
    996000   996000         630.65593      713.18494      26551.647      25984.578      8495.1124      17489.466      3912.4153      5472.155      -3497.1434      297.7553      -1739.1067      44702.298     -31658.908     -346.88647      54520.269      37.918632      37.918632      37.918632      1.0980526      664.03843      2416.153      -940.63664    
    997000   997000         635.48859      1550.1103      27226.411      25993.809      8560.2097      17433.599      3844.2307      5509.6969     -3506.8139      337.84244     -1786.2566      44698.306     -31663.406     -346.86552      54523.561      37.919395      37.919395      37.919395      1.0979863      2645.6313      1916.1036      88.596112    
    998000   998000         613.73075      116.49835      25907.605      25814.223      8267.1255      17547.097      3910.8094      5533.4504     -3551.3836      305.63778     -1670.8987      44672.242     -31652.761     -344.09314      54962.861      38.020963      38.020963      38.020963      1.0892104     -1227.9048      1725.1508     -147.75096    
    999000   999000         616.05331      1432.1213      26672.512      25552.44       8298.4109      17254.03       3675.009       5544.3316     -3468.1171      311.82157     -1751.0085      44613.097     -31671.104     -352.65931      53627.802      37.71059       37.71059       37.71059       1.1163262     -26.870468      2798.3376      1524.8967    
   1000000   1000000        631.22285      1741.5409      27240.701      25853.618      8502.749       17350.87       3815.4839      5445.0715     -3559.7117      311.65037     -1667.6787      44659.826     -31653.772     -346.30014      54612.578      37.94002       37.94002       37.94002       1.0961966      2194.8926      329.98856      2699.7416    
Loop time of 3703.62 on 1 procs for 1000000 steps with 4520 atoms

Performance: 23.329 ns/day, 1.029 hours/ns, 270.006 timesteps/s, 1.220 Matom-step/s
100.0% CPU use with 1 MPI tasks x 1 OpenMP threads

MPI task timing breakdown:
Section |  min time  |  avg time  |  max time  |%varavg| %total
---------------------------------------------------------------
Pair    | 971.56     | 971.56     | 971.56     |   0.0 | 26.23
Bond    | 605.17     | 605.17     | 605.17     |   0.0 | 16.34
Kspace  | 1234.2     | 1234.2     | 1234.2     |   0.0 | 33.32
Neigh   | 344.93     | 344.93     | 344.93     |   0.0 |  9.31
Comm    | 51.535     | 51.535     | 51.535     |   0.0 |  1.39
Output  | 9.9037     | 9.9037     | 9.9037     |   0.0 |  0.27
Modify  | 290.42     | 290.42     | 290.42     |   0.0 |  7.84
Other   |            | 195.9      |            |       |  5.29

Nlocal:           4520 ave        4520 max        4520 min
Histogram: 1 0 0 0 0 0 0 0 0 0
Nghost:          14341 ave       14341 max       14341 min
Histogram: 1 0 0 0 0 0 0 0 0 0
Neighs:              0 ave           0 max           0 min
Histogram: 1 0 0 0 0 0 0 0 0 0
FullNghs:  2.38231e+06 ave 2.38231e+06 max 2.38231e+06 min
Histogram: 1 0 0 0 0 0 0 0 0 0

Total # of neighbors = 2382308
Ave neighs/atom = 527.05929
Ave special neighs/atom = 5.5353982
Neighbor list builds = 60471
Dangerous builds = 0

# --- Cleanup ---
unfix npt_fix

undump dump_npt

# --- Write Output ---
write_dump all custom npt_cool_last.dump id type mol x y z xu yu zu vx vy vz modify sort id
write_data /home/arz2/PolyJarvis/data/PLA4/lammps/equil/npt_cool/npt_cool_out.data
System init for write_data ...
PPPM Kokkos initialization ...
  using 12-bit tables for long-range coulomb
  G vector (1/distance) = 0.34043222
  grid = 45 45 45
  stencil order = 5
  estimated absolute RMS force accuracy = 0.0002790072
  estimated relative force accuracy = 8.4022188e-07
  using double precision cuFFT
  3d grid and FFT values/proc = 140608 91125
Generated 21 of 21 mixed pair_coeff terms from sixthpower/sixthpower mixing rule

print "STAGE COMPLETE: NPT T=700.0->620.0K P=1.0->1.0atm steps=1000000"
STAGE COMPLETE: NPT T=700.0->620.0K P=1.0->1.0atm steps=1000000
quit
         |       |  5.29

Nlocal:           4520 ave        4520 max        4520 min
Histogram: 1 0 0 0 0 0 0 0 0 0
Nghost:          14341 ave       14341 max       14341 min
Histogram: 1 0 0 0 0 0 0 0 0 0
Neighs:              0 ave           0 max           0 min
Histogram: 1 0 0 0 0 0 0 0 0 0
FullNghs:  2.38231e+06 ave 2.38231e+06 max 2.38231e+06 min
Histogram: 1 0 0 0 0 0 0 0 0 0

Total # of neighbors = 2382308
Ave neighs/atom = 527.05929
Ave special neighs/atom = 5.5353982
Neighbor list builds = 60471
Dangerous builds = 0
System init for write_data ...
PPPM Kokkos initialization ...
  using 12-bit tables for long-range coulomb
  G vector (1/distance) = 0.34043222
  grid = 45 45 45
  stencil order = 5
  estimated absolute RMS force accuracy = 0.0002790072
  estimated relative force accuracy = 8.4022188e-07
  using double precision cuFFT
  3d grid and FFT values/proc = 140608 91125
Generated 21 of 21 mixed pair_coeff terms from sixthpower/sixthpower mixing rule
STAGE COMPLETE: NPT T=700.0->620.0K P=1.0->1.0atm steps=1000000
