LAMMPS data file via write_data, version 22 Jul 2025, timestep = 2000000, units = real

10820 atoms
8 atom types
11610 bonds
10 bond types
19600 angles
16 angle types
29180 dihedrals
19 dihedral types
8000 impropers
11 improper types

6.010415502475045 55.88316592751514 xlo xhi
6.010415502475045 55.88316592751514 ylo yhi
6.010415502475045 55.88316592751514 zlo zhi

Masses

1 12.01115
2 12.01115
3 1.00797
4 1.00797
5 15.9994
6 15.9994
7 15.9994
8 32.064

Pair Coeffs # lj/class2/coul/long/kk

1 0.054 4.01
2 0.064 4.01
3 0.02 2.995
4 0.013 1.098
5 0.06 3.535
6 0.24 3.535
7 0.24 3.535
8 0.25 4.027

Bond Coeffs # class2/kk

1 1.53 299.67 -501.77 679.81
2 1.501 321.902 -521.821 572.163
3 1.101 345 -691.89 844.6
4 1.417 470.836 -627.618 1327.63
5 1.0982 372.825 -803.453 894.317
6 1.3768 428.88 -738.235 1114.97
7 1.3768 428.88 -738.235 1114.97
8 1.72 239.802 0 0
9 0.965 532.506 -1282.9 2004.77
10 1.4308 743.76 0 0

Angle Coeffs # class2/kk

1 112.67 39.516 -7.443 -9.5583
2 108.4 43.9594 -8.3924 -9.3379
3 110.77 41.453 -10.604 5.129
4 120.05 44.7148 -22.7352 0
5 111 44.3234 -9.4454 0
6 118.9 61.0226 -34.9931 0
7 117.94 35.1558 -12.4682 0
8 123.42 73.6781 -21.6787 0
9 123.42 73.6781 -21.6787 0
10 120 60 0 0
11 109.5 60 0 0
12 108.19 53.125 -8.5016 0
13 102 58 0 0
14 113.1 42.3 0 0
15 107.66 39.641 -12.921 -2.4318
16 119.329 135 0 0

BondBond Coeffs

1 0 1.53 1.53
2 0 1.53 1.501
3 3.3872 1.53 1.101
4 12.0676 1.501 1.417
5 0 1.501 1.501
6 68.2856 1.417 1.417
7 1.0795 1.417 1.0982
8 48.4754 1.417 1.3768
9 48.4754 1.417 1.3768
10 0 1.417 1.72
11 0 1.3768 1.3768
12 20.6577 1.3768 0.965
13 0 1.72 1.72
14 0 1.72 1.4308
15 5.3316 1.101 1.101
16 40 1.4308 1.4308

BondAngle Coeffs

1 8.016 8.016 1.53 1.53
2 0 0 1.53 1.501
3 20.754 11.421 1.53 1.101
4 47.0579 31.0771 1.501 1.417
5 0 0 1.501 1.501
6 28.8708 28.8708 1.417 1.417
7 20.0033 24.2183 1.417 1.0982
8 58.479 107.681 1.417 1.3768
9 58.479 107.681 1.417 1.3768
10 0 0 1.417 1.72
11 0 0 1.3768 1.3768
12 53.8614 23.9224 1.3768 0.965
13 0 0 1.72 1.72
14 0 0 1.72 1.4308
15 18.103 18.103 1.101 1.101
16 0 0 1.4308 1.4308

Dihedral Coeffs # class2/kk

1 0 0 0.0316 0 -0.1681 0
2 -0.2802 0 -0.0678 0 -0.0122 0
3 0 0 4.4072 0 0 0
4 0 0 1.559 0 0 0
5 -0.0228 0 0.028 0 -0.1863 0
6 -0.2802 0 -0.0678 0 -0.0122 0
7 8.3667 0 1.1932 0 0 0
8 0 0 3.9661 0 0 0
9 0 0 4.8498 0 0 0
10 0 0 4.8498 0 0 0
11 0 0 3 0 0 0
12 0 0 1.8 0 0 0
13 -0.69 0 0.5097 0 0.0095 0
14 0 0 1.5 0 0 0
15 0 0 1.5 0 0 0
16 0 0 1.8769 0 0 0
17 0 0 1.7234 0 0 0
18 0 0 1.7234 0 0 0
19 0 0 3 0 0 0

AngleAngleTorsion Coeffs

1 -16.164 112.67 110.77
2 0 108.4 120.05
3 -14.4097 120.05 118.9
4 4.4444 120.05 117.94
5 0 108.4 110.77
6 0 111 120.05
7 0 118.9 118.9
8 -4.8141 118.9 117.94
9 -21.0247 118.9 123.42
10 -21.0247 118.9 123.42
11 0 118.9 120
12 0 123.42 109.5
13 -4.6072 123.42 108.19
14 0 120 102
15 0 120 113.1
16 0.3598 117.94 117.94
17 4.2296 117.94 123.42
18 4.2296 117.94 123.42
19 0 117.94 120

EndBondTorsion Coeffs

1 0.2486 0.2422 -0.0925 0.0814 0.0591 0.2219 1.53 1.101
2 0 0 0 0 0 0 1.53 1.417
3 0 0.2421 0 0 -0.6918 0 1.501 1.417
4 0 -1.797 0 0 -0.4879 0 1.501 1.0982
5 0 0 0 0 0 0 1.501 1.101
6 0 0 0 0 0 0 1.501 1.417
7 -0.1185 6.3204 0 -0.1185 6.3204 0 1.417 1.417
8 0 -6.8958 0 0 -0.4669 0 1.417 1.0982
9 0 0.2655 0 0 4.8905 0 1.417 1.3768
10 0 0.2655 0 0 4.8905 0 1.417 1.3768
11 0 0 0 0 0 0 1.417 1.72
12 0 0 0 0 0 0 1.417 1.3768
13 0.9 -1.3456 1.19 3.4132 0.5873 -0.1323 1.417 0.965
14 0 0 0 0 0 0 1.417 1.72
15 0 0 0 0 0 0 1.417 1.4308
16 0 -0.689 0 0 -0.689 0 1.0982 1.0982
17 0 -1.5867 0 0 4.2641 0 1.0982 1.3768
18 0 -1.5867 0 0 4.2641 0 1.0982 1.3768
19 0 0 0 0 0 0 1.0982 1.72

MiddleBondTorsion Coeffs

1 -14.879 -3.6581 -0.3138 1.53
2 0 0 0 1.501
3 0 9.1792 0 1.417
4 0 3.9421 0 1.417
5 0 0 0 1.53
6 0 0 0 1.501
7 27.5989 -2.312 0 1.417
8 0 -1.1521 0 1.417
9 0 4.8255 0 1.417
10 0 4.8255 0 1.417
11 0 0 0 1.417
12 0 0 0 1.3768
13 1.158 3.2697 3.5132 1.3768
14 0 0 0 1.72
15 0 0 0 1.72
16 0 4.8228 0 1.417
17 0 5.5432 0 1.417
18 0 5.5432 0 1.417
19 0 0 0 1.417

BondBond13 Coeffs

1 0 1.53 1.101
2 0 1.53 1.417
3 2.5085 1.501 1.417
4 0.8743 1.501 1.0982
5 0 1.501 1.101
6 0 1.501 1.417
7 53 1.417 1.417
8 -6.2741 1.417 1.0982
9 -2.2436 1.417 1.3768
10 -2.2436 1.417 1.3768
11 0 1.417 1.72
12 0 1.417 1.3768
13 1.159 1.417 0.965
14 0 1.417 1.72
15 0 1.417 1.4308
16 -1.7077 1.0982 1.0982
17 2.0517 1.0982 1.3768
18 2.0517 1.0982 1.3768
19 0 1.0982 1.72

AngleTorsion Coeffs

1 -0.2454 0 -0.1136 0.3113 0.4516 -0.1988 112.67 110.77
2 0 0 0 0 0 0 108.4 120.05
3 0 -4.4683 0 0 3.8987 0 120.05 118.9
4 0 -0.1242 0 0 3.4601 0 120.05 117.94
5 0 0 0 0 0 0 108.4 110.77
6 0 0 0 0 0 0 111 120.05
7 1.9767 1.0239 0 1.9767 1.0239 0 118.9 118.9
8 0 2.5014 0 0 2.7147 0 118.9 117.94
9 0 10.0155 0 0 1.7404 0 118.9 123.42
10 0 10.0155 0 0 1.7404 0 118.9 123.42
11 0 0 0 0 0 0 118.9 120
12 0 0 0 0 0 0 123.42 109.5
13 -5.136 -1.0122 0 4.6852 0.023 -0.598 123.42 108.19
14 0 0 0 0 0 0 120 102
15 0 0 0 0 0 0 120 113.1
16 0 2.4501 0 0 2.4501 0 117.94 117.94
17 0 1.8729 0 0 2.5706 0 117.94 123.42
18 0 1.8729 0 0 2.5706 0 117.94 123.42
19 0 0 0 0 0 0 117.94 120

Improper Coeffs # class2/kk

1 0 0
2 0 0
3 0 0
4 0 0
5 7.8153 0
6 4.8912 0
7 13.0421 0
8 13.0421 0
9 0 0
10 0 0
11 0 0

AngleAngle Coeffs

1 0 0 0 112.67 108.4 108.4
2 0 0 0 108.4 108.4 111
3 0.2738 -0.4825 0.2738 110.77 110.77 107.66
4 -0.3157 -0.3157 -0.3157 107.66 107.66 107.66
5 0 0 0 120.05 120.05 118.9
6 0 0 0 118.9 117.94 117.94
7 0 0 0 118.9 123.42 123.42
8 0 0 0 118.9 123.42 123.42
9 0 0 0 118.9 120 120
10 0 0 0 102 113.1 113.1
11 0 0 0 113.1 113.1 119.329

Atoms # full/kk

3262 4 3 0.053 10.366207063435478 55.21508248172212 11.614398948817493 0 -1 0
3258 4 3 0.053 11.390155324762919 55.3282576586861 7.9410132794058725 0 -1 0
3255 4 1 -0.159 10.757376732894512 55.06042758582352 8.843590317681866 0 -1 0
9373 9 3 0.053 6.3353910372087245 6.894729029917399 6.879128330869383 0 1 0
2839 3 2 -0.1268 6.380260949812811 10.596362974747919 9.291064795614515 1 0 0
2843 3 5 -0.1143 9.097069152264618 9.714885412351409 8.717243489125389 1 0 0
9378 9 2 -0.1268 6.5420386565942685 10.69166189268742 55.15802181866698 0 1 -1
9372 9 3 0.053 7.844068282958938 7.402397466193925 7.269189240639076 0 1 0
2840 3 3 0.1268 6.7123756422671965 9.508509817679801 9.319680107565484 1 0 0
2842 3 8 0.0822 8.92335520623559 11.085823032746012 8.314636163442755 1 0 0
2844 3 5 -0.1143 9.024070347175607 11.48062952229904 6.922554771734872 1 0 0
2841 3 2 0.0732 7.34685916154133 11.499905267115855 8.879012372801316 1 0 0
2847 3 3 0.1268 10.162945789717662 11.006796900313919 11.04086994570924 1 0 0
9371 9 1 -0.159 7.367133732261631 6.68966539595524 6.6011795449588995 0 1 0
9377 9 3 0.1268 55.82222814885962 8.884357429499932 6.302634234813942 -1 1 0
9639 9 3 0.053 7.275095815652573 6.347884513155409 10.080043872447982 0 1 0
3256 4 3 0.053 10.005063812225584 55.799947225770694 9.102076558755021 0 -1 0
9376 9 2 -0.1268 6.66820761422379 9.331091465134119 55.435308109347254 0 1 -1
9374 9 3 0.053 7.662499162580731 55.57638666801746 6.8833423894818715 0 0 0
9647 9 3 0.1268 7.442059088869009 8.47717521477218 12.118647454093656 0 1 0
1288 2 3 0.1268 16.5529985071189 6.585091026306301 12.784700100944422 0 0 1
3296 4 3 0.1268 11.768037185873673 7.559266872169414 8.82818394792338 0 0 0
3295 4 2 -0.1268 12.207416483621307 7.51791907786011 9.823017750736485 0 0 0
3263 4 2 0 12.355957597948324 6.36115308129869 10.573327362915512 0 0 0
3294 4 3 0.1268 12.307545121771277 9.775723647353706 9.85689376098853 0 0 0
3293 4 2 -0.1268 12.66547978512114 8.77564895083921 10.282449207970778 0 0 0
1351 2 2 -0.1268 17.081456630781176 9.722091453309567 7.883055345114932 0 0 1
1349 2 2 -0.1268 16.871358341020006 10.982764277307698 8.318052631473387 0 0 1
1352 2 3 0.1268 16.711656821179503 9.410598955285542 6.9406957567993794 0 0 1
1305 2 2 0 17.29209511342863 11.52184534716099 9.565425559636385 0 0 1
1300 2 2 0.0265 17.91698958668332 8.877136104594012 8.67020818027209 0 0 1
1350 2 3 0.1268 16.247712185055107 11.613907373878904 7.655693452808098 0 0 1
1303 2 2 -0.1268 17.94527869477247 10.624720425729457 10.360240642579981 0 0 1
1299 2 6 -0.053 18.274155384188298 7.636303811821389 8.136873872895059 0 0 1
3268 4 2 0.0265 13.212817935827594 8.833059683971037 11.529079839957308 0 0 0
1284 2 3 0.1268 15.884200403021906 7.066845573823039 9.241905508988598 0 0 1
3264 4 2 -0.1268 13.172796502389653 6.464620884847696 11.746369005176184 0 0 0
9850 10 3 0.1268 12.591973500850724 12.02713926236687 6.996507303132727 1 1 0
1309 2 3 0.053 15.287009816610698 12.701042884477056 11.181751436123287 0 0 1
1304 2 3 0.1268 18.266184673906956 10.869606561873859 11.405044378474694 0 0 1
1282 2 2 0.0265 18.03627946615834 6.633744129419025 9.01408619515863 0 0 1
3266 4 2 -0.1268 13.54827343534647 7.688955700649417 12.259476345042295 0 0 0
1301 2 2 -0.1268 18.299289980490297 9.34340951959296 9.964868370700186 0 0 1
1302 2 3 0.1268 18.743374581250272 8.568438394218013 10.673139865062595 0 0 1
5788 6 3 0.1268 23.76809116680566 9.790525499321562 10.16914116091427 0 0 1
5735 6 6 -0.053 23.497634909817425 7.284344876581601 10.622068005494695 0 0 1
5291 5 2 -0.1268 22.273300267845848 8.161289065173516 6.867862547202968 0 1 0
5289 5 2 -0.1268 21.507301869879587 9.296589368431267 6.580234314814232 0 1 0
5290 5 3 0.1268 21.846226021824467 10.259518174203135 6.954878744569703 0 1 0
5277 5 5 -0.1143 19.356510161444536 11.266872335214874 6.48003629307796 0 1 0
5292 5 3 0.1268 23.059596500781986 8.265338323813149 7.594714874247527 0 1 0
1317 2 3 0.1268 18.875984809208397 13.044967053827921 7.998496127889098 0 0 1
5736 6 2 0.0265 24.674898519482976 7.978390759430068 10.756397339856642 0 0 1
5787 6 2 -0.1268 24.72016117882177 9.302902761132124 10.401334343515103 0 0 1
1339 2 2 -0.1268 26.42922454145326 11.526921896449329 55.78890629839101 0 0 0
5745 6 3 0.053 28.452754545727657 12.553888358412049 12.504662599929492 0 0 1
5786 6 3 0.1268 25.752425209134643 11.219175687710084 10.31311991793428 0 0 1
5785 6 2 -0.1268 25.816319771958927 10.120614914102173 10.56557056166765 0 0 1
5753 6 3 0.1268 28.271604451590193 8.947992179050605 9.486460869578634 0 0 1
5751 6 2 0 28.68921526635243 10.917634758005441 10.12583187412707 0 0 1
5754 6 2 -0.1268 28.9759001027098 10.063444386535192 7.844042294753265 0 0 1
5752 6 2 -0.1268 28.57667066533777 9.918775506704241 9.14733699120653 0 0 1
5741 6 2 0 26.963587910358466 9.717055457271124 11.268875002391487 0 0 1
5742 6 1 0 28.130118065976664 10.667774840261835 11.473559488517784 0 0 1
5755 6 3 0.1268 28.82629777887158 9.087280803481727 7.261345058159767 0 0 1
5737 6 2 -0.1268 25.87326789535452 7.505391889455154 11.412166716201071 0 0 1
5739 6 2 -0.1268 26.982118409660547 8.343384222933324 11.65417447424916 0 0 1
5756 6 2 0.0265 29.46087075121533 11.292791393909287 7.392508079122998 0 0 1
5750 6 3 0.053 29.763894083853092 9.206281476935853 12.021750923139557 0 0 1
5738 6 3 0.1268 25.83455911060301 6.469539318281658 11.788407288284656 0 0 1
5747 6 1 -0.159 29.29621162072503 10.140634955565494 12.328850459113333 0 0 1
1338 2 3 0.1268 26.412901517942284 9.376908534876362 55.55230987137184 0 0 0
5783 6 2 -0.1268 29.09135881415862 12.155554579286125 9.613460643601066 0 0 1
5781 6 2 -0.1268 29.498205973085273 12.337210540694972 8.26078091741996 0 0 1
5743 6 1 -0.159 27.648570900831047 11.942745515554918 12.187122493555275 0 0 1
1340 2 3 0.1268 26.793284614063477 11.54933283833273 6.887509998355477 0 0 1
5749 6 3 0.053 30.08243229787846 10.947514569230126 12.210111010649667 0 0 1
5740 6 3 0.1268 27.908873293202646 7.992444887564287 12.041526751958214 0 0 1
4542 5 3 0.1268 34.073952207842424 11.461578735082341 6.515153752607804 0 0 0
4476 5 3 0.1268 31.39846355422254 7.352009333502747 9.457528578311578 0 0 0
4492 5 2 0.0265 32.498365021659325 10.897589695389868 9.400186761416188 0 0 0
4475 5 2 -0.1268 32.372290640480614 7.440319718253265 9.887497593053707 0 0 0
4491 5 6 -0.053 31.97262299787122 9.83518820529295 10.061579104314339 0 0 0
4474 5 2 0.0265 32.80828664681642 8.738416287559348 10.215560461107637 0 0 0
4544 5 3 0.1268 32.93720448186966 9.66896376534811 7.692875247992059 0 0 0
4470 5 2 -0.1268 34.896698036524825 7.785937719167453 10.985324513109914 0 0 0
4543 5 2 -0.1268 33.019459104225405 10.695859944573048 8.09227403130676 0 0 0
4472 5 2 -0.1268 34.1038285442046 8.898483511613193 10.84881857836145 0 0 0
4642 5 3 0.1268 35.94341693137268 8.684528969536899 8.16564252012882 0 0 0
4541 5 2 -0.1268 33.60287805842252 11.759894587723636 7.457183140735509 0 0 0
4630 5 5 -0.1143 34.42385018749239 7.931957994622489 6.2981641806018365 0 0 0
4493 5 2 -0.1268 32.72770095786849 12.073189517476724 10.04559474017851 0 0 0
4494 5 3 0.1268 32.38624360199567 12.2382990102596 11.116576112945902 0 0 0
4473 5 3 0.1268 34.38893471556989 9.90055533111405 11.240786322079039 0 0 0
4471 5 3 0.1268 35.93721753625114 7.863613840130729 11.362202311168712 0 0 0
4644 5 3 0.1268 37.364718853162124 10.206294108030416 9.488296004569309 0 0 0
4469 5 2 0.0732 34.45020179179639 6.482674863192343 10.723925837593715 0 0 0
4641 5 2 -0.1268 36.553133100570754 9.382427896404607 7.649178621635443 0 0 0
4484 5 3 0.1268 43.146806863451516 6.441135411988098 11.989113660958505 0 0 0
4627 5 2 0.0732 36.51077897845079 9.408547027321013 6.282950592640306 0 0 0
4643 5 2 -0.1268 37.37416530414629 10.249001313921008 8.400853484941738 0 0 0
4483 5 2 -0.1268 42.69452606251201 7.453707402920892 11.862724482876738 0 0 0
4623 5 2 -0.1268 38.32345413291368 11.038874137685717 6.396831087255778 0 0 0
4622 5 2 0.0265 38.29878467166789 11.075728881247814 7.79434609808694 0 0 0
4459 5 6 -0.053 41.02935663678272 6.709429679342718 10.15513446990734 0 0 0
4458 5 2 0.0265 41.60409253228414 7.6904376484366574 10.983626035358315 0 0 0
4460 5 2 0.0265 39.786090255591745 6.3530723698834874 10.442193951498787 0 0 0
4457 5 3 0.1268 40.22193671226994 9.296310700585387 10.34625130909024 0 0 0
4456 5 2 -0.1268 41.0411454553622 8.993922016266948 11.008370424844557 0 0 0
4462 5 3 0.1268 39.04365987157317 6.847933330343644 8.37000950665668 0 0 0
4461 5 2 -0.1268 38.821406545955895 6.582169321008913 9.424873405086968 0 0 0
4481 5 2 -0.1268 39.263722773604 6.059495663067588 11.725931909652331 0 0 0
7414 7 3 0.1268 42.698529282560386 8.993111305232015 8.6354539713332 0 0 0
7413 7 2 -0.1268 43.070581925781255 8.46638436837127 7.750576045969905 0 0 0
4454 5 2 -0.1268 41.518567534444685 9.946492062465536 11.863419320850614 0 0 0
4455 5 3 0.1268 41.07423536143166 10.976333548123268 11.763924881362268 0 0 0
4479 5 2 -0.1268 37.889202348998694 55.55007046340313 11.904236493643 0 -1 0
7430 7 2 -0.1268 48.353198692871274 7.3229469426538225 6.834647764058896 0 0 0
9510 9 3 0.1268 44.58538135127584 10.831181277911778 7.475965413265229 -1 1 0
9504 9 2 0.0265 49.13216413277266 10.245990338586896 10.911664540618887 -1 1 0
9506 9 3 0.1268 47.59670972446892 8.729114160525247 10.617501321434009 -1 1 0
9502 9 2 -0.1268 49.33498707982636 11.669188742177594 10.898874561612649 -1 1 0
9508 9 3 0.1268 46.03417896482344 10.084048926027926 9.745104594023196 -1 1 0
7417 7 2 0 44.162352256145255 6.505342986265272 6.948444527464895 0 0 0
9509 9 2 -0.1268 45.420366262420245 11.179466900349185 6.906008160843908 -1 1 0
9505 9 2 -0.1268 47.89673882893209 9.778443990133528 10.508705933581611 -1 1 0
9507 9 2 -0.1268 46.92045279117673 10.630700983432918 10.01002541073193 -1 1 0
7436 7 3 0.1268 48.87430158317483 9.773348834526526 7.823987619098171 0 0 0
7415 7 2 -0.1268 43.7835975048728 7.352049999254858 7.986584046498012 0 0 0
7427 7 2 0 46.59523615199369 55.62589368839487 7.464934887631968 0 -1 0
7416 7 3 0.1268 44.108600112845906 7.125870572480519 8.997982790668708 0 0 0
9637 9 1 -0.159 6.184599684210767 6.3502301901885145 10.19957094812587 0 1 0
7432 7 2 0.0265 49.13381136055895 6.963121492736041 7.924854801602805 0 0 0
9636 9 1 0 6.0120720887991155 6.052636140441549 11.742461381012191 0 1 0
7438 7 3 0.1268 49.7989504328003 11.803091384711056 7.225065948578146 0 0 0
7435 7 2 -0.1268 49.99223305502818 9.739867788952576 7.584050473845002 0 0 0
9640 9 3 0.053 55.628212772640566 7.383247901606724 9.987477047002356 -1 1 0
7433 7 6 -0.053 50.43676229697898 7.41885540792646 8.032506101659926 0 0 0
7456 7 3 0.1268 53.03403178226952 8.146984650067907 7.764932248263462 0 0 0
7434 7 2 0.0265 50.875658369588876 8.663683824871178 7.798465421334897 0 0 0
7455 7 2 -0.1268 52.26605945977633 8.885630539787885 7.6839321977132 0 0 0
7439 7 2 0.0732 51.8878462115042 11.267343919145707 7.311995824456313 0 0 0
7453 7 2 -0.1268 52.77303365566233 10.175979575044781 7.4103036112868805 0 0 0
7437 7 2 -0.1268 50.50589744514433 11.054303840412992 7.459211076820773 0 0 0
2838 3 3 0.1268 54.44325385622351 10.152472374830475 10.086288037062463 0 0 0
9521 9 6 -0.053 50.108061382738185 9.345612165835394 11.318709456926687 -1 1 0
7454 7 3 0.1268 53.853348385056535 10.241230512613278 7.3879278946006055 0 0 0
2837 3 2 -0.1268 55.049470723384474 10.998405770964446 9.786565685355866 0 0 0
9634 9 3 0.1268 53.63167872510674 6.296095156749087 10.47903042984207 -1 1 0
2846 3 2 -0.1268 10.465709943194224 11.870865392144324 10.54949987494766 1 0 0
9379 9 3 0.1268 55.582465284861286 11.164190577933258 55.73918500398827 -1 1 -1
2845 3 2 0.0732 9.929274391446151 12.217434671012548 9.271072465066803 1 0 0
2857 3 2 -0.1268 55.65746203268954 13.34538109842141 9.510104989375087 0 0 0
9896 10 3 0.1268 11.496231994911483 17.2801414098766 7.44324116232205 1 1 0
1940 2 3 0.1268 8.96761173088015 18.325658060356197 8.84215109122086 0 -1 0
1942 2 3 0.1268 7.183397056522795 18.69795420723404 7.327024866439044 0 -1 0
1912 2 2 -0.1268 6.383800155407709 17.02974411562848 10.688997207065531 0 -1 0
1941 2 2 -0.1268 6.943904827525567 18.154622865450072 8.250218650617825 0 -1 0
1939 2 2 -0.1268 8.002388048776165 17.965097782476796 9.095082723902 0 -1 0
2855 3 2 -0.1268 6.974452553639848 12.850198322829467 8.93097793449949 1 0 0
1914 2 2 0.0265 7.734303323072449 17.304363998939728 10.296428123471781 0 -1 0
2856 3 3 0.1268 7.667100969603377 13.694260331938757 8.606449432861847 1 0 0
2870 3 3 0.1268 10.909554660984835 16.505794342467773 10.428162062555264 1 0 0
2853 3 2 -0.1268 10.330533268582109 13.457543081711044 8.772725385893558 1 0 0
2854 3 3 0.1268 10.052643790834672 13.602327245156097 7.726040949509107 1 0 0
1938 2 3 0.1268 7.521747639133883 14.808372700238216 10.953990894988005 0 -1 0
1915 2 6 -0.053 8.783973351114987 17.24440989751207 11.22887711899718 0 -1 0
2851 3 2 -0.1268 11.205981472525144 14.335411329070565 9.34681764999805 1 0 0
2852 3 3 0.1268 11.675620556478169 15.135816671458166 8.758772730867113 1 0 0
2848 3 2 -0.1268 11.40856150216974 12.741891699470013 11.1189991572416 1 0 0
2869 3 2 -0.1268 11.925757534281399 16.85368811447273 10.462381150009628 1 0 0
2850 3 2 0.0265 11.758143511194174 13.973442280675535 10.576679980144577 1 0 0
9852 10 3 0.1268 12.24229799692269 14.530142379005532 6.768761326937269 1 1 0
2871 3 2 -0.1268 12.185588234273048 18.186162114351518 10.105736677789846 1 0 0
2917 3 2 -0.1268 14.445372765913616 17.88460310113134 10.735982814927139 1 0 0
2920 3 3 0.1268 15.051534077695017 15.955329589676383 11.471371927800977 1 0 0
1307 2 1 -0.159 16.28621001479101 13.088504874347162 11.270749438846515 0 0 1
1306 2 1 0 17.063458366754084 12.962209013343585 9.93971802605151 0 0 1
1314 2 3 0.053 15.331820857778192 13.280206862701693 8.649981877775149 0 0 1
1311 2 1 -0.159 16.28817693437039 13.744809637326505 8.793587777235272 0 0 1
1312 2 3 0.053 16.77759750474437 13.8762822476406 7.7638570492174255 0 0 1
1310 2 3 0.053 16.127830432467857 14.15387724099837 11.33986111334402 0 0 1
2867 3 6 -0.053 12.761272605231547 14.694013755735776 11.222929706551435 1 0 0
9862 10 3 0.053 13.410200783378667 16.095541621765214 8.064964566962502 1 1 0
2919 3 2 -0.1268 14.22809056642392 16.55686293070463 11.011843002867561 1 0 0
2868 3 2 0.0265 12.976228442708507 16.036504766125944 10.896814426172513 1 0 0
1313 2 3 0.053 16.057631802314802 14.795994019993971 9.135378925624508 0 0 1
9861 10 3 0.053 13.98622491343387 17.820223774344512 7.631331873579689 1 1 0
1216 2 3 0.1268 17.18011362664069 16.813767246670594 8.278372177392123 0 0 1
9860 10 3 0.053 15.068199835655282 16.301962736685454 7.754232353507181 1 1 0
9859 10 1 -0.159 14.051416064431345 16.691001413951945 7.411635267106516 1 1 0
1348 2 3 0.1268 18.334424300195316 14.394476312600297 12.029542754828276 0 0 1
1215 2 2 -0.1268 18.07205502346752 17.48163926931088 8.136463176136862 0 0 1
1308 2 3 0.053 16.932249690674347 12.821165605915876 12.148911638097355 0 0 1
5346 5 3 0.1268 22.761367943797882 18.58384181193908 9.07537598383698 0 1 0
1315 2 2 0 18.450321379767708 13.638262592667486 9.996662320955352 0 0 1
1347 2 2 -0.1268 18.986181967546976 14.111950208838541 11.180465661129677 0 0 1
5343 5 2 -0.1268 23.254607642123137 17.674217666554426 10.941482779082868 0 1 0
1322 2 2 0.0265 23.431974298526075 14.59323675223793 9.397205022099019 0 0 1
1341 2 2 -0.1268 24.060981465085884 15.203450728713385 7.171631967454355 0 0 1
1344 2 3 0.1268 22.17826380418647 15.725574205755144 7.970507268101329 0 0 1
1321 2 6 -0.053 22.533414015397256 14.505283558819226 10.473870355980077 0 0 1
1214 2 2 0.0265 19.153327419061316 17.136280394487606 7.37341745649499 0 0 1
1345 2 2 -0.1268 20.313230964779432 14.505480403345743 11.266537526090783 0 0 1
5344 5 3 0.1268 22.335855539432565 17.012041053375583 10.892497738213983 0 1 0
1346 2 3 0.1268 20.572307916422933 15.030050490358908 12.243413380006661 0 0 1
1236 2 3 0.1268 21.265287997853374 17.634526478026658 7.099123355691181 0 0 1
1318 2 2 -0.1268 20.67956777377094 13.69712526169564 9.03201923146129 0 0 1
1343 2 2 -0.1268 23.145966958089403 15.241608278736715 8.168157737096406 0 0 1
1320 2 2 0.0265 21.19177660959442 14.193797163096075 10.240977265211539 0 0 1
1213 2 6 -0.053 19.153921175205078 15.962061183954678 6.725881745830239 0 0 1
1235 2 2 -0.1268 20.350314092765473 17.920708338489753 7.543800163499775 0 0 1
1323 2 2 -0.1268 24.656738992084996 14.03347091796499 9.65304277340788 0 0 1
1319 2 3 0.1268 21.3105699398548 13.504816006061944 8.05884378843174 0 0 1
1316 2 2 -0.1268 19.321401135067866 13.500885907805284 8.940854050877777 0 0 1
1342 2 3 0.1268 23.844835990349466 15.573100205226982 6.203839449425138 0 0 1
6202 6 2 -0.1268 27.610431512328898 16.10404511289255 10.528897437538673 0 -1 1
1329 2 5 -0.1143 27.794840770402747 14.085445989637691 6.681056808284134 0 0 1
5784 6 3 0.1268 29.269190780457464 13.116975393932691 10.221337129474422 0 0 1
5782 6 3 0.1268 29.907647440320904 13.265271664440473 7.84344017377501 0 0 1
6204 6 2 0.0265 28.346361598711376 15.575923005737096 11.648936181099941 0 -1 1
5744 6 3 0.053 27.101721328767926 12.61335676169082 11.562026716199705 0 0 1
5329 5 2 0.0732 24.115675064054432 17.654278477233312 12.061101579274153 0 1 0
1324 2 3 0.1268 24.98058966520782 13.57777355588097 10.595260541313655 0 0 1
6207 6 2 -0.1268 30.336808414457884 15.884639502983676 10.389804867027147 0 -1 1
6196 6 8 0.0822 30.480215704290625 17.331029686075823 8.094715824994955 0 -1 1
6205 6 2 -0.1268 29.751249258550324 15.358656556291118 11.497590499639815 0 -1 1
1327 2 2 0.0732 25.301941564168697 14.528572017558647 7.370615499248391 0 0 1
1325 2 2 -0.1268 25.553888872202005 13.924594806525745 8.607354048023076 0 0 1
6200 6 2 -0.1268 28.27634463373119 16.51314354409618 9.394848431997037 0 -1 1
6199 6 2 0.0732 29.6479738237915 16.515997643727612 9.385178804228303 0 -1 1
6203 6 3 0.1268 26.459092250582447 16.278105105112807 10.644419551118489 0 -1 1
1326 2 3 0.1268 26.577918209246306 13.514472449241246 8.913128549249395 0 0 1
6201 6 3 0.1268 27.62271313509874 16.80387880145517 8.499704400530389 0 -1 1
5348 5 3 0.1268 25.01485055466021 18.42449847837522 7.442263992472245 0 1 0
1328 2 8 0.0822 26.50398616003831 14.294851053539409 6.08847523174043 0 0 1
6198 6 5 -0.1143 29.973082720082836 16.73023912301351 6.886956458600446 0 -1 1
4537 5 2 -0.1268 35.883937710141026 17.243782340453357 8.93165373129464 0 0 0
4513 5 6 -0.053 37.54898599050098 17.609554356678238 10.588475506582409 0 0 0
4538 5 3 0.1268 35.80333328193367 18.30246314280587 8.93539309721988 0 0 0
4502 5 3 0.053 32.92006731690613 13.834900176381147 55.73966520699724 0 0 -1
4512 5 2 0.0265 36.86124036597309 16.655835286118492 9.80792448648606 0 0 0
4508 5 2 -0.1268 36.32988951713686 14.5111090467615 8.999068361658418 0 0 0
4511 5 3 0.1268 37.8482065062657 14.734224202090797 10.526889507283776 0 0 0
6206 6 3 0.1268 30.391707266711094 14.86501766391613 12.302254941869238 0 -1 1
4498 5 1 0 34.566299342730574 14.065488440431519 7.296552219010217 0 0 0
4509 5 3 0.1268 36.50136154789581 13.384716012143214 9.02640491935434 0 0 0
4499 5 1 -0.159 33.558928894367774 14.661858334210857 6.335113969419457 0 0 0
4495 5 2 -0.1268 33.410084948498486 13.098750829919322 9.434412250093057 0 0 0
4506 5 3 0.053 36.45386434173875 12.748550934897576 7.092726917958572 0 0 0
4500 5 3 0.053 32.8291819801332 15.294184688785064 6.911647355889157 0 0 0
4507 5 2 0 35.33141232621082 15.028363352137053 8.155111084216703 0 0 0
4539 5 2 -0.1268 35.11581667888453 16.399316275070568 8.166921127860576 0 0 0
4510 5 2 -0.1268 37.06613199618698 15.238885941573335 9.91265084252156 0 0 0
6208 6 3 0.1268 31.439802455766557 15.735127779065703 10.328859948002735 0 -1 1
4496 5 3 0.1268 33.78087671905169 14.042568438093438 9.847177776491662 0 0 0
6197 6 5 -0.1143 31.88331160860307 17.384311803778143 8.251852842659549 0 -1 1
4540 5 3 0.1268 34.23309868935314 16.838867491403036 7.624967954070631 0 0 0
4497 5 2 0 33.88794029441984 12.953169776840522 8.099432135982166 0 0 0
4503 5 1 -0.159 35.75279366467466 13.446009887208366 6.503788975883534 0 0 0
4501 5 3 0.053 34.07156709206968 15.312487537144628 55.41188016183708 0 0 -1
4615 5 2 0 41.54764880735338 15.186093532033377 7.3594550102195795 0 0 0
4616 5 2 -0.1268 40.308884184761126 14.855506964977428 6.7863745504855775 0 0 0
4533 5 2 -0.1268 40.94693938503633 16.34579715603715 11.464991642843597 0 0 0
4647 5 2 -0.1268 41.985174015455456 14.210408341670016 8.301349340637042 0 0 0
4645 5 2 -0.1268 41.21581309361636 13.07460072392454 8.645442555688408 0 0 0
4620 5 2 0.0265 39.95074898991007 12.90825506622469 8.07915685950715 0 0 0
4618 5 2 -0.1268 39.507905759398824 13.837470673081818 7.143845786641257 0 0 0
4536 5 3 0.1268 39.68032993529427 15.935403641455054 9.810919106713333 0 0 0
4619 5 3 0.1268 38.53056117445284 13.709244743949775 6.636457050641644 0 0 0
4646 5 3 0.1268 41.63012215521849 12.318157230374368 9.279839314315566 0 0 0
4534 5 3 0.1268 41.78463478386661 15.856908427978066 11.02802077119571 0 0 0
4535 5 2 -0.1268 39.75127560508169 16.492991002459526 10.749988859541444 0 0 0
4606 5 1 0 42.34854731091848 16.472261430351423 6.897673056226894 0 0 0
4648 5 3 0.1268 43.0432106802365 14.377102019919485 8.558743229170647 0 0 0
4514 5 2 0.0265 38.702287480810014 17.24107919152789 11.29749908898375 0 0 0
4613 5 3 0.053 42.77025464858062 17.00671486140712 8.979300289563934 0 0 0
4611 5 1 -0.159 43.37466663140786 16.80285868431907 8.060480007089838 0 0 0
4617 5 3 0.1268 39.99055745215722 15.55690408812963 55.78908582545329 0 0 -1
4614 5 3 0.053 44.24807776729382 16.0535589500985 8.248304443456592 0 0 0
4531 5 2 -0.1268 44.092946890899654 17.954670816062347 11.582511421968876 0 0 0
4523 5 2 0.0732 43.39766121649119 18.228281251036734 12.748847207587177 0 0 0
5982 6 5 -0.1143 37.943479524746515 12.178320685502463 11.140971500621369 0 0 1
4519 5 2 0.0732 41.0794583655655 16.817622599366914 12.71752340208424 0 0 0
4522 5 5 -0.1143 43.55385498913198 15.898964881110984 13.307169092496434 0 0 0
4621 5 6 -0.053 39.20789084445647 11.798705548737708 8.536638300729846 0 0 0
4624 5 3 0.1268 38.974235886773414 11.746254490880663 55.731809731148786 0 0 -1
4612 5 3 0.053 43.85286614788325 17.769004836101246 7.694902248677628 0 0 0
4532 5 3 0.1268 44.170423179878725 16.89396400135054 11.269868048244566 0 0 0
9500 9 2 -0.1268 48.33303070644281 12.470153257104041 10.32438858015906 -1 1 0
9498 9 5 -0.1143 46.38957680931982 14.229115524753826 9.055203686385765 -1 1 0
9501 9 3 0.1268 48.592039311759734 13.50511148550606 10.153615312341024 -1 1 0
9684 9 2 0.0265 48.656726725716524 17.572197488180308 11.395112745432185 -1 1 0
9496 9 8 0.0822 45.94666966849161 12.91807799559705 8.96552580836641 -1 1 0
9733 9 2 -0.1268 48.80687698922743 16.414140302997975 9.23178864121834 -1 1 0
9494 9 3 0.1268 47.99810305578019 13.405599362618243 6.950090010333207 -1 1 0
9689 9 2 0 48.19747646801753 17.518821398463807 8.5600540699985 -1 1 0
9493 9 2 -0.1268 47.33889230536978 12.56731967172983 6.651133293716752 -1 1 0
9735 9 2 -0.1268 49.130215439058844 16.502612379272417 10.598029378485043 -1 1 0
9697 9 3 0.053 45.941881377285014 16.564552536529792 7.078834235502042 -1 1 0
9668 9 3 0.1268 47.15032875799652 15.515286080304762 12.35405511590743 -1 1 0
4604 5 3 0.1268 43.51784333036032 14.22948421239913 6.253787161188124 0 0 0
9734 9 3 0.1268 49.10584860859177 15.519385810835402 8.713263901531812 -1 1 0
9736 9 3 0.1268 49.697973015373506 15.678856442827051 11.114909774890615 -1 1 0
4450 5 3 0.053 44.309818319391226 11.808101642641496 11.553926350413699 0 0 0
9499 9 2 0.0732 47.159182145204255 11.978931747972052 9.827623136551082 -1 1 0
9495 9 2 0.0732 46.26346259742877 12.194116753928498 7.435421280173401 -1 1 0
9497 9 5 -0.1143 44.63556344849066 12.603667940125085 9.395970036036326 -1 1 0
9503 9 3 0.1268 50.28346874638048 12.033684837114219 11.246217375499375 -1 1 0
7441 7 5 -0.1143 53.92978235847929 12.732284645193214 6.825763641528703 0 0 0
7440 7 8 0.0822 52.484488375798364 12.793885901919037 6.993782151844039 0 0 0
2859 3 2 -0.1268 52.54947390339356 14.656012520800276 11.701610613020208 0 0 0
1908 2 3 0.053 55.27741648740219 18.11455186694391 55.505745433654205 -1 -1 -1
2836 3 2 0.0265 54.79064906417521 12.380724882521218 9.991074512029368 0 0 0
7442 7 5 -0.1143 51.89796393084856 13.653942813587555 7.925381552333098 0 0 0