units real
atom_style full
boundary p p p

# --- Force Field Styles ---
pair_style lj/class2/coul/long 9.5 9.5
kspace_style pppm 1e-6
dielectric 1.000000
bond_style class2
angle_style class2
dihedral_style class2
improper_style class2
special_bonds lj/coul 0 0 1
pair_modify mix sixthpower tail yes
neighbor 2.0 bin
neigh_modify delay 0 every 1 check yes
neigh_modify one 4000
# KOKKOS: package loaded via -pk kokkos on the command line

read_data /home/alexzhao/PolyJarvis/data/PS4/lammps/equil/npt_compress/npt_compress_out.data
Reading data file ...
  orthogonal box = (6.8352787 6.8352787 6.8352787) to (43.899406 43.899406 43.899406)
  1 by 1 by 1 MPI processor grid
WARNING: Pair style lj/class2/coul/cut/kk in data file differs from currently defined pair style lj/class2/coul/long/kk (src/read_data.cpp:811)
  reading atoms ...
  6420 atoms
  reading velocities ...
  6420 velocities
  scanning bonds ...
  4 = max bonds/atom
  scanning angles ...
  14 = max angles/atom
  scanning dihedrals ...
  34 = max dihedrals/atom
  scanning impropers ...
  11 = max impropers/atom
  orthogonal box = (6.8352787 6.8352787 6.8352787) to (43.899406 43.899406 43.899406)
  1 by 1 by 1 MPI processor grid
  reading bonds ...
  6810 bonds
  reading angles ...
  12000 angles
  reading dihedrals ...
  19110 dihedrals
  reading impropers ...
  5600 impropers
Finding 1-2 1-3 1-4 neighbors ...
  special bond factors lj:    0        0        1       
  special bond factors coul:  0        0        1       
     4 = max # of 1-2 neighbors
     8 = max # of 1-3 neighbors
    12 = max # of special neighbors
  special bonds CPU = 0.004 seconds
  read_data CPU = 0.403 seconds
include /home/alexzhao/PolyJarvis/data/PS4/lammps/equil/emc_build.params
# LAMMPS parameters created by EMC v9.4.4, build Jul 31 2025 20:33:44

# Variables

variable	seed		index	472913
variable	ntotal		index	6420
variable	fshape		index	1
variable	output		index	emc_build
variable	field		index	pcff/pcff
variable	location1	index	~/emc/field/
variable	nav		index	0.6022141179
variable	temperature	index	300
variable	radius		index	5
variable	nrelax		index	100
variable	weight_nonbond	index	0.0001
variable	weight_bond	index	0.0001
variable	weight_focus	index	1
variable	cutoff		index	9.5
variable	charge_cutoff	index	9.5
variable	kappa		index	4
variable	density1	index	0.53
variable	lprevious	index	0
variable	lphase		index	50.7346850343
variable	f_poly		index	10
variable	chem_repeat	index	*CC(c1ccccc1)*
variable	chem_cap	index	*[H]
variable	lg_repeat	index	16
variable	lg_cap		index	1
variable	norm_poly	index	100
variable	l_poly		index	642
variable	mg_repeat	index	92.14181
variable	mg_cap		index	1.00797
variable	m_poly		index	3687.68834
variable	n_poly		index	10
variable	mtotal		index	41681.3434
variable	nphase1		index	6420
variable	mphase1		index	41681.3434
variable	vphase1		index	130591.498627
variable	lbox		index	50.7346850343
variable	lphase1		index	50.7346850343
variable	lxx		index	50.7346850343
variable	lyy		index	50.7346850343
variable	lzz		index	50.7346850343
variable	lzy		index	0
variable	lzx		index	0
variable	lyx		index	0
variable	vtotal		index	130591.498627
variable	nl_poly		index	10

# Types

variable	type_c		index	1
variable	type_c1		index	2
variable	type_cp		index	3
variable	type_hc		index	4

variable	type_bond_c_c	index	1
variable	type_bond_c_c1	index	2
variable	type_bond_c_cp	index	3
variable	type_bond_c_hc	index	4
variable	type_bond_c1_cp	index	5
variable	type_bond_c1_hc	index	6
variable	type_bond_cp_cp	index	7
variable	type_bond_cp_hc	index	8

variable	type_angle_c_c_c1 index	1
variable	type_angle_c_c_cp index	2
variable	type_angle_c_c_hc index	3
variable	type_angle_c_c1_c index	4
variable	type_angle_c_c1_cp index	5
variable	type_angle_c_c1_hc index	6
variable	type_angle_c_cp_cp index	7
variable	type_angle_c1_c_c1 index	8
variable	type_angle_c1_c_hc index	9
variable	type_angle_c1_cp_cp index	10
variable	type_angle_cp_c_hc index	11
variable	type_angle_cp_c1_hc index	12
variable	type_angle_cp_cp_cp index	13
variable	type_angle_cp_cp_hc index	14
variable	type_angle_hc_c_hc index	15

# Clusters

variable	n0_poly		index	1
variable	n1_poly		index	10
variable	nl_poly		index	10

# Flags

variable	flag_charged	index	1

# Masses

mass		1    12.01115  # c
mass		2    12.01115  # c1
mass		3    12.01115  # cp
mass		4     1.00797  # hc

# Potentials

pair_modify	mix sixthpower tail yes
special_bonds	lj/coul 0 0 1

# Pair Coeffs

pair_coeff	 1  1    0.05400    4.01000  # c,c
pair_coeff	 2  2    0.05400    4.01000  # c1,c1
pair_coeff	 3  3    0.06400    4.01000  # cp,cp
pair_coeff	 4  4    0.02000    2.99500  # hc,hc

# Bond Coeffs

bond_coeff	1    1.53000  299.67000 -501.77000  679.81000  # c,c
bond_coeff	2    1.53000  299.67000 -501.77000  679.81000  # c,c1
bond_coeff	3    1.50100  321.90210 -521.82080  572.16280  # c,cp
bond_coeff	4    1.10100  345.00000 -691.89000  844.60000  # c,hc
bond_coeff	5    1.50100  321.90210 -521.82080  572.16280  # c1,cp
bond_coeff	6    1.10100  345.00000 -691.89000  844.60000  # c1,hc
bond_coeff	7    1.41700  470.83610 -627.61790 1327.63450  # cp,cp
bond_coeff	8    1.09820  372.82510 -803.45260  894.31730  # cp,hc

# Angle Coeffs

angle_coeff	 1  112.67000   39.51600   -7.44300   -9.55830  # c,c,c1
angle_coeff	 2  108.40000   43.95940   -8.39240   -9.33790  # c,c,cp
angle_coeff	 3  110.77000   41.45300  -10.60400    5.12900  # c,c,hc
angle_coeff	 4  112.67000   39.51600   -7.44300   -9.55830  # c,c1,c
angle_coeff	 5  108.40000   43.95940   -8.39240   -9.33790  # c,c1,cp
angle_coeff	 6  110.77000   41.45300  -10.60400    5.12900  # c,c1,hc
angle_coeff	 7  120.05000   44.71480  -22.73520    0.00000  # c,cp,cp
angle_coeff	 8  112.67000   39.51600   -7.44300   -9.55830  # c1,c,c1
angle_coeff	 9  110.77000   41.45300  -10.60400    5.12900  # c1,c,hc
angle_coeff	10  120.05000   44.71480  -22.73520    0.00000  # c1,cp,cp
angle_coeff	11  111.00000   44.32340   -9.44540    0.00000  # cp,c,hc
angle_coeff	12  111.00000   44.32340   -9.44540    0.00000  # cp,c1,hc
angle_coeff	13  118.90000   61.02260  -34.99310    0.00000  # cp,cp,cp
angle_coeff	14  117.94000   35.15580  -12.46820    0.00000  # cp,cp,hc
angle_coeff	15  107.66000   39.64100  -12.92100   -2.43180  # hc,c,hc

# BondBond Coeffs

angle_coeff	 1 bb    0.00000    1.53000    1.53000  # c,c,c1
angle_coeff	 2 bb    0.00000    1.53000    1.50100  # c,c,cp
angle_coeff	 3 bb    3.38720    1.53000    1.10100  # c,c,hc
angle_coeff	 4 bb    0.00000    1.53000    1.53000  # c,c1,c
angle_coeff	 5 bb    0.00000    1.53000    1.50100  # c,c1,cp
angle_coeff	 6 bb    3.38720    1.53000    1.10100  # c,c1,hc
angle_coeff	 7 bb   12.06760    1.50100    1.41700  # c,cp,cp
angle_coeff	 8 bb    0.00000    1.53000    1.53000  # c1,c,c1
angle_coeff	 9 bb    3.38720    1.53000    1.10100  # c1,c,hc
angle_coeff	10 bb   12.06760    1.50100    1.41700  # c1,cp,cp
angle_coeff	11 bb    2.91680    1.50100    1.10100  # cp,c,hc
angle_coeff	12 bb    2.91680    1.50100    1.10100  # cp,c1,hc
angle_coeff	13 bb   68.28560    1.41700    1.41700  # cp,cp,cp
angle_coeff	14 bb    1.07950    1.41700    1.09820  # cp,cp,hc
angle_coeff	15 bb    5.33160    1.10100    1.10100  # hc,c,hc

# BondAngle Coeffs

angle_coeff	 1 ba    8.01600    8.01600    1.53000    1.53000  # c,c,c1
angle_coeff	 2 ba    0.00000    0.00000    1.53000    1.50100  # c,c,cp
angle_coeff	 3 ba   20.75400   11.42100    1.53000    1.10100  # c,c,hc
angle_coeff	 4 ba    8.01600    8.01600    1.53000    1.53000  # c,c1,c
angle_coeff	 5 ba    0.00000    0.00000    1.53000    1.50100  # c,c1,cp
angle_coeff	 6 ba   20.75400   11.42100    1.53000    1.10100  # c,c1,hc
angle_coeff	 7 ba   47.05790   31.07710    1.50100    1.41700  # c,cp,cp
angle_coeff	 8 ba    8.01600    8.01600    1.53000    1.53000  # c1,c,c1
angle_coeff	 9 ba   20.75400   11.42100    1.53000    1.10100  # c1,c,hc
angle_coeff	10 ba   47.05790   31.07710    1.50100    1.41700  # c1,cp,cp
angle_coeff	11 ba   26.46080   11.77170    1.50100    1.10100  # cp,c,hc
angle_coeff	12 ba   26.46080   11.77170    1.50100    1.10100  # cp,c1,hc
angle_coeff	13 ba   28.87080   28.87080    1.41700    1.41700  # cp,cp,cp
angle_coeff	14 ba   20.00330   24.21830    1.41700    1.09820  # cp,cp,hc
angle_coeff	15 ba   18.10300   18.10300    1.10100    1.10100  # hc,c,hc

# Dihedral Coeffs

dihedral_coeff	 1    0.00000    0.00000    0.05140    0.00000   -0.14300    0.00000  # c,c,c1,c
dihedral_coeff	 2    0.00000    0.00000    0.00000    0.00000    0.15800  180.00000  # c,c,c1,cp
dihedral_coeff	 3    0.00000    0.00000    0.03160    0.00000   -0.16810    0.00000  # c,c,c1,hc
dihedral_coeff	 4   -0.28020    0.00000   -0.06780    0.00000   -0.01220    0.00000  # c,c,cp,cp
dihedral_coeff	 5    0.00000    0.00000    0.05140    0.00000   -0.14300    0.00000  # c,c1,c,c1
dihedral_coeff	 6    0.00000    0.00000    0.03160    0.00000   -0.16810    0.00000  # c,c1,c,hc
dihedral_coeff	 7   -0.28020    0.00000   -0.06780    0.00000   -0.01220    0.00000  # c,c1,cp,cp
dihedral_coeff	 8    0.00000    0.00000    4.40720    0.00000    0.00000    0.00000  # c,cp,cp,cp
dihedral_coeff	 9    0.00000    0.00000    1.55900    0.00000    0.00000    0.00000  # c,cp,cp,hc
dihedral_coeff	10    0.00000    0.00000    0.00000    0.00000    0.15800  180.00000  # c1,c,c,cp
dihedral_coeff	11    0.00000    0.00000    0.03160    0.00000   -0.16810    0.00000  # c1,c,c,hc
dihedral_coeff	12    0.00000    0.00000    0.00000    0.00000    0.15800  180.00000  # c1,c,c1,cp
dihedral_coeff	13    0.00000    0.00000    0.03160    0.00000   -0.16810    0.00000  # c1,c,c1,hc
dihedral_coeff	14    0.00000    0.00000    4.40720    0.00000    0.00000    0.00000  # c1,cp,cp,cp
dihedral_coeff	15    0.00000    0.00000    1.55900    0.00000    0.00000    0.00000  # c1,cp,cp,hc
dihedral_coeff	16   -0.02280    0.00000    0.02800    0.00000   -0.18630    0.00000  # cp,c,c,hc
dihedral_coeff	17   -0.02280    0.00000    0.02800    0.00000   -0.18630    0.00000  # cp,c1,c,hc
dihedral_coeff	18   -0.28010    0.00000   -0.06780    0.00000   -0.01220    0.00000  # cp,cp,c,hc
dihedral_coeff	19   -0.28010    0.00000   -0.06780    0.00000   -0.01220    0.00000  # cp,cp,c1,hc
dihedral_coeff	20    8.36670    0.00000    1.19320    0.00000    0.00000    0.00000  # cp,cp,cp,cp
dihedral_coeff	21    0.00000    0.00000    3.96610    0.00000    0.00000    0.00000  # cp,cp,cp,hc
dihedral_coeff	22   -0.14320    0.00000    0.06170    0.00000   -0.10830    0.00000  # hc,c,c,hc
dihedral_coeff	23   -0.14320    0.00000    0.06170    0.00000   -0.10830    0.00000  # hc,c,c1,hc
dihedral_coeff	24    0.00000    0.00000    1.87690    0.00000    0.00000    0.00000  # hc,cp,cp,hc

# MiddleBondTorsion Coeffs

dihedral_coeff	 1 mbt  -17.78700   -7.18770    0.00000    1.53000  # c,c,c1,c
dihedral_coeff	 2 mbt    0.00000    0.00000    0.00000    1.53000  # c,c,c1,cp
dihedral_coeff	 3 mbt  -14.87900   -3.65810   -0.31380    1.53000  # c,c,c1,hc
dihedral_coeff	 4 mbt    0.00000    0.00000    0.00000    1.50100  # c,c,cp,cp
dihedral_coeff	 5 mbt  -17.78700   -7.18770    0.00000    1.53000  # c,c1,c,c1
dihedral_coeff	 6 mbt  -14.87900   -3.65810   -0.31380    1.53000  # c,c1,c,hc
dihedral_coeff	 7 mbt    0.00000    0.00000    0.00000    1.50100  # c,c1,cp,cp
dihedral_coeff	 8 mbt    0.00000    9.17920    0.00000    1.41700  # c,cp,cp,cp
dihedral_coeff	 9 mbt    0.00000    3.94210    0.00000    1.41700  # c,cp,cp,hc
dihedral_coeff	10 mbt    0.00000    0.00000    0.00000    1.53000  # c1,c,c,cp
dihedral_coeff	11 mbt  -14.87900   -3.65810   -0.31380    1.53000  # c1,c,c,hc
dihedral_coeff	12 mbt    0.00000    0.00000    0.00000    1.53000  # c1,c,c1,cp
dihedral_coeff	13 mbt  -14.87900   -3.65810   -0.31380    1.53000  # c1,c,c1,hc
dihedral_coeff	14 mbt    0.00000    9.17920    0.00000    1.41700  # c1,cp,cp,cp
dihedral_coeff	15 mbt    0.00000    3.94210    0.00000    1.41700  # c1,cp,cp,hc
dihedral_coeff	16 mbt    0.00000    0.00000    0.00000    1.53000  # cp,c,c,hc
dihedral_coeff	17 mbt    0.00000    0.00000    0.00000    1.53000  # cp,c1,c,hc
dihedral_coeff	18 mbt   -5.56790    1.40830    0.30100    1.50100  # cp,cp,c,hc
dihedral_coeff	19 mbt   -5.56790    1.40830    0.30100    1.50100  # cp,cp,c1,hc
dihedral_coeff	20 mbt   27.59890   -2.31200    0.00000    1.41700  # cp,cp,cp,cp
dihedral_coeff	21 mbt    0.00000   -1.15210    0.00000    1.41700  # cp,cp,cp,hc
dihedral_coeff	22 mbt  -14.26100   -0.53220   -0.48640    1.53000  # hc,c,c,hc
dihedral_coeff	23 mbt  -14.26100   -0.53220   -0.48640    1.53000  # hc,c,c1,hc
dihedral_coeff	24 mbt    0.00000    4.82280    0.00000    1.41700  # hc,cp,cp,hc

# EndBondTorsion Coeffs

dihedral_coeff	 1 ebt   -0.07320    0.00000    0.00000   -0.07320    0.00000    0.00000    1.53000    1.53000  # c,c,c1,c
dihedral_coeff	 2 ebt    0.00000    0.00000    0.00000    0.00000    0.00000    0.00000    1.53000    1.50100  # c,c,c1,cp
dihedral_coeff	 3 ebt    0.24860    0.24220   -0.09250    0.08140    0.05910    0.22190    1.53000    1.10100  # c,c,c1,hc
dihedral_coeff	 4 ebt    0.00000    0.00000    0.00000    0.00000    0.00000    0.00000    1.53000    1.41700  # c,c,cp,cp
dihedral_coeff	 5 ebt   -0.07320    0.00000    0.00000   -0.07320    0.00000    0.00000    1.53000    1.53000  # c,c1,c,c1
dihedral_coeff	 6 ebt    0.24860    0.24220   -0.09250    0.08140    0.05910    0.22190    1.53000    1.10100  # c,c1,c,hc
dihedral_coeff	 7 ebt    0.00000    0.00000    0.00000    0.00000    0.00000    0.00000    1.53000    1.41700  # c,c1,cp,cp
dihedral_coeff	 8 ebt    0.00000    0.24210    0.00000    0.00000   -0.69180    0.00000    1.50100    1.41700  # c,cp,cp,cp
dihedral_coeff	 9 ebt    0.00000   -1.79700    0.00000    0.00000   -0.48790    0.00000    1.50100    1.09820  # c,cp,cp,hc
dihedral_coeff	10 ebt    0.00000    0.00000    0.00000    0.00000    0.00000    0.00000    1.53000    1.50100  # c1,c,c,cp
dihedral_coeff	11 ebt    0.24860    0.24220   -0.09250    0.08140    0.05910    0.22190    1.53000    1.10100  # c1,c,c,hc
dihedral_coeff	12 ebt    0.00000    0.00000    0.00000    0.00000    0.00000    0.00000    1.53000    1.50100  # c1,c,c1,cp
dihedral_coeff	13 ebt    0.24860    0.24220   -0.09250    0.08140    0.05910    0.22190    1.53000    1.10100  # c1,c,c1,hc
dihedral_coeff	14 ebt    0.00000    0.24210    0.00000    0.00000   -0.69180    0.00000    1.50100    1.41700  # c1,cp,cp,cp
dihedral_coeff	15 ebt    0.00000   -1.79700    0.00000    0.00000   -0.48790    0.00000    1.50100    1.09820  # c1,cp,cp,hc
dihedral_coeff	16 ebt    0.00000    0.00000    0.00000    0.00000    0.00000    0.00000    1.50100    1.10100  # cp,c,c,hc
dihedral_coeff	17 ebt    0.00000    0.00000    0.00000    0.00000    0.00000    0.00000    1.50100    1.10100  # cp,c1,c,hc
dihedral_coeff	18 ebt   -0.58350    1.12200    0.39780    1.39970    0.77560    0.00000    1.41700    1.10100  # cp,cp,c,hc
dihedral_coeff	19 ebt   -0.58350    1.12200    0.39780    1.39970    0.77560    0.00000    1.41700    1.10100  # cp,cp,c1,hc
dihedral_coeff	20 ebt   -0.11850    6.32040    0.00000   -0.11850    6.32040    0.00000    1.41700    1.41700  # cp,cp,cp,cp
dihedral_coeff	21 ebt    0.00000   -6.89580    0.00000    0.00000   -0.46690    0.00000    1.41700    1.09820  # cp,cp,cp,hc
dihedral_coeff	22 ebt    0.21300    0.31200    0.07770    0.21300    0.31200    0.07770    1.10100    1.10100  # hc,c,c,hc
dihedral_coeff	23 ebt    0.21300    0.31200    0.07770    0.21300    0.31200    0.07770    1.10100    1.10100  # hc,c,c1,hc
dihedral_coeff	24 ebt    0.00000   -0.68900    0.00000    0.00000   -0.68900    0.00000    1.09820    1.09820  # hc,cp,cp,hc

# AngleTorsion Coeffs

dihedral_coeff	 1 at    0.38860   -0.31390    0.13890    0.38860   -0.31390    0.13890  112.67000  112.67000  # c,c,c1,c
dihedral_coeff	 2 at    0.00000    0.00000    0.00000    0.00000    0.00000    0.00000  112.67000  108.40000  # c,c,c1,cp
dihedral_coeff	 3 at   -0.24540    0.00000   -0.11360    0.31130    0.45160   -0.19880  112.67000  110.77000  # c,c,c1,hc
dihedral_coeff	 4 at    0.00000    0.00000    0.00000    0.00000    0.00000    0.00000  108.40000  120.05000  # c,c,cp,cp
dihedral_coeff	 5 at    0.38860   -0.31390    0.13890    0.38860   -0.31390    0.13890  112.67000  112.67000  # c,c1,c,c1
dihedral_coeff	 6 at   -0.24540    0.00000   -0.11360    0.31130    0.45160   -0.19880  112.67000  110.77000  # c,c1,c,hc
dihedral_coeff	 7 at    0.00000    0.00000    0.00000    0.00000    0.00000    0.00000  108.40000  120.05000  # c,c1,cp,cp
dihedral_coeff	 8 at    0.00000   -4.46830    0.00000    0.00000    3.89870    0.00000  120.05000  118.90000  # c,cp,cp,cp
dihedral_coeff	 9 at    0.00000   -0.12420    0.00000    0.00000    3.46010    0.00000  120.05000  117.94000  # c,cp,cp,hc
dihedral_coeff	10 at    0.00000    0.00000    0.00000    0.00000    0.00000    0.00000  112.67000  108.40000  # c1,c,c,cp
dihedral_coeff	11 at   -0.24540    0.00000   -0.11360    0.31130    0.45160   -0.19880  112.67000  110.77000  # c1,c,c,hc
dihedral_coeff	12 at    0.00000    0.00000    0.00000    0.00000    0.00000    0.00000  112.67000  108.40000  # c1,c,c1,cp
dihedral_coeff	13 at   -0.24540    0.00000   -0.11360    0.31130    0.45160   -0.19880  112.67000  110.77000  # c1,c,c1,hc
dihedral_coeff	14 at    0.00000   -4.46830    0.00000    0.00000    3.89870    0.00000  120.05000  118.90000  # c1,cp,cp,cp
dihedral_coeff	15 at    0.00000   -0.12420    0.00000    0.00000    3.46010    0.00000  120.05000  117.94000  # c1,cp,cp,hc
dihedral_coeff	16 at    0.00000    0.00000    0.00000    0.00000    0.00000    0.00000  108.40000  110.77000  # cp,c,c,hc
dihedral_coeff	17 at    0.00000    0.00000    0.00000    0.00000    0.00000    0.00000  108.40000  110.77000  # cp,c1,c,hc
dihedral_coeff	18 at    0.22510    0.65480    0.12370    4.62660    0.16320    0.04610  120.05000  111.00000  # cp,cp,c,hc
dihedral_coeff	19 at    0.22510    0.65480    0.12370    4.62660    0.16320    0.04610  120.05000  111.00000  # cp,cp,c1,hc
dihedral_coeff	20 at    1.97670    1.02390    0.00000    1.97670    1.02390    0.00000  118.90000  118.90000  # cp,cp,cp,cp
dihedral_coeff	21 at    0.00000    2.50140    0.00000    0.00000    2.71470    0.00000  118.90000  117.94000  # cp,cp,cp,hc
dihedral_coeff	22 at   -0.80850    0.55690   -0.24660   -0.80850    0.55690   -0.24660  110.77000  110.77000  # hc,c,c,hc
dihedral_coeff	23 at   -0.80850    0.55690   -0.24660   -0.80850    0.55690   -0.24660  110.77000  110.77000  # hc,c,c1,hc
dihedral_coeff	24 at    0.00000    2.45010    0.00000    0.00000    2.45010    0.00000  117.94000  117.94000  # hc,cp,cp,hc

# AngleAngleTorsion Coeffs

dihedral_coeff	 1 aat  -22.04500  112.67000  112.67000  # c,c,c1,c
dihedral_coeff	 2 aat    0.00000  112.67000  108.40000  # c,c,c1,cp
dihedral_coeff	 3 aat  -16.16400  112.67000  110.77000  # c,c,c1,hc
dihedral_coeff	 4 aat    0.00000  108.40000  120.05000  # c,c,cp,cp
dihedral_coeff	 5 aat  -22.04500  112.67000  112.67000  # c,c1,c,c1
dihedral_coeff	 6 aat  -16.16400  112.67000  110.77000  # c,c1,c,hc
dihedral_coeff	 7 aat    0.00000  108.40000  120.05000  # c,c1,cp,cp
dihedral_coeff	 8 aat  -14.40970  120.05000  118.90000  # c,cp,cp,cp
dihedral_coeff	 9 aat    4.44440  120.05000  117.94000  # c,cp,cp,hc
dihedral_coeff	10 aat    0.00000  112.67000  108.40000  # c1,c,c,cp
dihedral_coeff	11 aat  -16.16400  112.67000  110.77000  # c1,c,c,hc
dihedral_coeff	12 aat    0.00000  112.67000  108.40000  # c1,c,c1,cp
dihedral_coeff	13 aat  -16.16400  112.67000  110.77000  # c1,c,c1,hc
dihedral_coeff	14 aat  -14.40970  120.05000  118.90000  # c1,cp,cp,cp
dihedral_coeff	15 aat    4.44440  120.05000  117.94000  # c1,cp,cp,hc
dihedral_coeff	16 aat    0.00000  108.40000  110.77000  # cp,c,c,hc
dihedral_coeff	17 aat    0.00000  108.40000  110.77000  # cp,c1,c,hc
dihedral_coeff	18 aat   -5.88880  120.05000  111.00000  # cp,cp,c,hc
dihedral_coeff	19 aat   -5.88880  120.05000  111.00000  # cp,cp,c1,hc
dihedral_coeff	20 aat    0.00000  118.90000  118.90000  # cp,cp,cp,cp
dihedral_coeff	21 aat   -4.81410  118.90000  117.94000  # cp,cp,cp,hc
dihedral_coeff	22 aat  -12.56400  110.77000  110.77000  # hc,c,c,hc
dihedral_coeff	23 aat  -12.56400  110.77000  110.77000  # hc,c,c1,hc
dihedral_coeff	24 aat    0.35980  117.94000  117.94000  # hc,cp,cp,hc

# BondBond13 Coeffs

dihedral_coeff	 1 bb13    0.00000    1.53000    1.53000  # c,c,c1,c
dihedral_coeff	 2 bb13    0.00000    1.53000    1.50100  # c,c,c1,cp
dihedral_coeff	 3 bb13    0.00000    1.53000    1.10100  # c,c,c1,hc
dihedral_coeff	 4 bb13    0.00000    1.53000    1.41700  # c,c,cp,cp
dihedral_coeff	 5 bb13    0.00000    1.53000    1.53000  # c,c1,c,c1
dihedral_coeff	 6 bb13    0.00000    1.53000    1.10100  # c,c1,c,hc
dihedral_coeff	 7 bb13    0.00000    1.53000    1.41700  # c,c1,cp,cp
dihedral_coeff	 8 bb13    2.50850    1.50100    1.41700  # c,cp,cp,cp
dihedral_coeff	 9 bb13    0.87430    1.50100    1.09820  # c,cp,cp,hc
dihedral_coeff	10 bb13    0.00000    1.53000    1.50100  # c1,c,c,cp
dihedral_coeff	11 bb13    0.00000    1.53000    1.10100  # c1,c,c,hc
dihedral_coeff	12 bb13    0.00000    1.53000    1.50100  # c1,c,c1,cp
dihedral_coeff	13 bb13    0.00000    1.53000    1.10100  # c1,c,c1,hc
dihedral_coeff	14 bb13    2.50850    1.50100    1.41700  # c1,cp,cp,cp
dihedral_coeff	15 bb13    0.87430    1.50100    1.09820  # c1,cp,cp,hc
dihedral_coeff	16 bb13    0.00000    1.50100    1.10100  # cp,c,c,hc
dihedral_coeff	17 bb13    0.00000    1.50100    1.10100  # cp,c1,c,hc
dihedral_coeff	18 bb13   -3.48260    1.41700    1.10100  # cp,cp,c,hc
dihedral_coeff	19 bb13   -3.48260    1.41700    1.10100  # cp,cp,c1,hc
dihedral_coeff	20 bb13   53.00000    1.41700    1.41700  # cp,cp,cp,cp
dihedral_coeff	21 bb13   -6.27410    1.41700    1.09820  # cp,cp,cp,hc
dihedral_coeff	22 bb13    0.00000    1.10100    1.10100  # hc,c,c,hc
dihedral_coeff	23 bb13    0.00000    1.10100    1.10100  # hc,c,c1,hc
dihedral_coeff	24 bb13   -1.70770    1.09820    1.09820  # hc,cp,cp,hc

# Improper Coeffs

improper_coeff	 1    0.00000    0.00000  # c,c,cp,hc
improper_coeff	 2    0.00000    0.00000  # c,c,hc,c1
improper_coeff	 3    0.00000    0.00000  # c,c,hc,cp
improper_coeff	 4    0.00000    0.00000  # c,c,hc,hc
improper_coeff	 5    0.00000    0.00000  # c,c1,c1,hc
improper_coeff	 6    0.00000    0.00000  # c,c1,hc,hc
improper_coeff	 7    0.00000    0.00000  # c,cp,hc,hc
improper_coeff	 8    0.00000    0.00000  # c,hc,hc,hc
improper_coeff	 9    0.00000    0.00000  # c1,c,c,cp
improper_coeff	10    0.00000    0.00000  # c1,c,c,hc
improper_coeff	11    0.00000    0.00000  # c1,c,cp,hc
improper_coeff	12    7.81530    0.00000  # cp,c,cp,cp
improper_coeff	13    7.81530    0.00000  # cp,c1,cp,cp
improper_coeff	14    4.89120    0.00000  # cp,cp,cp,hc

# AngleAngle Coeffs

improper_coeff	 1 aa    2.04030   -1.82020    1.08270  108.40000  110.77000  111.00000  # c,c,cp,hc
improper_coeff	 2 aa    0.11840   -1.31990   -1.31990  110.77000  112.67000  110.77000  # c,c,hc,c1
improper_coeff	 3 aa    1.08270   -1.82020    2.04030  110.77000  108.40000  111.00000  # c,c,hc,cp
improper_coeff	 4 aa    0.27380   -0.48250    0.27380  110.77000  110.77000  107.66000  # c,c,hc,hc
improper_coeff	 5 aa   -1.31990   -1.31990    0.11840  112.67000  110.77000  110.77000  # c,c1,c1,hc
improper_coeff	 6 aa    0.27380   -0.48250    0.27380  110.77000  110.77000  107.66000  # c,c1,hc,hc
improper_coeff	 7 aa    2.37940    3.01180    2.37940  111.00000  111.00000  107.66000  # c,cp,hc,hc
improper_coeff	 8 aa   -0.31570   -0.31570   -0.31570  107.66000  107.66000  107.66000  # c,hc,hc,hc
improper_coeff	 9 aa    0.00000    0.00000    0.00000  112.67000  108.40000  108.40000  # c1,c,c,cp
improper_coeff	10 aa   -1.31990   -1.31990    0.11840  112.67000  110.77000  110.77000  # c1,c,c,hc
improper_coeff	11 aa    2.04030   -1.82020    1.08270  108.40000  110.77000  111.00000  # c1,c,cp,hc
improper_coeff	12 aa    0.00000    0.00000    0.00000  120.05000  120.05000  118.90000  # cp,c,cp,cp
improper_coeff	13 aa    0.00000    0.00000    0.00000  120.05000  120.05000  118.90000  # cp,c1,cp,cp
improper_coeff	14 aa    0.00000    0.00000    0.00000  118.90000  117.94000  117.94000  # cp,cp,cp,hc


# --- Thermo Output ---
thermo_style custom step time temp press enthalpy etotal ke pe ebond eangle edihed eimp evdwl ecoul elong etail vol lx ly lz density pxx pyy pzz
thermo_modify flush yes
thermo 1000

# --- Trajectory ---
dump dump_npt all custom 1000 npt_pppm.dump id type mol x y z ix iy iz vx vy vz

# --- Restart Checkpointing ---
restart 10000 npt_1.rst npt_2.rst

# --- Initial Velocities (optional) ---
# Velocities read from data file

# --- SHAKE Constraints ---
# SHAKE disabled

# --- NPT Thermostat + Barostat (Nose-Hoover) ---
# T_damp = 100.0 fs  (heat bath coupling)
# P_damp = 1000.0 fs  (pressure bath coupling, ~10x T_damp typical)
# Ramp: T=630.0->630.0K  P=50000.0->1.0atm
timestep 1.0
fix npt_fix all npt temp 630.0 630.0 100.0 iso 50000.0 1.0 1000.0

run 500000
PPPM Kokkos initialization ...
  using 12-bit tables for long-range coulomb
  G vector (1/distance) = 0.30278044
  grid = 27 27 27
  stencil order = 5
  estimated absolute RMS force accuracy = 0.00031626594
  estimated relative force accuracy = 9.5242549e-07
  using double precision cuFFT
  3d grid and FFT values/proc = 39304 19683
Generated 6 of 6 mixed pair_coeff terms from sixthpower/sixthpower mixing rule
Neighbor list info ...
  update: every = 1 steps, delay = 0 steps, check = yes
  max neighbors/atom: 4000, page size: 100000
  master list distance cutoff = 11.5
  ghost atom cutoff = 11.5
  binsize = 11.5, bins = 4 4 4
  1 neighbor lists, perpetual/occasional/extra = 1 0 0
  (1) pair lj/class2/coul/long/kk, perpetual
      attributes: full, newton off, kokkos_device
      pair build: full/bin/kk/device
      stencil: full/bin/3d
      bin: kk/device
Per MPI rank memory allocation (min/avg/max) = 45.91 | 45.91 | 45.91 Mbytes
   Step          Time           Temp          Press         Enthalpy        TotEng         KinEng         PotEng         E_bond        E_angle        E_dihed        E_impro         E_vdwl         E_coul         E_long         E_tail         Volume           Lx             Ly             Lz          Density          Pxx            Pyy            Pzz      
         0   0              621.52572      49779.258      61303.365      24338.796      11892.161      12446.635      5086.3698      4872.9356     -868.41783      434.22325      3125.5011      3818.0968     -4022.0737     -564.88782      50916.829      37.064128      37.064128      37.064128      1.3593442      53451.577      47303.309      48582.887    
      1000   1000           623.65775      49147.468      61353.596      24859.305      11932.955      12926.35       5183.0267      5055.5101     -739.80105      448.02706      3168.7034      3832.6982     -4021.8139     -564.90534      50915.25       37.063745      37.063745      37.063745      1.3593863      50341.122      48627.247      48474.034    
      2000   2000           629.04192      49590.234      61612.511      25058.561      12035.975      13022.586      5187.6577      4949.5189     -662.66262      449.86671      3281.7729      3840.5278     -4024.095      -569.06423      50543.146      36.973233      36.973233      36.973233      1.3693942      51732.765      51880.323      45157.615    
      3000   3000           619.72213      50230.985      61795.938      24511.789      11857.652      12654.138      5197.1995      4854.7853     -767.01355      453.86921      3122.9683      3818.2392     -4025.9102     -565.1281       50895.18       37.058874      37.058874      37.058874      1.3599224      50814.343      48777.061      51101.551    
      4000   4000           624.87636      49951.126      61759.454      24695.49       11956.272      12739.218      5187.3387      4954.0409     -795.42347      438.12089      3119.086       3852.7919     -4016.7368     -565.31807      50878.078      37.054722      37.054722      37.054722      1.3603795      48309.485      49169.684      52374.209    
      5000   5000           619.09356      50488.695      62153.657      24789.1        11845.625      12943.476      5214.4157      5067.4942     -753.92999      451.85608      3176.0613      3813.8747     -4026.2963     -566.8051       50744.597      37.022289      37.022289      37.022289      1.3639579      48880.26       52415.642      50170.182    
      6000   6000           631.02194      48982.735      61173.931      24731.4        12073.86       12657.54       5296.59        5019.4311     -853.76865      448.82201      2954.0589      3817.3838     -4024.9773     -563.81152      51014.028      37.087697      37.087697      37.087697      1.3567541      48148.021      48577.665      50222.519    
      7000   7000           623.3782       43833.572      57124.237      24560.085      11927.606      12632.479      5058.7745      4884.0562     -673.86055      453.9467       3105.4326      3830.182      -4026.0521     -564.63338      50939.774      37.069694      37.069694      37.069694      1.3587318      42875.572      42255.053      46370.091    
      8000   8000           628.57581      49573.232      61507.575      24799.637      12027.056      12772.58       5110.4801      5018.4822     -801.50143      437.54047      3210.5709      3821.6901     -4024.6821     -566.48274      50773.474      37.029311      37.029311      37.029311      1.3631821      52500.916      48203.913      48014.866    
      9000   9000           636.32165      47320.375      60125.334      24962.822      12175.264      12787.558      5183.3001      5049.3626     -767.7295       454.4603       3064.0372      3830.3731     -4026.2459     -564.50491      50951.366      37.072506      37.072506      37.072506      1.3584227      46615.93       51749.787      43595.407    
     10000   10000          629.12261      46469.165      59276.204      24641.795      12037.519      12604.276      5284.9381      4873.1814     -825.43692      449.52312      3016.9085      3826.1713     -4021.0093     -562.80317      51105.427      37.109834      37.109834      37.109834      1.3543277      46119.109      48986.182      44302.203    
     11000   11000          624.19445      47550.314      59859.691      24576.784      11943.224      12633.56       5079.2548      4942.196      -759.93234      426.85523      3133.1597      3834.821      -4022.7939     -565.31237      50878.591      37.054847      37.054847      37.054847      1.3603658      49805.416      49352.494      43493.032    
     12000   12000          632.66956      50039.323      62072.422      24810.245      12105.385      12704.86       5257.786       5010.3468     -821.30672      414.62442      3042.8719      3826.5092     -4025.9717     -563.30377      51060.011      37.098837      37.098837      37.098837      1.3555323      48663.849      52784.359      48669.762    
     13000   13000          618.96889      47695.17       60030.049      24609.658      11843.239      12766.418      5265.6291      5020.6233     -790.59126      456.5598       3019.8388      3820.9373     -4026.5784     -564.83357      50921.719      37.065314      37.065314      37.065314      1.3592136      44847.081      49984.669      48253.761    
     14000   14000          628.51619      49619.966      61773.696      24864.521      12025.916      12838.605      5179.947       5044.9944     -744.37018      445.60018      3110.6506      3826.8485     -4025.0651     -563.92528      51003.737      37.085203      37.085203      37.085203      1.3570279      50286.812      48961.14       49611.945    
     15000   15000          623.02538      47444.633      59579.477      24393.781      11920.855      12472.925      5031.7556      4796.7469     -710.51127      448.65123      3088.159       3842.755      -4024.6312     -565.61431      50851.43       37.048252      37.048252      37.048252      1.3610924      46338.172      47003.193      48992.535    
     16000   16000          626.73338      47868.275      60411.241      24874.475      11991.804      12882.671      5377.1601      4964.8591     -747.10318      444.06355      3038.2458      3830.3636     -4024.9179     -565.02714      50904.274      37.061081      37.061081      37.061081      1.3596794      47740.782      45993.249      49870.793    
     17000   17000          626.60126      49401.847      61287.251      24619.398      11989.275      12630.122      5221.4914      4858.6547     -752.13581      442.99553      3051.2091      3831.6372     -4023.7297     -565.14144      50893.979      37.058582      37.058582      37.058582      1.3599544      47403          51885.897      48916.646    
     18000   18000          626.32368      48719.932      61008.88       24786.428      11983.964      12802.464      5085.7998      5178.9096     -788.67149      460.01074      3058.737       3830.7161     -4023.0376     -564.19376      50979.466      37.07932       37.07932       37.07932       1.357674       48495.655      48264.907      49399.236    
     19000   19000          630.43005      48199.566      60642.128      24923.033      12062.535      12860.498      5332.4235      5073.2698     -821.49257      450.90787      3027.2766      3825.464      -4027.351      -566.0335       50813.771      37.039104      37.039104      37.039104      1.3621011      49547.994      46840.898      48209.806    
     20000   20000          626.7086       45924.856      58883.548      24680.755      11991.329      12689.426      5285.6663      4959.1181     -784.26126      441.71478      2989.3822      3824.0584     -4026.2528     -563.22988      51066.709      37.10046       37.10046       37.10046       1.3553545      45582.945      47843.655      44347.97     
     21000   21000          629.9875       50136.915      62029.713      24740.952      12054.067      12686.885      5360.5641      4972.2283     -862.36891      444.23219      2977.171       3820.4645     -4025.4066     -564            50996.98       37.083566      37.083566      37.083566      1.3572077      50234.016      49541.528      50635.202    
     22000   22000          630.52652      49258.317      61406.509      24768.151      12064.381      12703.77       5127.4379      5005.2389     -655.93303      470.01764      2956.4957      3824.7211     -4024.2081     -563.95314      51001.218      37.084593      37.084593      37.084593      1.3570949      49973.664      48514.461      49286.827    
     23000   23000          617.23198      45777.244      58543.953      24433.17       11810.005      12623.165      5303.4059      4872.1538     -772.69562      447.81811      2970.1259      3825.8349     -4023.4782     -562.93391      51093.558      37.106961      37.106961      37.106961      1.3546423      48050.19       45164.331      44117.212    
     24000   24000          620.03895      44906.237      58027.146      24489.579      11863.713      12625.866      5254.6718      4978.3078     -815.41237      431.37285      2973.0031      3826.8317     -4022.909      -561.66138      51209.319      37.134963      37.134963      37.134963      1.35158        45914.249      43582.782      45221.679    
     25000   25000          636.42499      47376.756      60176.646      24835.5        12177.241      12658.259      5303.0709      4800.866      -661.87469      479.61096      2917.1681      3841.2813     -4021.8634     -562.32079      51149.267      37.120442      37.120442      37.120442      1.3531669      47546.279      46734.665      47849.324    
     26000   26000          641.84759      47024.355      59817.231      24799.147      12280.996      12518.151      5100.2827      5125.3163     -866.36792      454.59628      2893.7838      3833.1777     -4022.6374     -563.28724      51061.509      37.0992        37.0992        37.0992        1.3554925      49113.559      48753.449      43206.055    
     27000   27000          620.00517      44980.269      57973.186      24414.139      11863.067      12551.072      5051.4052      5003.2649     -755.295        445.62808      2996.4229      3834.3725     -4024.7263     -562.22723      51157.779      37.122501      37.122501      37.122501      1.3529417      43961.862      44752.199      46226.746    
     28000   28000          617.71574      45460.948      58632.262      24851.552      11819.262      13032.29       5216.0688      5153.2314     -652.18718      464.47431      3055.5887      3819.2523     -4024.1379     -564.50678      50951.197      37.072465      37.072465      37.072465      1.3584272      44292.791      47190.099      44899.955    
     29000   29000          621.75376      47401.491      59944.229      24503.986      11896.524      12607.462      5257.4004      4991.5132     -879.92464      453.49537      2979.0116      3828.4754     -4022.5098     -561.04122      51265.924      37.148641      37.148641      37.148641      1.3500877      49555.126      49282.069      43367.279    
     30000   30000          624.42752      49565.686      61379.46       24407.505      11947.684      12459.822      5154.2015      5009.159      -842.83683      430.33848      2917.8883      3816.3669     -4025.2959     -562.35188      51146.44       37.119758      37.119758      37.119758      1.3532417      48219.448      48283.741      52193.867    
     31000   31000          632.54264      45744.38       58785.334      24562.039      12102.957      12459.082      5189.9086      4942.1627     -777.9816       450.05133      2857.517       3819.3398     -4021.9156     -560.68041      51298.915      37.156608      37.156608      37.156608      1.3492194      46814.214      45718.71       44700.216    
     32000   32000          627.20633      46236.246      59212.902      24637.207      12000.853      12636.355      5258.6068      4984.154      -823.43098      470.41817      2943.6485      3829.5482     -4026.5901     -560.93313      51275.802      37.151027      37.151027      37.151027      1.3498276      43950.169      47433.423      47325.145    
     33000   33000          633.94541      46540.682      59334.667      24645.778      12129.797      12515.981      5060.1702      5000.7175     -768.77627      455.8492       2955.0049      3836.0767     -4023.0613     -562.78408      51107.161      37.110253      37.110253      37.110253      1.3542817      45618.901      49573.861      44429.285    
     34000   34000          634.20683      45312.209      58404.649      24561.276      12134.799      12426.477      5181.5161      4971.7481     -831.05825      429.30846      2876.3312      3823.9431     -4025.3118     -561.61804      51213.27       37.135918      37.135918      37.135918      1.3514758      44198.016      48127.431      43611.181    
     35000   35000          625.49055      44398.178      57668.426      24476.133      11968.023      12508.11       5093.2767      4898.2876     -728.74762      452.35906      2972.1762      3844.1998     -4023.4419     -561.08329      51262.08       37.147712      37.147712      37.147712      1.3501889      45182.297      46426.616      41585.621    
     36000   36000          627.31662      44458.185      57606.922      24338.256      12002.963      12335.293      5121.4538      5010.7093     -802.26852      434.81593      2742.3109      3849.8009     -4021.5291     -560.55185      51310.68       37.159448      37.159448      37.159448      1.3489101      40638.473      47361.866      45374.215    
     37000   37000          635.82549      45882.709      59062.494      24755.874      12165.77       12590.104      5162.8628      5007.4462     -728.50732      443.25448      2904.2644      3822.1377     -4021.3546     -561.00996      51268.78       37.149331      37.149331      37.149331      1.3500125      43781.459      49877.924      43988.744    
     38000   38000          629.56625      49116.162      61263.974      24608.277      12046.007      12562.27       5134.3185      5033.4752     -930.79829      437.7813       3084.2133      3824.8691     -4021.589      -562.05964      51173.033      37.12619       37.12619       37.12619       1.3525384      49185.649      50997.857      47164.98     
     39000   39000          633.44374      42246.565      56229.566      24520.944      12120.198      12400.745      5137.7321      4871.9915     -757.92228      440.27743      2905.1666      3828.6576     -4025.1575     -558.87346      51464.775      37.19661       37.19661       37.19661       1.3448712      39353.422      43194.682      44191.591    
     40000   40000          621.59333      46058.436      58776.483      24386.862      11893.455      12493.407      5178.4683      4971.1483     -850.12129      461.55619      2916.7129      3839.2714     -4023.6289     -561.79936      51196.741      37.131923      37.131923      37.131923      1.3519121      44735.667      46472.044      46967.599    
     41000   41000          640.88576      44264.728      57859.023      24630.123      12262.593      12367.531      5125.5039      5018.3805     -862.29275      445.71228      2824.2598      3838.8723     -4022.9054     -558.78056      51473.331      37.198671      37.198671      37.198671      1.3446476      47885.116      42790.015      42119.052    
     42000   42000          624.76132      45065.051      58266.689      24441.874      11954.07       12487.804      5264.7616      4873.4943     -746.88207      437.18684      2847.9514      3833.7012     -4022.4094     -558.86111      51465.912      37.196884      37.196884      37.196884      1.3448415      44113.811      45724.751      45356.59     
     43000   43000          631.45816      41820.744      56166.915      24750.548      12082.207      12668.342      5106.2357      5134.1037     -738.04186      476.42048      2884.2554      3829.9086     -4024.5402     -558.38694      51509.615      37.20741       37.20741       37.20741       1.3437004      39968.643      42373.613      43119.976    
     44000   44000          631.6209       47894.106      60290.923      24495.05       12085.321      12409.729      5261.294       4941.6186     -961.65481      405.9344       2963.3222      3823.9023     -4024.6876     -561.23993      51247.773      37.144256      37.144256      37.144256      1.3505659      48913.487      49296.435      45472.395    
     45000   45000          642.39564      48035.129      60655.368      24630.731      12291.482      12339.248      5198.7645      4911.8855     -883.70164      437.72572      2852.6924      3845.1085     -4023.2268     -559.31799      51423.872      37.186753      37.186753      37.186753      1.3459409      47226.191      50453.6        46425.595    
     46000   46000          634.52072      45622.819      58977.739      24763.271      12140.805      12622.466      5124.2542      4978.0245     -685.00845      464.77926      2940.7719      3827.1553     -4027.5104     -559.33472      51422.334      37.186382      37.186382      37.186382      1.3459812      46446.16       45783.049      44639.247    
     47000   47000          630.59476      44676.057      57853.819      24329.313      12065.687      12263.626      5095.4511      4890.9605     -809.32701      449.71107      2835.1065      3823.0427     -4021.3189     -559.0001       51453.115      37.1938        37.1938        37.1938        1.345176       43932.046      44483.383      45612.742    
     48000   48000          623.09799      46754.998      59729.332      24663.267      11922.245      12741.022      5284.1188      5176.8892     -869.529        447.20578      2869.709       3852.0592     -4019.4308     -559.29438      51426.043      37.187276      37.187276      37.187276      1.3458841      47921.713      45248.842      47094.438    
     49000   49000          632.67017      45530.253      58690.424      24517.707      12105.397      12412.31       5215.209       5001.4978     -878.37882      427.72077      2841.7752      3829.4515     -4024.9653     -558.88185      51464.002      37.196424      37.196424      37.196424      1.3448914      44987.771      45359.42       46243.566    
     50000   50000          621.54096      44071.42       57391.499      24382.827      11892.453      12490.374      5099.6083      5150.6862     -796.24711      427.72934      2805.4289      3827.6141     -4024.4455     -560.05212      51356.463      37.170497      37.170497      37.170497      1.3477075      43947.361      43296.498      44970.402    
     51000   51000          631.46304      40203.935      54911.309      24654.344      12082.3        12572.044      5307.7202      5100.4274     -722.71376      430.72502      2649.8197      3831.042      -4024.9763     -557.3688       51603.708      37.230051      37.230051      37.230051      1.3412504      40178.443      38982.751      41450.612    
     52000   52000          633.17337      44772.825      58058.695      24402.377      12115.025      12287.352      5272.6285      4899.417      -851.09831      449.14268      2674.315       3861.9964     -4019.0489     -558.0169       51543.773      37.215632      37.215632      37.215632      1.34281        42436.29       48209.705      43672.48     
     53000   53000          624.91988      45189.273      58475.286      24504.767      11957.104      12547.663      5295.6163      5007.6298     -765.93915      450.05223      2740.2163      3845.7359     -4025.6483     -557.99797      51545.522      37.216053      37.216053      37.216053      1.3427644      45003.313      45893.096      44671.411    
     54000   54000          620.06223      44572.572      57784.941      24375.188      11864.159      12511.029      5168.1667      4964.8244     -753.19105      450.08387      2863.6714      3841.6539     -4024.1798     -559.62085      51396.042      37.180043      37.180043      37.180043      1.3466697      47764.336      42432.387      43520.992    
     55000   55000          641.44483      41646.092      56128.996      24706.891      12273.29       12433.602      5100.692       5107.472      -755.19283      448.93907      2714.4977      3840.0943     -4022.9005     -555.95346      51735.08       37.261618      37.261618      37.261618      1.3378445      38224.243      43309.744      43404.29     
     56000   56000          624.22688      44189.752      57681.904      24537.301      11943.845      12593.456      5153.562       5030.0147     -688.11763      448.50172      2815.2387      3853.221      -4018.9643     -559.25282      51429.864      37.188197      37.188197      37.188197      1.3457841      43710.507      44945.564      43913.185    
     57000   57000          642.97264      45734.829      59375.792      24961.617      12302.523      12659.094      5247.2214      5124.0134     -706.93021      472.6131       2714.7692      3829.4997     -4022.0921     -557.45415      51595.806      37.228151      37.228151      37.228151      1.3414558      46667.502      45536.462      45000.525    
     58000   58000          630.78137      44411.911      57896.359      24482.355      12069.257      12413.098      5250.8929      4950.471      -812.36398      442.80688      2766.6552      3836.1356     -4021.4994     -557.53275      51588.532      37.226402      37.226402      37.226402      1.3416449      46270.718      44130.578      42834.435    
     59000   59000          623.98538      44190.273      57495.82       24282.301      11939.224      12343.077      5051.2792      4959.1039     -720.72521      475.2873       2769.3243      3834.6191     -4025.8111     -558.099        51536.19       37.213807      37.213807      37.213807      1.3430076      40963.213      45054.183      46553.424    
     60000   60000          637.14543      45871.718      59037.086      24593.301      12191.026      12402.275      5221.4339      4959.2976     -870.66339      451.20069      2828.4544      3836.4831     -4023.9317     -558.642        51486.097      37.201746      37.201746      37.201746      1.3443142      45994.642      47315.035      44305.478    
     61000   61000          621.94091      45417.404      58593.126      24374.999      11900.105      12474.893      5058.6094      5089.4007     -765.95898      467.98517      2799.3982      3846.6566     -4021.1977     -556.75678      51660.433      37.243688      37.243688      37.243688      1.3397776      45961.317      48374.561      41916.333    
     62000   62000          628.70858      45902.452      58992.366      24458.759      12029.597      12429.163      5232.829       4969.0734     -790.956        450.33042      2769.1314      3823.2783     -4024.5237     -557.56228      51585.8        37.225744      37.225744      37.225744      1.341716       44868.14       46196.461      46642.754    
     63000   63000          638.0778       43545.195      57687.294      24877.904      12208.866      12669.038      5379.9325      5119.484      -833.82615      424.39535      2759.4625      3842.6957     -4023.1059     -556.72603      51663.287      37.244374      37.244374      37.244374      1.3397036      42254.52       42615.177      45765.889    
     64000   64000          630.42574      45274.346      58632.933      24621.628      12062.452      12559.175      5291.0686      4923.6175     -751.32073      436.95848      2837.4953      3843.8607     -4022.5046     -558.37805      51510.436      37.207607      37.207607      37.207607      1.343679       44604.34       46869.507      44349.192    
     65000   65000          623.74881      43251.217      56996.533      24389.966      11934.697      12455.269      5172.4584      4953.5336     -712.16899      460.84485      2768.46        3833.5487     -4021.4076     -556.40716      51692.894      37.251487      37.251487      37.251487      1.3389363      42306.267      44463.648      42983.736    
     66000   66000          634.47602      47172.956      60370.921      24811.359      12139.95       12671.409      5299.5168      5058.3507     -745.84915      447.70614      2785.0354      3844.7674     -4018.1186     -556.46279      51687.726      37.250246      37.250246      37.250246      1.3390702      46850.325      47120.815      47547.727    
     67000   67000          631.18939      43777.813      57507.011      24439.2        12077.064      12362.136      5346.9892      4965.409      -966.43366      430.55358      2784.219       3826.7292     -4025.3302     -555.32608      51793.528      37.275645      37.275645      37.275645      1.3363348      42623.399      42973.139      45736.9      
     68000   68000          638.87285      45129.395      58606.275      24600.425      12224.078      12376.347      5230.3953      4980.4941     -830.86833      442.65874      2745.2702      3830.9258     -4022.5291     -556.67962      51667.594      37.245409      37.245409      37.245409      1.339592       46450.292      46075.958      42861.934    
     69000   69000          623.93007      42855.656      56502.327      24135.069      11938.166      12196.904      5053.499       4933.3992     -746.33037      451.7175       2694.6811      3831.6304     -4021.693      -555.39465      51787.133      37.274111      37.274111      37.274111      1.3364998      43128.794      45424.528      40013.646    
     70000   70000          634.30629      45335.298      58718.386      24531.774      12136.702      12395.072      5117.5946      5066.179      -838.57215      460.3524       2766.0387      3841.4717     -4017.9927     -556.26259      51706.329      37.254714      37.254714      37.254714      1.3385884      43839.385      46049.966      46116.543    
     71000   71000          619.61757      41827.086      55896.98       24325.443      11855.651      12469.792      5138.5506      5051.6563     -792.31036      443.39629      2800.2605      3846.1917     -4017.953      -555.72679      51756.181      37.266683      37.266683      37.266683      1.3372991      41182.897      43267.59       41030.771    
     72000   72000          631.46394      40557.552      54719.785      24001.592      12082.317      11919.275      4918.1301      4919.9496     -767.8134       444.31134      2591.4802      3837.1531     -4023.9363     -553.82877      51933.555      37.309207      37.309207      37.309207      1.3327317      39388.97       40003.608      42280.077    
     73000   73000          626.42654      37740.751      52974.618      24467.337      11985.933      12481.405      5359.519       4984.0034     -740.24687      435.04235      2605.3685      3854.0438     -4016.3255     -555.33392      51792.796      37.275469      37.275469      37.275469      1.3363537      38918.801      37271.904      37031.549    
     74000   74000          631.3917       42331.374      56413.538      24533.632      12080.935      12452.697      5259.8283      4983.8444     -797.10026      452.97303      2745.9877      3829.0342     -4021.8699     -556.98665      51639.113      37.238564      37.238564      37.238564      1.3403308      41242.575      42573.075      43178.472    
     75000   75000          630.58567      40925.192      55221.992      24199.564      12065.512      12134.051      5198.3043      4914.4827     -796.45183      444.49047      2546.0076      3845.4555     -4018.2377     -553.36844      51976.757      37.319549      37.319549      37.319549      1.3316239      41102.342      43260.586      38412.649    
     76000   76000          632.74523      42619.808      56476.222      24244.575      12106.833      12137.741      5222.9154      4861.0428     -848.03023      430.97054      2651.6081      3841.0245     -4021.7897     -554.66203      51855.536      37.290514      37.290514      37.290514      1.3347368      40315.216      42927.855      44616.353    
     77000   77000          625.53574      43942.269      57626.283      24329.548      11968.888      12360.66       5261.3069      5049.0149     -822.16252      454.40908      2608.6728      3830.3952     -4020.9766     -553.57984      51956.907      37.314798      37.314798      37.314798      1.3321327      45945.838      43026.9        42854.069    
     78000   78000          616.90238      41881.075      55713.791      24001.637      11803.699      12197.938      5034.9151      5007.4459     -780.62615      457.24704      2653.0744      3844.7518     -4018.8698     -553.97674      51919.683      37.305885      37.305885      37.305885      1.3330878      38971.527      43373.795      43297.902    
     79000   79000          620.46177      42924.178      56729.616      24158.899      11871.804      12287.095      5298.4605      5121.9318     -895.86073      429.24558      2501.9414      3849.7976     -4018.4208     -552.80774      52029.475      37.332162      37.332162      37.332162      1.3302747      41439.803      44088.058      43244.674    
     80000   80000          641.57835      42655.35       56738.17       24408.374      12275.844      12132.529      5147.5797      4923.2539     -800.457        433.19288      2592.9869      3853.2392     -4017.2665     -553.43929      51970.102      37.317957      37.317957      37.317957      1.3317944      42847.596      43137.294      41981.159    
     81000   81000          628.81391      41598.221      55837.662      24308.566      12031.612      12276.954      5284.5046      5017.7711     -865.58277      432.39455      2594.5273      3833.731      -4020.392      -553.42999      51970.976      37.318166      37.318166      37.318166      1.331772       42229.045      41428.272      41137.347    
     82000   82000          625.21014      42063.233      55761.246      23924.837      11962.658      11962.178      5129.9139      4929.3715     -940.47771      423.20287      2601.8178      3838.0911     -4019.7409     -554.21467      51897.393      37.300545      37.300545      37.300545      1.3336603      38152.939      44469.993      43566.767    
     83000   83000          639.26189      40383.667      55014.73       24334.116      12231.522      12102.594      5245.7409      4971.438      -846.61161      440.53216      2462.1037      3847.178      -4017.7871     -552.12975      52093.365      37.347437      37.347437      37.347437      1.3286432      39963.735      40259.325      40927.939    
     84000   84000          624.37538      42366.611      56111.802      23940.357      11946.686      11993.671      5136.3176      4841.8007     -842.56378      426.67351      2604.404       3848.977      -4021.9379     -552.39866      52068.006      37.341376      37.341376      37.341376      1.3292903      39972.971      42998.544      44128.32     
     85000   85000          629.99349      40876.758      55301.054      24323.309      12054.182      12269.127      5267.8567      4968.4681     -798.21014      442.39997      2568.3757      3840.1614     -4019.925      -553.51078      51963.39       37.31635       37.31635       37.31635       1.3319665      42743.577      41824.509      38062.189    
     86000   86000          634.97306      41882.184      56284.397      24526.49       12149.46       12377.03       5141.5443      5131.4509     -799.75945      444.15808      2631.3924      3850.4077     -4022.1637     -553.19328      51993.214      37.323488      37.323488      37.323488      1.3312024      43573.704      40916.95       41155.897    
     87000   87000          629.67287      41206.182      55478.679      24303.071      12048.047      12255.024      5252.1235      4840.0521     -729.22071      452.7694       2618.0012      3840.7246     -4019.4262     -554.43023      51877.216      37.295711      37.295711      37.295711      1.334179       40512.316      40245.52       42860.711    
     88000   88000          641.8584       40228.158      55090.711      24453.433      12281.203      12172.23       5323.562       4917.0596     -791.49622      448.87908      2448.2098      3848.1445     -4022.1283     -550.7816       52220.874      37.377884      37.377884      37.377884      1.325399       41191.788      40815.113      38677.572    
     89000   89000          631.13716      42568.307      56525.813      24227.458      12076.065      12151.393      5413.5334      4806.2585     -785.61359      441.47929      2444.1727      3850.9512     -4019.3884     -552.84758      52025.725      37.331266      37.331266      37.331266      1.3303705      43801.264      41781.997      42121.658    
     90000   90000          639.41331      41247.629      55890.022      24522.85       12234.419      12288.431      5141.5971      5067.2384     -794.5534       440.02309      2601.3704      3847.1923     -4014.437      -551.59849      52143.537      37.359423      37.359423      37.359423      1.3273648      38238.456      43160.023      42344.408    
     91000   91000          634.24973      40083.751      54660.895      24271.326      12135.62       12135.706      5202.1779      4952.823      -866.7095       432.79169      2602.7119      3830.9236     -4019.0121     -553.27783      51985.268      37.321587      37.321587      37.321587      1.3314059      39023.784      42306.659      38920.81     
     92000   92000          632.99117      41302.403      55698.946      24392.534      12111.539      12280.995      5102.5985      5063.6953     -762.24878      444.35575      2601.0311      3849.8775     -4018.315      -553.40294      51973.516      37.318774      37.318774      37.318774      1.331707       42234.991      40816.472      40855.745    
     93000   93000          632.21271      42780.053      56952.332      24306.267      12096.644      12209.623      5431.7068      4977.804      -977.90938      437.60201      2519.2815      3839.8425     -4018.7044     -549.67999      52325.529      37.402837      37.402837      37.402837      1.3227481      41082.421      42650.368      44607.37     
     94000   94000          633.53838      40407.454      54882.371      24194.35       12122.009      12072.341      5191.4755      4952.9511     -880.67206      418.74132      2576.0697      3834.837      -4021.062      -552.32162      52075.268      37.343112      37.343112      37.343112      1.3291049      36121.253      44635.502      40465.608    
     95000   95000          639.28152      42036.039      56386.302      24467.81       12231.897      12235.913      5329.137       4984.876      -852.80292      442.6087       2500.8171      3851.6551     -4020.378      -552.43206      52064.857      37.340623      37.340623      37.340623      1.3293706      41837.318      40929.167      43341.633    
     96000   96000          626.32352      40324.916      54820.595      24183.37       11983.961      12199.409      5244.3406      5051.6364     -847.41652      446.69657      2501.996       3823.6831     -4021.5276     -552.10729      52095.484      37.347943      37.347943      37.347943      1.3285891      40468.781      39672.385      40833.581    
     97000   97000          624.96988      42690.022      56582.666      24135.951      11958.061      12177.89       5315.0394      4889.9913     -831.18943      437.83806      2542.3679      3843.6532     -4019.8103     -551.89327      52115.687      37.352771      37.352771      37.352771      1.3280741      44026.947      42728.135      41314.983    
     98000   98000          623.08987      41655.674      55730.889      23954.511      11922.089      12032.421      5130.7157      5000.246      -835.84124      431.46935      2494.1773      3830.6826     -4019.0284     -549.88164      52306.341      37.398264      37.398264      37.398264      1.3232333      41943.063      42834.444      40189.517    
     99000   99000          633.93523      41540.418      55931.989      24390.147      12129.602      12260.545      5074.6037      5140.0343     -820.5286       444.67845      2610.2214      3832.481      -4020.9454     -552.43763      52064.332      37.340498      37.340498      37.340498      1.329384       41578.962      41255.576      41786.715    
    100000   100000         625.1966       40109.037      54792.59       24182.268      11962.399      12219.869      5260.3708      5040.1423     -809.96665      459.85275      2453.1556      3838.3904     -4022.0759     -549.63425      52329.884      37.403874      37.403874      37.403874      1.322638       38946.794      41300.418      40079.899    
    101000   101000         619.86726      37753.269      52935.392      24059.858      11860.428      12199.429      5129.9482      5004.2138     -680.54363      445.82645      2461.0294      3855.5986     -4016.6436     -548.4335       52444.456      37.431152      37.431152      37.431152      1.3197485      39007.419      37913.739      36338.648    
    102000   102000         628.19424      43022.659      56849.283      24001.067      12019.755      11981.311      5045.9121      5095.1453     -924.84486      437.88515      2507.5926      3839.6094     -4019.9883     -549.39525      52352.648      37.409297      37.409297      37.409297      1.3220629      43159.072      45238.268      40670.638    
    103000   103000         640.4481       40779.253      55556.333      24385.019      12254.218      12130.8        5203.8764      5065.9741     -851.78351      422.34749      2471.1275      3838.456      -4019.1975     -548.76146      52413.113      37.423694      37.423694      37.423694      1.3205377      38724.378      42532.158      41081.222    
    104000   104000         632.76491      38958.845      53946.882      24257.956      12107.21       12150.746      5139.1137      4973.7282     -713.27769      418.92375      2493.3196      3856.6901     -4017.7513     -550.44133      52253.156      37.385584      37.385584      37.385584      1.3245802      39245.855      39585.318      38045.363    
    105000   105000         628.23814      40982.909      55561.368      24305.074      12020.595      12284.479      5250.651       5054.2007     -828.70004      424.92766      2552.1183      3850.3528     -4019.0715     -550.00261      52294.836      37.395522      37.395522      37.395522      1.3235244      41902.24       41413.408      39633.08     
    106000   106000         630.47551      41525.322      55617.29       23845.134      12063.405      11781.729      5081.4064      4856.2765     -807.833        447.7993       2361.6517      3862.0457     -4019.6173     -548.23374      52463.565      37.435698      37.435698      37.435698      1.3192678      42552.319      43286.354      38737.292    
    107000   107000         628.27768      41939.838      56089.408      24067.241      12021.352      12045.889      5234.4733      5002.5556     -904.3609       416.46032      2456.9278      3856.3181     -4016.4849     -549.38333      52353.784      37.409568      37.409568      37.409568      1.3220342      42243.955      40813.237      42762.321    
    108000   108000         641.42678      41709.816      56036.669      24197.32       12272.944      11924.376      5248.6495      4924.3995     -891.7309       427.84905      2378.2789      3855.288      -4018.3582     -549.5074       52341.964      37.406752      37.406752      37.406752      1.3223327      41168.436      39641.894      44319.117    
    109000   109000         630.38032      35711.212      51156.586      23806.505      12061.583      11744.922      5104.3083      4865.5685     -775.11085      431.81915      2279.2248      3857.3957     -4018.284      -547.70339      52514.366      37.447777      37.447777      37.447777      1.3179916      34577.469      36323.328      36232.84     
    110000   110000         623.82884      38736.566      53708.103      24057.313      11936.229      12121.085      5390.3988      4977.2534     -909.51721      434.2426       2413.2385      3833.2944     -4017.8257     -548.00473      52485.49       37.440912      37.440912      37.440912      1.3187167      38008.823      40693.35       37507.526    
    111000   111000         630.25188      37495.888      52857.287      24128.019      12059.126      12068.893      5150.5826      4984.2512     -764.24907      446.78182      2404.7046      3859.1666     -4012.3445     -547.46774      52536.97       37.453149      37.453149      37.453149      1.3174245      37008.145      38531.818      36947.7      
    112000   112000         633.00842      38688.095      53925.109      24306.832      12111.869      12194.963      5185.0314      5061.2378     -876.52647      437.35401      2548.5266      3853.0094     -4013.6697     -547.91981      52493.624      37.442846      37.442846      37.442846      1.3185124      40274.715      40085.594      35703.977    
    113000   113000         632.90323      38965.267      53951.683      24049.232      12109.856      11939.376      5311.4507      4944.3955     -910.49655      426.21852      2338.1498      3847.4312     -4017.7734     -546.60088      52620.29       37.472938      37.472938      37.472938      1.3153385      39559.107      39923.265      37413.429    
    114000   114000         637.93423      37604.637      53110.873      24331.779      12206.119      12125.661      5080.627       4969.8589     -719.16879      455.73519      2520.4675      3840.3048     -4022.1637     -548.10496      52475.892      37.43863       37.43863       37.43863       1.3189579      34944.149      38360.018      39509.743    
    115000   115000         626.26392      39567.005      54441.897      24096.731      11982.821      12113.91       5200.7308      4983.8108     -760.13074      477.56182      2380.6542      3850.4782     -4019.195      -546.94431      52587.249      37.465093      37.465093      37.465093      1.3161649      39653.884      37495.611      41551.52     
    116000   116000         631.38122      38013.936      53242.486      23988.385      12080.734      11907.65       5174.506       4894.6464     -786.1542       434.13451      2362.9094      3843.1647     -4015.5566     -545.07407      52767.684      37.507894      37.507894      37.507894      1.3116644      39271.401      37280.846      37489.56     
    117000   117000         626.61675      38250.38       53326.431      23905.008      11989.572      11915.436      5165.4812      4998.6638     -828.87124      425.93986      2318.8986      3853.764      -4018.4405     -545.34523      52741.447      37.501676      37.501676      37.501676      1.3123169      36761.259      37863.757      40126.123    
    118000   118000         630.76171      39173.791      54156.916      24178.239      12068.881      12109.358      5263.883       4867.361      -741.10507      432.68435      2462.97        3847.3401     -4023.7751     -548.12876      52473.613      37.438088      37.438088      37.438088      1.3190152      39071.751      39482.795      38966.828    
    119000   119000         625.7683       39989.01       54760.539      24017.469      11973.338      12044.131      5156.5295      5015.2053     -740.8365       455.32707      2313.8536      3860.6371     -4016.5852     -545.62324      52714.574      37.495306      37.495306      37.495306      1.3129859      36023.459      43277.692      40665.879    
    120000   120000         628.70636      38744.941      53976.509      24217.331      12029.554      12187.777      5308.8011      4963.1185     -744.46554      447.67928      2378.9944      3851.9824     -4018.3333     -546.12684      52665.964      37.483777      37.483777      37.483777      1.3141978      38908.345      38467.933      38858.544    
    121000   121000         630.17176      35246.475      51172.085      24032.239      12057.593      11974.646      5269.5124      4931.7414     -829.25187      429.51867      2353.7366      3835.4391     -4016.0501     -544.7632       52797.797      37.515027      37.515027      37.515027      1.3109163      35020.525      37806.496      32912.405    
    122000   122000         637.63625      37710.775      53008.947      23949.82       12200.417      11749.403      5201.7441      4937.4787     -878.16021      435.73723      2227.4128      3842.9676     -4017.777      -544.35516      52837.373      37.524399      37.524399      37.524399      1.3099344      39234.813      39752.654      34144.858    
    123000   123000         637.3206       37505.279      52779.728      24083.726      12194.377      11889.348      5150.2138      4874.047      -813.09489      439.48495      2409.2706      3845.8134     -4016.3865     -548.23967      52462.998      37.435563      37.435563      37.435563      1.3192821      37738.216      36533.411      38244.21     
    124000   124000         632.62972      36295.338      52199.158      24233.553      12104.623      12128.93       5215.5309      4954.1657     -807.78243      430.11464      2509.7328      3844.9938     -4017.8258     -544.40998      52832.053      37.523139      37.523139      37.523139      1.3100663      35661.983      36377.931      36846.1      
    125000   125000         620.94455      35846.416      51421.873      23888.705      11881.041      12007.664      5270.8428      4962.2106     -823.78255      452.85508      2316.5311      3845.1845     -4016.177      -546.12116      52666.511      37.483907      37.483907      37.483907      1.3141841      39034.967      33352.281      35151.999    
    126000   126000         638.63015      36282.309      51873.886      23958.944      12219.434      11739.51       5271.4154      4819.1789     -869.94724      418.05445      2289.1782      3829.1483     -4017.5184     -545.20224      52755.279      37.504954      37.504954      37.504954      1.3119728      37893.914      33903.388      37049.626    
    127000   127000         623.06685      38262.515      53556.372      24153.665      11921.649      12232.016      5352.7357      4951.6982     -743.30651      442.27703      2390.5972      3854.5769     -4016.5621     -545.8655       52691.179      37.489758      37.489758      37.489758      1.3135689      39339.382      40023.138      35425.024    
    128000   128000         637.92926      38352.971      53592.152      23990.212      12206.023      11784.189      5207.2215      4848.9733     -848.10456      448.29662      2287.5181      3854.7294     -4014.4457     -543.47338      52923.101      37.544682      37.544682      37.544682      1.3078125      38206.754      39682.231      37169.927    
    129000   129000         637.63442      37772.717      53471.999      24415.702      12200.382      12215.32       5179.6264      5027.7342     -646.54427      453.47564      2360.8287      3854.8663     -4014.6673     -545.3024       52745.59       37.502658      37.502658      37.502658      1.3122138      35307.475      38064.67       39946.004    
    130000   130000         630.23482      37637.796      52861.665      23839.001      12058.799      11780.201      5232.5586      4935.8226     -926.80155      425.00813      2278.273       3851.1646     -4015.8239     -543.98429      52873.395      37.532924      37.532924      37.532924      1.309042       34934.876      37964.678      40013.835    
    131000   131000         619.81179      36585.341      51859.868      23678.861      11859.367      11819.494      5119.2615      4915.5832     -800.73867      417.41325      2324.1945      3859.1275     -4015.347      -544.56541      52816.973      37.519569      37.519569      37.519569      1.3104404      36414.838      35614.441      37726.745    
    132000   132000         629.66849      38287.512      53525.433      24104.831      12047.963      12056.868      5280.2741      4912.2634     -779.45072      454.73305      2357.1538      3851.8023     -4019.9083     -545.88987      52688.826      37.4892        37.4892        37.4892        1.3136275      35487.027      40694.488      38681.02     
    133000   133000         625.75404      36842.557      52271.628      23833.684      11973.065      11860.619      5105.3482      5038.309      -802.41115      456.98253      2245.5103      3836.3323     -4019.4525     -543.43926      52926.424      37.545468      37.545468      37.545468      1.3077304      35439.358      37889.735      37198.577    
    134000   134000         627.69761      38235.828      53257.014      23786.366      12010.253      11776.113      5173.1855      4996.3456     -908.40988      433.73236      2220.8645      3872.0175     -4011.6221     -544.22723      52849.793      37.527338      37.527338      37.527338      1.3096266      37220.378      39714.85       37772.257    
    135000   135000         634.5276       38788.636      53975.293      23982.206      12140.937      11841.269      5192.6878      5020.093      -880.4925       438.46637      2244.9229      3844.9871     -4019.3952     -542.47881      53020.129      37.567612      37.567612      37.567612      1.3054192      39242.723      39325.191      37797.995    
    136000   136000         639.62304      39389.583      54795.506      24550.744      12238.432      12312.312      5208.4944      5111.2675     -694.39263      470.72855      2397.2212      3836.9055     -4017.9127     -546.29931      52649.337      37.479832      37.479832      37.479832      1.3146128      37819.314      40989.681      39359.754    
    137000   137000         624.30901      36783.421      52282.384      23945.067      11945.416      11999.65       5238.8094      4994.7035     -850.10717      438.03812      2352.8524      3836.8949     -4011.5406     -544.49366      52823.932      37.521216      37.521216      37.521216      1.3102677      36014.777      36317.373      38018.114    
    138000   138000         641.05939      37292.626      53130.765      24318.029      12265.915      12052.114      5242.2592      5166.0738     -897.24632      439.80464      2244.893       3867.6388     -4011.3089     -542.9226       52976.79       37.557373      37.557373      37.557373      1.3064871      35650.803      38016.954      38210.121    
    139000   139000         635.66532      34284.705      50460.989      24020.674      12162.706      11857.969      5239.4102      4828.2678     -744.0418       464.99626      2227.7038      3857.4861     -4015.8537     -543.91776      52879.862      37.534454      37.534454      37.534454      1.3088819      34526.169      35846.011      32481.934    
    140000   140000         634.99056      33198.298      49741.466      24035.417      12149.795      11885.622      5222.7145      5055.6151     -829.14281      433.53451      2165.8441      3849.9717     -4012.9152     -541.72633      53093.776      37.584999      37.584999      37.584999      1.3036084      34071.406      33992.241      31531.248    
    141000   141000         635.62583      38394.959      53695.3        24165.795      12161.95       12003.845      5127.8455      5050.5945     -789.01369      483.78038      2299.8953      3846.3512     -4015.6084     -545.40296      52735.864      37.500353      37.500353      37.500353      1.3124558      36778.193      39973.385      38433.3      
    142000   142000         627.01466      34425.551      50426.809      23682.393      11997.185      11685.208      5244.2999      4870.1024     -785.50265      443.33615      2081.6501      3846.0379     -4014.7161     -539.94215      53269.219      37.626352      37.626352      37.626352      1.299315       30718.557      36969.767      35588.33     
    143000   143000         621.42663      37030.413      52346.391      23751.091      11890.265      11860.825      5127.627       4955.7643     -859.86812      434.47559      2371.3493      3848.7921     -4017.3149     -543.20448      52949.299      37.550876      37.550876      37.550876      1.3071654      36909.982      38433.863      35747.395    
    144000   144000         635.51217      37543.685      52922.283      23912.358      12159.775      11752.583      5161.4502      4920.5974     -780.40542      412.39323      2223.0163      3836.9028     -4021.3716     -542.86238      52982.667      37.558762      37.558762      37.558762      1.3063422      37606.223      36777.824      38247.007    
    145000   145000         633.88552      31683.852      48429.328      23822.967      12128.651      11694.316      5215.4856      4883.2738     -763.64707      453.97395      2073.0353      3850.2304     -4018.0363     -540.11973      53251.705      37.622228      37.622228      37.622228      1.2997423      31891.082      33564.49       29595.985    
    146000   146000         635.25403      36440.75       51860.591      23606.727      12154.836      11451.89       5143.6704      4874.1589     -922.34368      432.00343      2109.76        3832.2081     -4017.5666     -541.0145       53163.634      37.601475      37.601475      37.601475      1.3018955      34795.16       38221.946      36305.144    
    147000   147000         631.24625      35271.892      51200.595      23969.802      12078.152      11891.65       5097.4255      5034.9019     -729.04666      434.07197      2210.6005      3859.5755     -4015.8784     -543.3353       52936.55       37.547862      37.547862      37.547862      1.3074802      35186.154      35324.486      35305.036    
    148000   148000         625.54397      34806.091      50962.502      23959.278      11969.046      11990.232      5342.3738      5011.2179     -801.57112      434.40277      2180.9864      3840.715      -4017.8928     -540.67846      53196.675      37.609264      37.609264      37.609264      1.3010868      35188.263      35914.596      33315.414    
    149000   149000         618.38168      37091.011      52355.608      23588.42       11832.004      11756.416      5311.6174      4809.5334     -857.20931      434.40996      2241.3953      3837.951      -4021.2815     -540.84238      53180.553      37.605464      37.605464      37.605464      1.3014813      34934.846      37711.365      38626.822    
[...]
    455000   455000         626.89376      4982.7571      27212.394      22398.457      11994.872      10403.585      5319.2461      4857.6848     -766.04232      420.22414      650.86467      3883.7984     -3962.1908     -434.17893      66245.261      40.462397      40.462397      40.462397      1.0448067      3941.9904      5118.9952      5887.2856    
    456000   456000         648.45908      3763.3369      26604.316      22953.972      12407.499      10546.473      5220.5098      4964.0383     -700.3103       427.75475      698.90966      3896.9461     -3961.3751     -432.45289      66509.664      40.516158      40.516158      40.516158      1.0406532      4503.2684      4036.9003      2749.842     
    457000   457000         636.44209      3629.1642      26016.476      22508.668      12177.568      10331.1        5232.5784      4784.8696     -683.24958      423.86415      648.24592      3885.8098     -3961.0186     -433.98053      66275.546      40.468562      40.468562      40.468562      1.0443293      2478.9197      5966.5181      2442.0548    
    458000   458000         624.72479      3983.338       26199.573      22339.146      11953.372      10385.774      5353.6818      4797.3129     -755.27004      413.94459      668.0324       3873.4076     -3965.335      -432.82395      66452.645      40.504576      40.504576      40.504576      1.0415461      3031.2667      4813.9384      4104.8088    
    459000   459000         630.99142      4416.5754      26787.088      22510.002      12073.276      10436.726      5249.0422      4799.1444     -662.56172      401.75217      741.7666       3873.5986     -3966.0167     -433.14878      66402.811      40.494449      40.494449      40.494449      1.0423278      3757.3773      6069.8647      3422.4841    
    460000   460000         630.38071      4370.2194      26934.045      22691.967      12061.591      10630.376      5400.3802      4891.8351     -668.27385      418.27825      671.60066      3882.9846     -3966.4292     -432.13955      66557.889      40.525948      40.525948      40.525948      1.0398992      4575.7655      4342.7525      4192.1401    
    461000   461000         628.46966      3681.835       26037.034      22407.6        12025.025      10382.575      5331.2419      4711.6726     -630.82138      426.71768      616.82651      3887.6266     -3960.6894     -425.52471      67592.54       40.734863      40.734863      40.734863      1.0239812      2390.2143      4318.3995      4336.8912    
    462000   462000         632.77251      4951.0824      27372.43       22526.947      12107.355      10419.592      5308.1108      4909.0312     -839.8741       426.11323      697.03206      3886.495      -3967.316      -428.61021      67105.953      40.636879      40.636879      40.636879      1.0314062      6778.4334      4275.9925      3798.8212    
    463000   463000         623.05689      4774.831       27150.07       22460.098      11921.458      10538.639      5346.8731      4836.6651     -757.82528      431.22254      759.07163      3882.9346     -3960.3023     -427.05832      67349.809      40.686043      40.686043      40.686043      1.0276717      3822.4529      5480.8369      5021.203     
    464000   464000         624.71004      681.41023      23075.669      22405.247      11953.089      10452.158      5446.0172      4823.9879     -797.80176      421.53976      642.40006      3879.8376     -3963.8227     -426.34402      67462.647      40.708752      40.708752      40.708752      1.0259528      318.08389     -98.248089      1824.3949    
    465000   465000         626.86857      386.8756       22849.893      22462.448      11994.39       10468.058      5229.3696      4845.2598     -665.46875      418.47839      732.48753      3865.6898     -3957.7586     -418.85184      68669.38       40.950044      40.950044      40.950044      1.0079237      504.12296      754.56189     -98.058051    
    466000   466000         632.77681      4312.1037      27032.532      22728.428      12107.437      10620.991      5358.9752      4793.1071     -664.82885      423.00945      773.5092       3896.2293     -3959.0106     -420.24821      68441.21       40.904639      40.904639      40.904639      1.0112839      3803.0264      5765.5637      3367.7209    
    467000   467000         636.86229      3915.4549      26870.017      22946.192      12185.608      10760.584      5405.3685      4917.7192     -729.75865      425.38039      806.64891      3892.2447     -3957.0193     -418.57383      68714.99       40.959109      40.959109      40.959109      1.0072546      5009.8521      3373.8152      3362.6973    
    468000   468000         632.65353      2990.1152      25423.227      22432.275      12105.079      10327.196      5270.2138      4746.5106     -742.59863      429.28122      691.89371      3888.1899     -3956.2946     -419.35112      68587.623      40.933786      40.933786      40.933786      1.0091251      5140.8923      933.91317      2895.5403    
    469000   469000         636.63178      3059.9616      25644.763      22568.891      12181.198      10387.693      5138.067       5061.5964     -799.50462      419.4698       641.18692      3884.8388     -3957.9609     -417.29882      68924.94       41.000781      41.000781      41.000781      1.0041865      3163.1521      4646.5271      1370.2055    
    470000   470000         628.89237      2469.6429      24787.056      22300.554      12033.113      10267.44       5089.2569      4770.0876     -645.72206      425.5685       706.62497      3878.2543     -3956.6298     -416.62449      69036.499      41.02289       41.02289       41.02289       1.0025638      2276.7327      2482.7646      2649.4314    
    471000   471000         639.9189       2825.7834      25474.594      22639.415      12244.093      10395.323      5307.2591      4746.203      -779.14541      398.95453      777.58848      3901.2184     -3956.7554     -418.07859      68796.386      40.975275      40.975275      40.975275      1.0060629      3058.7011      3437.7022      1980.947     
    472000   472000         637.29977      2044.6854      24647.702      22582.185      12193.979      10388.207      5220.552       4868.0245     -753.29579      423.94625      698.90914      3885.7137     -3955.6432     -415.23813      69266.993      41.068494      41.068494      41.068494      0.99922763     238.91575      2484.042       3411.0983    
    473000   473000         611.4405       3335.9216      25857.362      22488.873      11699.192      10789.68       5487.6391      4938.8228     -761.75924      450.21651      753.96243      3878.4167     -3957.6179     -415.41302      69237.83       41.06273       41.06273       41.06273       0.9996485      3269.5973      3848.8532      2889.3142    
    474000   474000         628.35431      1206.3202      23875.657      22651.041      12022.818      10628.223      5330.2152      4803.6499     -590.58815      443.95899      716.8092       3878.9763     -3954.7988     -413.20144      69608.413      41.13586       41.13586       41.13586       0.99432655     2952.9728      1962.6796     -1296.692     
    475000   475000         631.9345       592.6072       23147.466      22545.925      12091.321      10454.605      5410.2659      4787.554      -762.46689      425.68811      666.81292      3881.303      -3954.5524     -413.23916      69602.059      41.134608      41.134608      41.134608      0.99441733    -376.05343      3993.8223     -1839.9473    
    476000   476000         637.76886      1387.3286      24071.376      22655.786      12202.954      10452.831      5310.1291      4800.299      -698.38606      416.65155      699.59961      3878.3583     -3953.8202     -411.09417      69965.226      41.206027      41.206027      41.206027      0.98925562     1236.4833      252.22891      2673.2737    
    477000   477000         629.71479      1913.3946      24380.931      22446.187      12048.849      10397.338      5207.8747      4823.1114     -698.99426      433.7673       710.41696      3875.1356     -3953.9739     -414.83993      69333.482      41.08163       41.08163       41.08163       0.99826939     362.0497       2660.2965      2717.8377    
    478000   478000         616.72011      2021.3698      24499.761      22423.542      11800.211      10623.331      5335.2239      4853.3712     -606.92261      431.453        682.57821      3874.5622     -3946.9352     -408.38725      70428.978      41.296869      41.296869      41.296869      0.9827417      1230.4282      1132.6684      3701.0128    
    479000   479000         629.68712      2073.5993      24457.336      22359.79       12048.32       10311.47       5209.0637      4837.9792     -792.29247      428.80088      686.54122      3892.6853     -3951.3079     -414.67969      69360.272      41.086921      41.086921      41.086921      0.99788381     3116.2689      110.86723      2993.6616    
    480000   480000         630.81165      2294.7098      25078.124      22723.563      12069.836      10653.727      5388.3433      4794.5323     -639.57165      444.67801      753.69503      3866.0703     -3954.0205     -408.8061       70356.818      41.282761      41.282761      41.282761      0.98374962     3449.0377      1182.2024      2252.8892    
    481000   481000         616.35104      1159.2136      23484.918      22291.821      11793.15       10498.671      5294.4672      4846.4451     -736.52324      446.06969      707.72185      3885.2922     -3944.8017     -407.55578      70572.663      41.324934      41.324934      41.324934      0.98074085     1721.9199     -122.07612      1877.7971    
    482000   482000         624.83294      3881.4153      26551.58       22510.624      11955.441      10555.183      5258.8452      4827.9477     -707.86222      419.66456      816.95697      3880.1285     -3940.498      -402.90758      71386.835      41.483244      41.483244      41.483244      0.96955543     3002.5516      5253.4693      3388.225     
    483000   483000         628.88422      1493.7236      24258.66       22702.511      12032.957      10669.554      5289.5556      4856.6822     -626.39977      446.95245      760.4664       3888.7786     -3946.4813     -402.6415       71434.008      41.492379      41.492379      41.492379      0.96891516    -319.15343      3407.7275      1392.5967    
    484000   484000         622.07124      1402.9411      24037.719      22585.094      11902.599      10682.495      5430.9402      4793.252      -721.21917      436.48232      803.31668      3884.2822     -3944.5596     -405.12144      70996.728      41.407541      41.407541      41.407541      0.97488286     1521.0083      407.78975      2280.0251    
    485000   485000         633.77794      3255.6085      26139.603      22712.717      12126.593      10586.124      5423.5638      4898.7622     -860.81287      424.21648      767.17653      3877.1623     -3943.9445     -398.50326      72175.812      41.63551       41.63551       41.63551       0.9589569      3301.4601      4014.6387      2450.7266    
    486000   486000         629.17926      816.2093       23588.711      22729.546      12038.603      10690.943      5383.8883      4851.2586     -687.76137      432.40045      783.73031      3873.9464     -3946.5195     -398.49627      72177.078      41.635754      41.635754      41.635754      0.95894008     707.71934     -1898.2913      3639.1999    
    487000   487000         623.04328      522.86058      23168.045      22614.351      11921.198      10693.154      5393.5565      4801.4163     -669.41432      428.62528      807.6364       3873.7642     -3942.4307     -396.11044      72611.812      41.719179      41.719179      41.719179      0.95319881     2743.5226      516.79985     -1691.7407    
    488000   488000         634.49471      1521.5224      24283.253      22676.614      12140.307      10536.306      5288.067       4771.101      -698.59858      434.8752       809.30033      3875.3652     -3943.8038     -397.246        72404.245      41.679389      41.679389      41.679389      0.95593143     2811.7752      927.11319      825.67871    
    489000   489000         627.37768      3813.7849      26556.458      22471.937      12004.131      10467.806      5244.5712      4813.4734     -791.76462      425.76375      844.57277      3870.4208     -3939.2318     -391.66474      73436.012      41.876434      41.876434      41.876434      0.94250071     3125.515       1138.8647      7176.975     
    490000   490000         628.56236      2843.1713      25634.124      22606.346      12026.799      10579.547      5354.0639      4772.9192     -751.09362      422.11194      860.96313      3866.776      -3946.1937     -393.89312      73020.56       41.797315      41.797315      41.797315      0.94786307     2134.5546      2540.4608      3854.4986    
    491000   491000         625.78877      1862.7784      24722.393      22705.886      11973.729      10732.156      5297.9259      4921.6968     -753.01076      417.77771      910.66911      3870.2735     -3933.176      -387.4903       74227.14       42.026276      42.026276      42.026276      0.93245534     2503.7236     -383.01664      3467.6281    
    492000   492000         627.09938     -401.81534      22276.225      22708.086      11998.807      10709.28       5329.6763      4841.9684     -676.8716       436.26818      852.73712      3863.5307     -3938.0296     -390.28526      73695.575      41.925714      41.925714      41.925714      0.93918112    -1577.5309      499.75487     -127.67       
    493000   493000         639.0415       240.15714      23060.258      22800.215      12227.305      10572.91       5360.9117      4873.107      -768.53753      431.15329      738.37192      3876.2807     -3938.377      -387.39091      74246.183      42.02987       42.02987       42.02987       0.93221617     257.64694      1361.7842     -898.9597     
    494000   494000         647.19311      22.823136      22808.575      22783.882      12383.276      10400.606      5227.9383      4729.4981     -750.7282       402.55606      849.19548      3878.927      -3936.781      -387.71127      74184.835      42.01829       42.01829       42.01829       0.93298709    -1378.0649      155.68482      1290.8494    
    495000   495000         619.94054      894.72654      23397.225      22414.792      11861.83       10552.961      5232.1785      4772.3305     -707.47796      433.2465       905.15947      3855.0283     -3937.5041     -382.02037      75289.954      42.225909      42.225909      42.225909      0.91929254     1127.0376      1261.5797      295.56229    
    496000   496000         629.64155      576.82426      23373.311      22745.79       12047.448      10698.342      5116.3359      4876.4079     -562.05306      441.53124      868.85331      3887.8593     -3930.5927     -385.57992      74594.902      42.095569      42.095569      42.095569      0.92785822     2340.9617      641.64408     -1252.133     
    497000   497000         642.7264       1130.7536      24301.361      23033.19       12297.811      10735.379      5313.7373      4865.8968     -727.92624      422.18083      916.67912      3871.7859     -3926.9747     -374.01538      76901.374      42.525037      42.525037      42.525037      0.90002934     1393.8586      644.54191      1353.8603    
    498000   498000         633.1403       216.59799      22959.641      22715.952      12114.392      10601.56       5317.9293      4726.703      -733.18506      417.80692      921.39755      3871.7269     -3920.8187     -372.83611      77144.61       42.569825      42.569825      42.569825      0.89719156     2117.2286     -1157.0941     -310.34049    
    499000   499000         629.43352     -341.95372      22270.506      22657.308      12043.467      10613.841      5322.8446      4780.5339     -757.92406      403.82427      927.10128      3863.6558     -3926.195      -370.83262      77561.399      42.646351      42.646351      42.646351      0.89237035    -2711.0411      495.20011      1189.9798    
    500000   500000         630.88629     -343.48192      22397.341      22788.454      12071.264      10717.189      5157.1043      4860.1837     -659.12408      432.93231      954.79635      3880.1069     -3908.8101     -368.38448      78076.84       42.740613      42.740613      42.740613      0.88647918     294.77573      253.45537     -1578.6769    
Loop time of 1186.13 on 1 procs for 500000 steps with 6420 atoms

Performance: 36.421 ns/day, 0.659 hours/ns, 421.539 timesteps/s, 2.706 Matom-step/s
99.9% CPU use with 1 MPI tasks x 1 OpenMP threads

MPI task timing breakdown:
Section |  min time  |  avg time  |  max time  |%varavg| %total
---------------------------------------------------------------
Pair    | 126.71     | 126.71     | 126.71     |   0.0 | 10.68
Bond    | 146.76     | 146.76     | 146.76     |   0.0 | 12.37
Kspace  | 494.42     | 494.42     | 494.42     |   0.0 | 41.68
Neigh   | 194.51     | 194.51     | 194.51     |   0.0 | 16.40
Comm    | 31.278     | 31.278     | 31.278     |   0.0 |  2.64
Output  | 5.793      | 5.793      | 5.793      |   0.0 |  0.49
Modify  | 164.86     | 164.86     | 164.86     |   0.0 | 13.90
Other   |            | 21.8       |            |       |  1.84

Nlocal:           6420 ave        6420 max        6420 min
Histogram: 1 0 0 0 0 0 0 0 0 0
Nghost:          17277 ave       17277 max       17277 min
Histogram: 1 0 0 0 0 0 0 0 0 0
Neighs:              0 ave           0 max           0 min
Histogram: 1 0 0 0 0 0 0 0 0 0
FullNghs:  3.35629e+06 ave 3.35629e+06 max 3.35629e+06 min
Histogram: 1 0 0 0 0 0 0 0 0 0

Total # of neighbors = 3356288
Ave neighs/atom = 522.78629
Ave special neighs/atom = 5.8598131
Neighbor list builds = 33286
Dangerous builds = 0

# --- Cleanup ---
unfix npt_fix

undump dump_npt

# --- Write Output ---
write_dump all custom npt_pppm_last.dump id type mol x y z xu yu zu vx vy vz modify sort id
write_data /home/alexzhao/PolyJarvis/data/PS4/lammps/equil/npt_pppm/npt_pppm_out.data
System init for write_data ...
PPPM Kokkos initialization ...
  using 12-bit tables for long-range coulomb
  G vector (1/distance) = 0.29969038
  grid = 30 30 30
  stencil order = 5
  estimated absolute RMS force accuracy = 0.00030206245
  estimated relative force accuracy = 9.096521e-07
  using double precision cuFFT
  3d grid and FFT values/proc = 50653 27000
Generated 6 of 6 mixed pair_coeff terms from sixthpower/sixthpower mixing rule

print "STAGE COMPLETE: NPT T=630.0->630.0K P=50000.0->1.0atm steps=500000"
STAGE COMPLETE: NPT T=630.0->630.0K P=50000.0->1.0atm steps=500000
quit
 |       |  1.84

Nlocal:           6420 ave        6420 max        6420 min
Histogram: 1 0 0 0 0 0 0 0 0 0
Nghost:          17277 ave       17277 max       17277 min
Histogram: 1 0 0 0 0 0 0 0 0 0
Neighs:              0 ave           0 max           0 min
Histogram: 1 0 0 0 0 0 0 0 0 0
FullNghs:  3.35629e+06 ave 3.35629e+06 max 3.35629e+06 min
Histogram: 1 0 0 0 0 0 0 0 0 0

Total # of neighbors = 3356288
Ave neighs/atom = 522.78629
Ave special neighs/atom = 5.8598131
Neighbor list builds = 33286
Dangerous builds = 0
System init for write_data ...
PPPM Kokkos initialization ...
  using 12-bit tables for long-range coulomb
  G vector (1/distance) = 0.29969038
  grid = 30 30 30
  stencil order = 5
  estimated absolute RMS force accuracy = 0.00030206245
  estimated relative force accuracy = 9.096521e-07
  using double precision cuFFT
  3d grid and FFT values/proc = 50653 27000
Generated 6 of 6 mixed pair_coeff terms from sixthpower/sixthpower mixing rule
STAGE COMPLETE: NPT T=630.0->630.0K P=50000.0->1.0atm steps=500000
