LAMMPS data file via write_data, version 22 Jul 2025, timestep = 300000, units = real

2020 atoms
6 atom types
2010 bonds
7 bond types
3800 angles
12 angle types
4770 dihedrals
14 dihedral types
2400 impropers
11 improper types

2.3889157855773053 27.75756831442215 xlo xhi
2.3889157855773053 27.75756831442215 ylo yhi
2.3889157855773053 27.75756831442215 zlo zhi

Masses

1 12.01115
2 12.01115
3 1.00797
4 1.00797
5 32.064
6 32.064

Pair Coeffs # lj/class2/coul/cut

1 0.054 4.01
2 0.054 4.01
3 0.02 2.995
4 0.02 2.995
5 0.071 4.027
6 0.071 4.027

Bond Coeffs # class2

1 1.53 299.67 -501.77 679.81
2 1.101 345 -691.89 844.6
3 1.823 225.277 -327.706 488.972
4 1.101 345 -691.89 844.6
5 1.823 225.277 -327.706 488.972
6 1.823 225.277 -327.706 488.972
7 1.3261 275.112 -531.318 562.963

Angle Coeffs # class2

1 112.67 39.516 -7.443 -9.5583
2 110.77 41.453 -10.604 5.129
3 112.564 47.0276 -10.679 -10.1687
4 112.564 47.0276 -10.679 -10.1687
5 97.5 57.6938 -5.0559 -11.8206
6 110.77 41.453 -10.604 5.129
7 112.564 47.0276 -10.679 -10.1687
8 96.8479 56.7336 14.2713 0
9 107.66 39.641 -12.921 -2.4318
10 107.852 51.4949 -13.527 7.026
11 107.852 51.4949 -13.527 7.026
12 107.852 51.4949 -13.527 7.026

BondBond Coeffs

1 0 1.53 1.53
2 3.3872 1.53 1.101
3 10.9186 1.53 1.823
4 10.9186 1.53 1.823
5 -22.3144 1.823 1.823
6 3.3872 1.53 1.101
7 10.9186 1.53 1.823
8 -0.57 1.823 1.3261
9 5.3316 1.101 1.101
10 7.0463 1.101 1.823
11 7.0463 1.101 1.823
12 7.0463 1.101 1.823

BondAngle Coeffs

1 8.016 8.016 1.53 1.53
2 20.754 11.421 1.53 1.101
3 -3.5621 22.3865 1.53 1.823
4 -3.5621 22.3865 1.53 1.823
5 -13.0015 -13.0015 1.823 1.823
6 20.754 11.421 1.53 1.101
7 -3.5621 22.3865 1.53 1.823
8 10.7325 5.1221 1.823 1.3261
9 18.103 18.103 1.101 1.101
10 9.3225 44.9874 1.101 1.823
11 9.3225 44.9874 1.101 1.823
12 9.3225 44.9874 1.101 1.823

Dihedral Coeffs # class2

1 0 0 0.0316 0 -0.1681 0
2 -0.7017 0 0.0201 0 0.104 0
3 -0.4871 0 -0.4514 0 -0.1428 0
4 -0.5073 0 0.0155 0 -0.0671 0
5 -0.3338 0 -0.0684 0 -0.1706 0
6 -0.5073 0 0.0155 0 -0.0671 0
7 -0.3338 0 -0.0684 0 -0.1706 0
8 -0.1432 0 0.0617 0 -0.1083 0
9 -0.2078 0 -0.106 0 -0.3595 0
10 -0.2078 0 -0.106 0 -0.3595 0
11 -0.2078 0 -0.106 0 -0.3595 0
12 -0.5374 0 -0.5091 0 -0.1361 0
13 -1.2002 0 -1.2999 0 -0.1626 0
14 -1.2002 0 -1.2999 0 -0.1626 0

AngleAngleTorsion Coeffs

1 -16.164 112.67 110.77
2 -26.71 112.67 112.564
3 -28.1728 112.564 96.8479
4 -32.8949 112.564 97.5
5 -26.49 97.5 107.852
6 -32.8949 112.564 97.5
7 -26.49 97.5 107.852
8 -12.564 110.77 110.77
9 -13.1026 110.77 112.564
10 -13.1026 110.77 112.564
11 -13.1026 110.77 112.564
12 -18.6334 107.852 96.8479
13 -13.9674 112.564 112.564
14 -13.9674 112.564 112.564

EndBondTorsion Coeffs

1 0.2486 0.2422 -0.0925 0.0814 0.0591 0.2219 1.53 1.101
2 -0.1586 -0.7244 -0.2608 -0.7991 -0.959 0.5855 1.53 1.823
3 0.1026 0.0936 -0.0404 -0.3008 0.0606 0.4501 1.53 1.3261
4 -0.2542 -0.7984 -0.6525 -0.3047 -0.0109 -0.3763 1.53 1.823
5 0.2592 -0.0166 0.1306 -0.41 0.0668 0.4187 1.823 1.101
6 -0.2542 -0.7984 -0.6525 -0.3047 -0.0109 -0.3763 1.53 1.823
7 0.2592 -0.0166 0.1306 -0.41 0.0668 0.4187 1.823 1.101
8 0.213 0.312 0.0777 0.213 0.312 0.0777 1.101 1.101
9 -0.1526 -0.371 0.1048 1.0661 0.3298 0.425 1.101 1.823
10 -0.1526 -0.371 0.1048 1.0661 0.3298 0.425 1.101 1.823
11 -0.1526 -0.371 0.1048 1.0661 0.3298 0.425 1.101 1.823
12 0.4376 0.2001 -1.0696 0.2902 0.0695 0.1726 1.101 1.3261
13 -0.3252 0.5008 0.5191 -0.3252 0.5008 0.5191 1.823 1.823
14 -0.3252 0.5008 0.5191 -0.3252 0.5008 0.5191 1.823 1.823

MiddleBondTorsion Coeffs

1 -14.879 -3.6581 -0.3138 1.53
2 -4.2593 -5.6468 -3.3835 1.53
3 0.502 -1.0204 -0.9177 1.823
4 -2.5172 -2.0107 -2.8547 1.823
5 -0.6955 -2.9427 -1.2372 1.823
6 -2.5172 -2.0107 -2.8547 1.823
7 -0.6955 -2.9427 -1.2372 1.823
8 -14.261 -0.5322 -0.4864 1.53
9 -5.7537 -2.0104 0.2813 1.53
10 -5.7537 -2.0104 0.2813 1.53
11 -5.7537 -2.0104 0.2813 1.53
12 -0.3729 0.5373 -0.7035 1.823
13 1.7001 -3.3479 -0.8067 1.53
14 1.7001 -3.3479 -0.8067 1.53

BondBond13 Coeffs

1 0 1.53 1.101
2 0 1.53 1.823
3 0 1.53 1.3261
4 0 1.53 1.823
5 0 1.823 1.101
6 0 1.53 1.823
7 0 1.823 1.101
8 0 1.101 1.101
9 0 1.101 1.823
10 0 1.101 1.823
11 0 1.101 1.823
12 0 1.101 1.3261
13 0 1.823 1.823
14 0 1.823 1.823

AngleTorsion Coeffs

1 -0.2454 0 -0.1136 0.3113 0.4516 -0.1988 112.67 110.77
2 -2.0927 -0.1498 -1.7848 1.1179 0.3638 0.9423 112.67 112.564
3 -0.6045 3.8941 0.8885 1.0193 -0.6016 0.2097 112.564 96.8479
4 5.1289 2.0927 -2.4004 -4.5489 0.0886 0.6237 112.564 97.5
5 -1.0888 -0.2 -0.0909 0.5962 3.3479 0.2265 97.5 107.852
6 5.1289 2.0927 -2.4004 -4.5489 0.0886 0.6237 112.564 97.5
7 -1.0888 -0.2 -0.0909 0.5962 3.3479 0.2265 97.5 107.852
8 -0.8085 0.5569 -0.2466 -0.8085 0.5569 -0.2466 110.77 110.77
9 -2.0382 0.2102 -0.9023 0.3322 -0.0519 -0.3553 110.77 112.564
10 -2.0382 0.2102 -0.9023 0.3322 -0.0519 -0.3553 110.77 112.564
11 -2.0382 0.2102 -0.9023 0.3322 -0.0519 -0.3553 110.77 112.564
12 -2.2533 2.6948 -0.1723 1.434 -0.1915 -0.2611 107.852 96.8479
13 -5.0565 -0.6355 0.6015 -5.0565 -0.6355 0.6015 112.564 112.564
14 -5.0565 -0.6355 0.6015 -5.0565 -0.6355 0.6015 112.564 112.564

Improper Coeffs # class2

1 0 0
2 0 0
3 0 0
4 0 0
5 0 0
6 0 0
7 0 0
8 0 0
9 0 0
10 0 0
11 0 0

AngleAngle Coeffs

1 0.2738 -0.4825 0.2738 110.77 110.77 107.66
2 2.7985 -3.0031 -0.0668 110.77 112.564 107.852
3 -0.3157 -0.3157 -0.3157 107.66 107.66 107.66
4 0.5086 0.5086 -0.064 107.66 107.852 107.852
5 -1.3199 -1.3199 0.1184 112.67 110.77 110.77
6 -0.2564 -0.2564 -0.8766 112.67 112.564 112.564
7 -0.2564 -0.2564 -0.8766 112.67 112.564 112.564
8 2.7985 -3.0031 -0.0668 110.77 112.564 107.852
9 2.7985 -3.0031 -0.0668 110.77 112.564 107.852
10 -0.0668 -3.0031 2.7985 112.564 110.77 107.852
11 -0.0668 -3.0031 2.7985 112.564 110.77 107.852

Atoms # full

288 2 1 -0.159 4.603619930324055 5.725151034002986 4.335595495549812 1 0 0
290 2 3 0.053 3.8197041508397342 5.014974305346731 4.558435577668923 1 0 0
291 2 3 0.053 4.075131909390397 6.683967937115194 4.35154339788199 1 0 0
289 2 3 0.053 5.265490410504009 5.671775818190753 5.197369746236999 1 0 0
1860 10 3 0.053 5.579750619273259 7.6039911472135016 6.787055685762516 0 0 1
340 2 3 0.053 6.066093409326058 3.6192522201860404 4.776213450126359 1 0 0
338 2 1 -0.159 7.206052394263808 3.5840389700449498 4.894919257023817 1 0 0
286 2 2 0.012 5.071618444589664 5.491759222313702 2.8820383678166177 1 0 0
1740 9 2 0.012 3.0349036358973196 3.6746482478917444 8.02051477888605 0 1 -1
1745 9 3 0.053 3.838686626681446 5.739588755592832 7.569930939156819 0 1 -1
1736 9 6 -0.13 5.81867717168443 3.6816396802913394 7.670620765738628 0 1 -1
339 2 3 0.053 7.673894912411636 4.4835337661985175 4.340347366232907 1 0 0
1742 9 1 -0.159 2.951046144022549 5.226668575517952 7.939280586583236 0 1 -1
341 2 3 0.053 7.383075711864616 3.8235554394207973 6.007594272559082 1 0 0
287 2 3 0.053 4.833501626159398 4.441743210940661 2.7788131656122026 1 0 0
1746 9 6 -0.13 2.826657960925592 3.2064151316244347 6.317505207906697 0 1 -1
1731 9 3 0.053 7.944884047919905 2.8760404216273483 8.084423213173926 0 1 -1
1768 9 3 0.053 2.4753518059514907 3.5092015054961117 2.457053039268512 0 1 -1
292 2 6 -0.13 6.803867913410306 5.911643471301634 2.587749551765675 1 0 0
1845 10 3 0.053 2.7165275832493463 7.014894236957984 6.303622109111324 0 0 1
1868 10 6 -0.13 8.148795586535492 6.5677200590346425 5.464657495205829 0 0 1
307 2 3 0.053 9.370421174013202 6.958803535838332 3.5154520992826663 1 0 0
1871 10 3 0.053 9.505094467821184 5.2446505864829165 6.747852595921475 0 0 1
1869 10 1 -0.041 8.892298828102264 6.172530916093109 7.070525144212196 0 0 1
1870 10 3 0.053 9.673760539648558 6.942411217947891 7.106232444311205 0 0 1
312 2 6 -0.13 11.70568863577915 6.502840263531812 4.547143289822949 1 0 0
325 2 3 0.053 11.667850785597878 4.036961937357118 5.915716374524165 1 0 0
323 2 1 -0.041 12.490188637589117 3.2830686314675623 5.8719218138185365 1 0 0
313 2 1 -0.041 13.316549287669835 6.115902081162143 3.8592453303471816 1 0 0
334 2 3 0.053 9.194352499591577 2.5629970810523157 6.16753023347267 1 0 0
306 2 2 0.012 10.435983133381365 6.839583702137729 3.099768612690675 1 0 0
315 2 3 0.053 13.273950825965956 6.055624299598273 2.77600344684236 1 0 0
322 2 6 -0.13 13.270151831032361 3.331076344268075 4.297198788503058 1 0 0
324 2 3 0.053 13.186328450212045 3.580285308981298 6.776303977170568 1 0 0
1270 7 3 0.053 12.103378583507764 5.867763929025566 7.769693959536139 0 0 1
1268 7 1 -0.159 12.504881369405332 6.921208398001114 7.938161198726645 0 0 1
1271 7 3 0.053 12.720273693030382 7.179628653431786 6.944668549629035 0 0 1
335 2 3 0.053 9.939659324676645 3.5885786571555256 4.773471645890089 1 0 0
305 2 3 0.053 9.679051744955508 4.875416315032815 2.8577537503311965 1 0 0
333 2 1 -0.041 9.41010587008506 2.638801308357527 5.049685800801135 1 0 0
331 2 3 0.053 10.689390574766826 3.184226452505224 7.341538657696623 1 0 0
1612 8 3 0.053 11.12675450823099 3.2292851849106574 2.5406591825000806 1 0 1
314 2 3 0.053 13.906343031393966 7.045858925696203 3.963249473827581 1 0 0
316 2 2 0.012 14.09547079115769 4.908354394401892 4.592385345698515 1 0 0
317 2 3 0.053 14.27248684895071 5.154570340283577 5.681594343235092 1 0 0
1263 7 1 -0.041 15.009279670581975 7.332107644921814 7.91416149577883 0 0 1
1265 7 3 0.053 15.066537936117863 6.587954454539183 7.062607638382844 0 0 1
1847 10 3 0.053 3.0594288946672092 8.260837418306831 4.994938607997035 0 0 1
1851 10 3 0.053 3.7317693337137614 8.56519173614926 7.340142313242834 0 0 1
1857 10 3 0.053 2.708038930771516 12.429161210690447 7.2207483584082075 0 0 1
1862 10 2 0.012 7.33490288791815 8.330437737429579 5.575700227509728 0 0 1
1861 10 3 0.053 5.018077858765354 8.305671461987497 5.340616640316601 0 0 1
523 3 3 0.053 3.679799007092223 12.027063405621087 4.2634010307654515 0 0 0
1859 10 1 -0.041 5.798940141632774 8.384339637212184 6.06926663665541 0 0 1
1858 10 6 -0.13 5.698519395782987 10.03599241247026 6.884914326521342 0 0 1
1852 10 2 0.012 3.855949177145013 10.573848493780718 6.794133639077607 0 0 1
1853 10 3 0.053 3.497755596558344 10.526216550249567 5.804592091290955 0 0 1
519 3 3 0.053 4.616186810550813 13.328840074799182 3.005416712323123 0 0 0
1854 10 1 -0.159 3.759325374013669 12.023036783158325 7.24368014112182 0 0 1
521 3 3 0.053 5.494034609825776 11.62232519851032 4.741858031063394 0 0 0
1849 10 1 -0.041 3.2905588837621145 9.513130133444758 7.689804352720656 0 0 1
518 3 2 0.012 5.085967633543701 12.330795217438467 2.815675508793179 0 0 0
520 3 1 -0.159 4.680436394413569 11.480189737265036 4.049899202266629 0 0 0
1906 10 3 0.053 6.706711665602519 12.556062638903288 7.030748849424435 0 0 1
1904 10 1 -0.159 7.7912394876047815 12.917716886844985 7.295892988261502 0 0 1
514 3 6 -0.13 7.161610692260515 13.314116722213184 4.027710907036385 0 0 0
1856 10 3 0.053 4.483666910037472 12.723232521742544 6.632308550424236 0 0 1
1867 10 3 0.053 6.766724987226496 10.066714774002108 4.310207546220484 0 0 1
1866 10 3 0.053 7.030090293534945 8.5894500367457 3.453472702326895 0 0 1
515 3 1 -0.041 6.532380764157318 12.490865354897556 2.5431179252357383 0 0 0
1864 10 1 -0.159 7.448498967105168 9.197051754782592 4.265646681881493 0 0 1
1863 10 3 0.053 7.98719520623424 8.863214864759087 6.325226186391035 0 0 1
526 3 3 0.053 2.5239009219784925 12.423114897325455 2.6603410670588388 0 0 0
522 3 3 0.053 4.434530491682281 10.461333884660373 4.063511714377865 0 0 0
517 3 3 0.053 6.994534037309546 11.527890595857041 2.40763694071152 0 0 0
1905 10 3 0.053 8.348654416197997 11.971562461812184 7.4048632765026605 0 0 1
311 2 3 0.053 11.184236708750223 8.851093630071627 2.733200426133994 1 0 0
1865 10 3 0.053 8.380122598897696 9.715348959431442 4.115702465276028 0 0 1
884 5 1 -0.159 10.542565944239362 9.513526264819845 5.78726221149913 0 1 0
885 5 3 0.053 10.30450428664436 8.438404016486349 5.92268483848801 0 1 0
887 5 3 0.053 11.025331738906418 9.661317397350903 4.875707695469888 0 1 0
886 5 3 0.053 9.530397563728926 9.966352957336948 5.668926287240762 0 1 0
510 3 1 -0.159 9.661710346187348 12.359508767112985 4.015944628872948 0 0 0
1242 7 6 -0.13 12.831028904060652 10.922253392076305 4.454837732145561 0 0 1
889 5 1 -0.041 13.249893291657232 11.676722949811044 7.630825710767717 0 1 0
891 5 3 0.053 12.858174584425113 11.983586519378921 6.7219728857286025 0 1 0
1245 7 3 0.053 13.53282852649051 8.741089875663889 4.844834935434434 0 0 1
493 3 3 0.053 11.364282115444258 13.375329229220046 6.774679014336781 0 0 0
883 5 3 0.053 11.109606863530779 11.304998191019672 6.8166306168104285 0 1 0
512 3 3 0.053 9.620890931060565 11.976100837771613 5.024396078301167 0 0 0
1236 7 2 0.012 13.440405730024622 11.703794217366399 2.956320245859334 0 0 1
882 5 2 0.012 11.08569305497039 10.228091513376643 7.097292823282614 0 1 0
513 3 3 0.053 10.732843175702316 12.322794060462616 3.7744225546454597 0 0 0
1907 10 3 0.053 8.273968605202992 13.413702625062019 6.544926229267264 0 0 1
508 3 2 0.012 8.875532189656937 13.730416292105183 3.9113643020641513 0 0 0
880 5 3 0.053 9.10732068665255 10.01843146836752 7.691658229920922 0 1 0
888 5 6 -0.13 12.76729014383129 9.857924530444734 7.644576372797169 0 1 0
491 3 3 0.053 9.964687677416677 13.18921704151602 7.5778911989991355 0 0 0
490 3 1 -0.159 10.750793181745209 13.88419287590394 7.663993346384377 0 0 0
1239 7 3 0.053 13.752733265254298 13.514268995686555 4.023995843101323 0 0 1
1240 7 3 0.053 12.193193977666608 13.329131417424188 3.5960472661829 0 0 1
511 3 3 0.053 9.13289781857219 11.611374693922153 3.515674138172863 0 0 0
1238 7 1 -0.159 13.145274083441066 13.165192258894931 3.120865003353058 0 0 1
1247 7 3 0.053 14.807027694402155 10.02241607116647 6.186368515586826 0 0 1
1243 7 1 -0.041 14.128318060235545 9.510285379185063 4.3943520064536035 0 0 1
1244 7 3 0.053 14.217514143125912 9.38684683337897 3.2993584249889336 0 0 1
892 5 2 0.012 14.538716229231614 12.341661432936728 7.754924213452826 0 1 0
894 5 1 -0.159 14.340102266803678 13.772318824714766 7.266516421153364 0 1 0
896 5 3 0.053 14.32362506742117 13.851315175724114 6.091639606415075 0 1 0
1264 7 3 0.053 14.66358728971716 8.330791545273005 7.5999431473428265 0 0 1
1237 7 3 0.053 14.54821671718557 11.709177522530064 3.0820759976893104 0 0 1
753 4 3 0.053 2.9105043582909196 14.086705530095688 3.831598042840705 1 0 1
1917 10 3 0.053 2.9493236997185193 14.523091362349573 6.738620287119665 0 0 1
509 3 3 0.053 9.20469128302684 14.24328229355932 4.878315630970618 0 0 0
505 3 1 -0.041 9.376292077691492 14.682864716651228 2.8247141129738025 0 0 0
895 5 3 0.053 13.54138294096508 14.379510736823422 7.650867428477187 0 1 0
1873 10 3 0.053 7.290973246493055 5.263774361180484 8.212966380566955 0 0 1
1744 9 3 0.053 2.596332427885889 5.6985449032883455 8.884422477786394 0 1 -1
1565 8 1 -0.041 6.523045834228501 3.1557351216692977 13.54997389552163 1 0 0
1561 8 3 0.053 2.6003394661809414 5.299702782560209 12.699775200139536 1 0 0
1880 10 3 0.053 5.183685219235519 6.980494258675316 8.527083071578712 0 0 1
1879 10 1 -0.041 5.956300385442333 7.0436759398905675 9.315930802182786 0 0 1
1881 10 3 0.053 5.833675055399581 6.092946763655515 9.914965819666332 0 0 1
1560 8 1 -0.159 3.5795430218267246 4.883331947468703 12.611698711650357 1 0 0
1564 8 6 -0.13 6.171175351253973 4.865997800124376 12.930255257009641 1 0 0
1559 8 3 0.053 4.794668567802811 6.798064281926937 12.974372454201283 1 0 0
1558 8 2 0.012 4.607702505046332 5.696508821742116 13.420443683500185 1 0 0
1562 8 3 0.053 3.8442163618929355 4.557303614482116 11.587352698932136 1 0 0
1728 9 3 0.053 6.719974625326436 3.737014952648129 10.293951010031826 0 1 -1
1738 9 3 0.053 4.330331290727548 4.004453866204193 9.49449184670172 0 1 -1
1737 9 1 -0.041 4.337117507456691 3.347966536680418 8.667532148607098 0 1 -1
1878 10 6 -0.13 7.5569646923794735 7.5435744658109565 8.86667483298327 0 0 1
863 5 3 0.053 7.046171271851597 7.705473118995417 13.009529330906943 0 1 0
1884 10 1 -0.159 3.974174690369413 7.663756447614686 10.64137525109504 0 0 1
1886 10 3 0.053 4.049958309198585 6.553461222196717 10.796374909751163 0 0 1
1563 8 3 0.053 3.6465796952265466 3.978013650528408 13.064115284936008 1 0 0
1887 10 3 0.053 3.270883955237614 7.860556937486838 9.85591662325833 0 0 1
1883 10 3 0.053 6.110302980256892 7.891119339206471 11.2516760606896 0 0 1
862 5 2 0.012 8.033969905599108 8.090341048676114 13.254519457820885 0 1 0
1882 10 2 0.012 5.4294992505766455 8.025433613142564 10.370728729060527 0 0 1
1885 10 3 0.053 3.6056630773946705 7.960845414992338 11.564071051628483 0 0 1
1730 9 2 0.012 7.063616078399136 2.541696455903347 8.559475575023484 0 1 -1
1566 8 3 0.053 7.625309044048415 3.1554889903573904 13.204414368149148 1 0 0
1567 8 3 0.053 5.9166636646049975 2.394564957892365 12.870594280183996 1 0 0
1727 9 1 -0.041 7.065363344746823 2.791804606441187 10.038648511351042 0 1 -1
57 1 3 0.053 4.683027929498375 2.511747839989731 11.482831141616753 0 1 0
55 1 3 0.053 2.4026223040345087 2.882192290336745 11.325379135744805 0 1 0
169 1 3 0.053 13.297794989330667 2.6467818497488045 11.227141764187648 -1 1 0
1872 10 2 0.012 8.16890896306384 5.914502026295834 8.332535453226704 0 0 1
1877 10 3 0.053 8.515968425317123 5.199954816440966 10.33929200888757 0 0 1
1269 7 3 0.053 11.623973983205696 7.439973059951735 8.309819701809037 0 0 1
1875 10 3 0.053 9.919596818161779 6.149308612963178 9.480467995334529 0 0 1
1876 10 3 0.053 9.598284354643758 4.381363121450568 9.169846360686417 0 0 1
1874 10 1 -0.159 9.124077941035623 5.378650901462113 9.392140454432331 0 0 1
1274 7 3 0.053 11.793689461893063 5.718973381977884 9.851394302550187 0 0 1
1278 7 1 -0.159 10.702467071686378 4.34360325076657 12.437898024654569 0 0 1
1276 7 2 0.012 12.034325982539007 5.018454538638881 11.863550372606618 0 0 1
1273 7 1 -0.041 12.406657904684053 5.036200838101111 10.328711267289524 0 0 1
1275 7 3 0.053 12.18411803701887 4.019751620351229 9.898163989300226 0 0 1
1282 7 6 -0.13 12.069468548525297 6.751459602918686 12.18067128088692 0 0 1
1280 7 3 0.053 10.305030901592161 4.705142274564821 13.460109365117416 0 0 1
1277 7 3 0.053 12.885525962709238 4.418949551686721 12.314347973007733 0 0 1
1279 7 3 0.053 9.859300697618142 4.543946499608497 11.705822228002901 0 0 1
1281 7 3 0.053 10.833180959379497 3.2509742658448775 12.451553492639498 0 0 1
1283 7 1 -0.041 13.793387738555719 6.849027708168831 12.823834153417002 0 0 1
861 5 3 0.053 8.710809636217292 5.990039747808091 13.200814879587263 0 1 0
1267 7 3 0.053 13.779503814996305 7.80177691754164 9.567271061932583 0 0 1
329 2 3 0.053 11.739037501572652 2.53209901002376 8.397982733316791 1 0 0
1726 9 6 -0.13 8.774619530830847 2.6011975064902253 10.621445291321148 0 1 -1
859 5 1 -0.041 8.718326433352825 6.876683402653492 13.88598555342343 0 1 0
198 1 3 0.053 15.022579755061024 4.1691464682230475 8.17863505068299 -1 1 0
1266 7 2 0.012 13.899527108342994 7.004863635081903 8.816113992144789 0 0 1
1272 7 6 -0.13 14.100406601644796 5.521710222417092 9.948672642906534 0 0 1
1285 7 3 0.053 14.33581362882761 5.7995393282360554 12.619794509670633 0 0 1
1284 7 3 0.053 14.418936948236382 7.570218357500127 12.318878879680836 0 0 1
168 1 3 0.053 14.783517667104968 3.0985514921096193 10.33597179072881 -1 1 0
4 1 2 0.012 2.611210588485642 9.504373711635697 13.746305170997113 0 1 0
1855 10 3 0.053 4.049245770081001 12.237741747969041 8.283655314854748 0 0 1
406 3 3 0.053 2.860416198493575 11.276597070532786 9.821207997968031 0 0 0
419 3 3 0.053 3.1258974954504106 12.943269020937317 11.868575367633808 0 0 0
605 3 3 0.053 2.4717986337131284 11.189508043725162 11.43908719864641 0 0 0
1850 10 3 0.053 3.5010683398944273 9.43351245403505 8.735755388843204 0 0 1
5 1 3 0.053 3.1055629453262847 9.53139361764331 12.797067801567025 0 1 0
1900 10 3 0.053 5.866492561695672 12.136458236809503 8.822353681701426 0 0 1
1899 10 1 -0.041 6.780582658741529 12.453647851293221 9.442771282393194 0 0 1
1888 10 6 -0.13 5.774571156909664 9.76363136275479 9.98768424173425 0 0 1
1889 10 1 -0.041 5.558207844435238 10.382293308987707 11.608573235100227 0 0 1
1893 10 3 0.053 7.463451680844172 11.29936644932658 11.861580392750753 0 0 1
1892 10 2 0.012 6.39523376661227 11.577330404037108 12.003800213157824 0 0 1
1890 10 3 0.053 4.496147218240284 10.582892566469505 11.77874781846229 0 0 1
1898 10 6 -0.13 6.030032852052022 12.99976333846056 11.046848622417368 0 0 1
1891 10 3 0.053 5.867645897385808 9.635839765932758 12.40776203449058 0 0 1
1894 10 1 -0.159 6.067887960839798 11.934273094710733 13.500678255498677 0 0 1
1902 10 2 0.012 7.495758436693527 13.49059870149367 8.627324488291347 0 0 1
1897 10 3 0.053 6.475008540975398 12.871870976650866 13.649694969747415 0 0 1
1901 10 3 0.053 7.459673741565954 11.620123050738387 9.544995406474893 0 0 1
417 3 3 0.053 3.371593037648065 13.81357004693425 9.842985367450744 0 0 0
1895 10 3 0.053 4.976118977916922 12.306445954010321 13.506636947051275 0 0 1
1295 7 3 0.053 13.611830801334825 10.288016895664313 13.67186340051898 0 0 1
1097 6 3 0.053 8.60834512571928 13.236638413844874 13.668938508712762 0 0 -1
867 5 3 0.053 8.145389243021903 10.370217683557222 13.705767813040142 0 1 0
868 5 6 -0.13 8.804798836593061 8.387890308289762 11.555354919944579 0 1 0
890 5 3 0.053 12.532564333991708 11.963675707313492 8.336072037393922 0 1 0
879 5 1 -0.041 10.031996687566313 9.99951158047049 8.210139100325316 0 1 0
881 5 3 0.053 9.987330279578908 8.986641404407411 8.774804636704657 0 1 0
1098 6 3 0.053 9.76599467850045 12.01462251948984 13.546981289405293 0 0 -1
873 5 3 0.053 11.468587853974824 9.116762461543065 9.90865711868637 0 1 0
878 5 6 -0.13 10.0874515419219 11.101868466685069 9.588811405428821 0 1 0
872 5 2 0.012 11.110617283643812 9.932058235472212 10.686924657387351 0 1 0
874 5 1 -0.159 12.471055087289786 10.372148020023218 11.186433297768911 0 1 0
869 5 1 -0.041 10.278715101992193 9.448946431139092 11.883414460048844 0 1 0
875 5 3 0.053 12.48792471920115 11.273103561376129 11.658733834140726 0 1 0
876 5 3 0.053 13.193837193544926 10.300019150528666 10.419183102929294 0 1 0
877 5 3 0.053 12.780380144803182 9.653238987154515 11.962104246022514 0 1 0
870 5 3 0.053 9.887102005403946 10.354298580416533 12.403294905742186 0 1 0
871 5 3 0.053 10.833485721716881 8.938135276984587 12.585291316914828 0 1 0
1103 6 3 0.053 11.232993959273445 13.047047160755548 12.054906991849363 0 0 -1
1108 6 3 0.053 13.515284300369876 12.68999021386413 12.586731894060826 0 0 -1
1105 6 3 0.053 13.00199371778165 13.054443825062737 10.260360462821321 0 0 -1
1106 6 1 -0.159 13.794765877036687 13.68041757293003 12.181218502790209 0 0 -1
1903 10 3 0.053 8.482749215345073 13.602582100775912 9.141886848996789 0 0 1
1109 6 3 0.053 14.82851582723417 13.73893100869863 11.807304320129534 0 0 -1
420 3 1 -0.159 4.093051705254651 14.771095857812165 12.33250349902357 0 0 0
1911 10 3 0.053 4.954890340095877 14.014509059605695 8.28335833675741 0 0 1
418 3 2 0.012 2.808837760225867 14.033878882239973 11.899784310709714 0 0 0
415 3 1 -0.041 2.5213477312870785 14.16397333688695 10.407234388780662 0 0 0
423 3 3 0.053 4.782442296445057 14.051239054912681 12.703370498299515 0 0 0
422 3 3 0.053 4.550368823315653 15.05138716000939 11.329372766460075 0 0 0
492 3 3 0.053 11.246248609978677 13.954418118906943 8.583942374918767 0 0 0
1102 6 3 0.053 10.676659895383917 14.101554120220138 10.560383407444434 0 0 -1
1107 6 3 0.053 13.486296851678745 14.44227862400959 12.96334942429122 0 0 -1
1101 6 1 -0.041 11.470498620592714 13.952364644691732 11.425115024581368 0 0 -1
1104 6 2 0.012 12.889305003305203 13.919975550644258 11.00050109298234 0 0 -1
1557 8 3 0.053 3.413327339026072 6.362200396575252 15.00202010278347 1 0 0
1573 8 3 0.053 4.131363841820936 2.6233710453023598 14.80557998797738 1 0 0
860 5 3 0.053 7.95897759263509 6.5547474069574 14.73800492697481 0 1 0
1555 8 1 -0.041 4.2148946715419635 5.69749498683953 14.859927963833734 1 0 0
1289 7 3 0.053 12.371288929498666 5.689042256140175 14.848890326320694 0 0 1
1288 7 1 -0.159 13.562344555853416 5.8966862695985975 14.901299012365932 0 0 1
858 5 6 -0.13 10.199046103483084 7.082406842175516 14.926837916406805 0 1 0
1576 8 3 0.053 9.053867997794516 3.3563188327579585 14.40118097757238 1 0 0
1286 7 2 0.012 13.972069741564493 7.117242129006105 14.275016398867892 0 0 1
1290 7 3 0.053 14.135243174038457 5.020417116028318 14.53684647416816 0 0 1
1287 7 3 0.053 15.032853268316716 7.219431742734337 14.454837558806604 0 0 1
865 5 3 0.053 7.3508120721970815 9.435260495299142 14.859092003764456 0 1 0
864 5 1 -0.159 8.119060656778586 9.385726294919937 14.14912573442441 0 1 0
1896 10 3 0.053 6.47619504165157 11.260670799028828 14.358558351992407 0 0 1
1 1 1 -0.159 3.6973698768247054 9.536325208285675 14.89389032979289 0 1 0
201 1 3 0.053 4.592096216097554 9.104229668626704 14.502960276357527 0 1 0
1293 7 1 -0.041 13.76168857413792 9.968091702940212 14.681616389162217 0 0 1
1300 7 3 0.053 11.464823097158531 11.265482746675302 14.503542557782758 0 0 1
1095 6 3 0.053 11.73123458867687 13.44720963603383 13.941889332903623 0 0 -1
866 5 3 0.053 9.061378862655104 9.414978779552207 14.668861996449165 0 1 0
1096 6 1 -0.159 9.550122046419123 12.966515563538753 14.146323615355383 0 0 -1
1302 7 6 -0.13 14.154612558484187 12.636556452904552 14.884525061186231 0 0 1
1294 7 3 0.053 14.874664395003125 9.909060193201014 14.769041809774784 0 0 1
695 4 3 0.053 5.921026834903203 14.633220425730777 14.633932130247418 1 0 0
1094 6 2 0.012 10.746642905892587 13.918920723393576 14.098875174709923 0 0 -1
1310 7 3 0.053 14.98177453419319 14.994742604378626 14.695938915694212 0 0 1
1548 8 2 0.012 4.652111229976155 6.146989923010128 17.276786197113637 1 0 0
1550 8 1 -0.159 4.7461417513989606 4.759854049733306 17.8096640791276 1 0 0
1553 8 3 0.053 5.65022656591143 4.611253732234987 18.35693744021289 1 0 0
1552 8 3 0.053 4.817848528271597 3.968381314998105 17.029452864935312 1 0 0
1551 8 3 0.053 3.976312162444332 4.549953286110801 18.654963470731225 1 0 0
1549 8 3 0.053 3.6702237513314366 6.5127102324588195 17.101778666432622 1 0 0
1497 8 3 0.053 6.5869012226149675 3.570229425500511 19.8021390249058 1 0 0
1545 8 1 -0.041 5.304475354326003 6.9817764948030305 18.300011149380744 1 0 0
1544 8 6 -0.13 4.471913579673704 7.078195964524914 19.875477491077568 1 0 0
1547 8 3 0.053 6.297582446795968 6.631732975434178 18.53171875636417 1 0 0
1495 8 1 -0.041 7.470932880539833 3.4687547746706873 20.400688035718346 1 0 0
1546 8 3 0.053 5.595807729691705 7.978144232042014 17.8328039962414 1 0 0
1556 8 3 0.053 4.0817529625109525 4.717988270070587 15.29629961726472 1 0 0
1504 8 6 -0.13 7.9454781252978375 6.210669675225288 20.180003015274828 1 0 0
1501 8 3 0.053 7.862217771001989 4.42085387293279 17.882740463400825 1 0 0
1491 8 3 0.053 4.723937356309008 3.302117333248445 20.170071424130498 1 0 0
577 3 3 0.053 3.2822537780658365 2.627528140972853 17.381185500210435 0 0 -1
855 5 3 0.053 7.806705321422225 7.500039231283249 16.63044422156988 0 1 0
1569 8 3 0.053 6.2132018368606765 3.9342329259339364 15.392371911729152 1 0 0
1554 8 6 -0.13 5.5201453713528945 6.544967361614371 15.706285778599982 1 0 0
1496 8 3 0.053 7.745263793546622 2.4998748095508248 20.152455367258007 1 0 0
1568 8 2 0.012 6.294328443617515 2.896513281261503 15.085686836707456 1 0 0
1498 8 2 0.012 8.393221577046202 4.441049404132864 19.894862150717508 1 0 0
857 5 3 0.053 8.823758443500267 6.617168327423656 17.742872779638198 0 1 0
1575 8 1 -0.041 9.043344081446477 3.2854166533884923 15.597826458590506 1 0 0
1578 8 2 0.012 10.325178207072776 2.6220382883772464 16.077787981209013 1 0 0
1502 8 3 0.053 9.568553362505723 4.650646921361725 18.020976757879318 1 0 0
1503 8 3 0.053 8.90294747435858 3.0685832739519316 18.454722245480063 1 0 0
1500 8 1 -0.159 8.688818605859204 4.097110744559061 18.463617334986694 1 0 0
1585 8 1 -0.041 12.787207601674572 3.0322164074317923 17.264877944389966 1 0 0
1584 8 6 -0.13 11.545128780422653 3.9339439731724557 16.36450224873765 1 0 0
848 5 6 -0.13 11.08145213422049 7.486984676466262 19.091099969717114 0 1 0
851 5 3 0.053 11.56981982150025 6.663914519321429 17.02908953753729 0 1 0
1587 8 3 0.053 13.621231900464968 3.777866555787357 17.45644245511475 1 0 0
1499 8 3 0.053 9.285751667687606 4.416196525846464 20.436093173642895 1 0 0
854 5 1 -0.159 8.705733776781818 7.56532825420356 17.300753360336913 0 1 0
1594 8 6 -0.13 11.869210808044487 4.089297043416645 19.51730000947868 1 0 0
852 5 2 0.012 10.006840573169946 7.984129626836206 16.54303150343449 0 1 0
849 5 1 -0.041 11.302241256782855 7.70752564105581 17.303435187272022 0 1 0
841 5 3 0.053 13.657129042847217 6.007613162946087 18.776055363399756 0 1 0
1588 8 2 0.012 12.420010961203229 2.5272782059820114 18.73108958453067 1 0 0
842 5 2 0.012 12.78491979229923 7.964918654182975 19.579352283566543 0 1 0
839 5 1 -0.041 13.82114558562821 7.040536872368885 19.03327477784277 0 1 0
1577 8 3 0.053 8.824215278247948 4.3395875446843855 15.956383096394207 1 0 0
1291 7 3 0.053 13.736538790004007 5.968673132581708 16.076470464639748 0 0 1
838 5 6 -0.13 14.827441519908621 7.827403534258816 17.737253513303486 0 1 0
840 5 3 0.053 14.65349948301989 6.967835538496482 19.742357570554695 0 1 0
1542 8 3 0.053 2.634615350675513 9.23929877437602 19.52422499177633 1 0 0
2 1 3 0.053 3.6544042036842517 10.513192370399652 15.409508507771116 0 1 0
974 5 1 -0.159 2.8126804168777064 13.545359032095947 15.914731633477611 1 1 0
1543 8 3 0.053 3.9668951370321777 9.317933783257919 18.205355997527043 1 0 0
704 4 3 0.053 5.802716496936432 10.508719806004258 16.3858314012347 1 0 0
1540 8 1 -0.159 3.678827106281775 9.578208223230183 19.22971850014215 1 0 0
1539 8 3 0.053 5.4939681551545565 9.107155280257608 20.197712246361164 1 0 0
702 4 1 -0.159 6.156063947331184 10.78753163786781 17.389417799215778 1 0 0
703 4 3 0.053 5.241899009030904 11.119120637832108 17.89576817704662 1 0 0
705 4 3 0.053 6.413246462513166 9.867326946740029 17.9895809613734 1 0 0
1538 8 2 0.012 4.454735846261709 8.76296483465443 20.236571572359722 1 0 0
700 4 2 0.012 7.350856307668159 11.853260372319845 17.487909430595927 1 0 0