LAMMPS (22 Jul 2025 - Update 3)
OMP_NUM_THREADS environment is not set. Defaulting to 1 thread.
  using 1 OpenMP thread(s) per MPI task
Reading data file ...
  orthogonal box = (0 0 0) to (30.146484 30.146484 30.146484)
  2 by 2 by 2 MPI processor grid
WARNING: Pair style lj/class2/coul/long/gpu in data file differs from currently defined pair style lj/class2/coul/cut (src/read_data.cpp:811)
  reading atoms ...
  2020 atoms
  reading velocities ...
  2020 velocities
  scanning bonds ...
  4 = max bonds/atom
  scanning angles ...
  6 = max angles/atom
  scanning dihedrals ...
  11 = max dihedrals/atom
  scanning impropers ...
  4 = max impropers/atom
  orthogonal box = (0 0 0) to (30.146484 30.146484 30.146484)
  2 by 2 by 2 MPI processor grid
  reading bonds ...
  2010 bonds
  reading angles ...
  3800 angles
  reading dihedrals ...
  4770 dihedrals
  reading impropers ...
  2400 impropers
Finding 1-2 1-3 1-4 neighbors ...
  special bond factors lj:    0        0        1       
  special bond factors coul:  0        0        1       
     4 = max # of 1-2 neighbors
     7 = max # of 1-3 neighbors
    11 = max # of special neighbors
  special bonds CPU = 0.000 seconds
  read_data CPU = 0.052 seconds

CITE-CITE-CITE-CITE-CITE-CITE-CITE-CITE-CITE-CITE-CITE-CITE-CITE

Your simulation uses code contributions which should be cited:
- GPU package (short-range, long-range and three-body potentials): doi:10.1016/j.cpc.2010.12.021, doi:10.1016/j.cpc.2011.10.012, doi:10.1016/j.cpc.2013.08.002, doi:10.1016/j.commatsci.2014.10.068, doi:10.1016/j.cpc.2016.10.020, doi:10.3233/APC200086
The log file lists these citations in BibTeX format.

CITE-CITE-CITE-CITE-CITE-CITE-CITE-CITE-CITE-CITE-CITE-CITE-CITE

Generated 15 of 15 mixed pair_coeff terms from sixthpower/sixthpower mixing rule
Neighbor list info ...
  update: every = 1 steps, delay = 0 steps, check = yes
  max neighbors/atom: 4000, page size: 100000
  master list distance cutoff = 11.5
  ghost atom cutoff = 11.5
  binsize = 5.75, bins = 6 6 6
  1 neighbor lists, perpetual/occasional/extra = 1 0 0
  (1) pair lj/class2/coul/cut, perpetual
      attributes: half, newton on
      pair build: half/bin/newton
      stencil: half/bin/3d
      bin: standard
Setting up Verlet run ...
  Unit style    : real
  Current step  : 0
  Time step     : 0.5
Per MPI rank memory allocation (min/avg/max) = 13.62 | 13.63 | 13.63 Mbytes
   Step          Time           Temp          Press         Enthalpy        TotEng         KinEng         PotEng         E_bond        E_angle        E_dihed        E_impro         E_vdwl         E_coul         Volume           Lx             Ly             Lz          Density          Pxx            Pyy            Pzz      
         0   0              600            1555.443       3928.491       3306.9927      3610.9533     -303.96061      1346.815       2090.1016     -3287.7231      5.4221785     -94.058407     -364.51784      27397.441      30.146484      30.146484      30.146484      0.89999998     482.27959      2328.1166      1855.9327    
      1000   500            598.97598      304.05289      3303.3136      3176.2312      3604.7905     -428.55925      1358.2699      2026.5349     -3305.8316      2.7564896     -106.65648     -403.6324       28658.946      30.602253      30.602253      30.602253      0.86038393     3699.2122     -1865.9979     -921.0556     
      2000   1000           591.92757     -1881.3234      2289.953       3099.0998      3562.3714     -463.27152      1312.6244      2049.7852     -3308.4753      4.6150506     -131.23374     -390.58708      29490.9        30.895556      30.895556      30.895556      0.83611204     102.9409      -5273.3331     -473.57788    
      3000   1500           584.93788     -202.16696      2994.0795      3081.6158      3520.3056     -438.68978      1337.0816      2093.196      -3341.0178      5.5090053     -90.942121     -442.51653      29689.463      30.964741      30.964741      30.964741      0.83052013    -1175.9657      562.06657      7.398247     
      4000   2000           603.63096      288.80727      3310.7687      3188.9204      3632.8054     -443.88495      1349.3294      2056.5456     -3320.5567      2.4761863     -46.661319     -485.01812      28929.128      30.69812       30.69812       30.69812       0.85234844    -2639.4042      1555.3643      1950.4617    
      5000   2500           619.23997      5281.8337      5404.1172      3240.0425      3726.7444     -486.70186      1315.0326      2056.1235     -3348.6585      3.5469026     -81.686804     -431.05958      28093.874      30.399787      30.399787      30.399787      0.87768946     6798.1284      4952.224       4095.1487    
      6000   3000           605.69982      1442.7288      3925.1537      3335.1824      3645.2562     -310.07387      1431.344       2010.9081     -3257.7154      3.1655118     -109.2765      -388.49962      28039.5        30.380162      30.380162      30.380162      0.87939145     343.85397      2427.8137      1556.5188    
      7000   3500           614.22176     -129.25919      3286.9241      3339.0238      3696.5435     -357.51972      1374.9313      2078.9286     -3271.118       0.74025842    -151.80339     -389.19859      27637.441      30.234255      30.234255      30.234255      0.89218452    -1859.2198     -455.87467      1927.3169    
      8000   4000           611.37206     -470.2492       3028.5909      3213.92        3679.3933     -465.47331      1352.7668      2025.9028     -3326.361       1.7520256     -124.96599     -394.56793      27023.369      30.008653      30.008653      30.008653      0.91245826    -2817.7083      2576.6737     -1169.713     
      9000   4500           579.8526       3713.0687      4465.3822      3023.4572      3489.7011     -466.24391      1323.4783      2090.9403     -3319.7523      4.3836211     -122.70583     -442.58799      26627.709      29.861476      29.861476      29.861476      0.92601646     2242.8163      2923.7251      5972.6648    
     10000   5000           579.20728     -290.25615      2892.91        3003.0715      3485.8174     -482.74591      1376.4571      2019.9365     -3303.8432      4.4934203     -174.44092     -405.34881      26023.908      29.634038      29.634038      29.634038      0.94750168     119.39727      798.73227     -1788.898     
     11000   5500           579.19169      474.74252      3083.4475      2905.8284      3485.7236     -579.89515      1312.2031      1927.6946     -3223.8846      3.8292136     -175.34336     -424.39411      25654.026      29.49297       29.49297       29.49297       0.96116284    -829.89654      1314.2088      939.91532    
     12000   6000           589.34701      1274.7826      3662.437       3179.0304      3546.8409     -367.81054      1327.3866      2124.2516     -3270.0366      0.62266577    -138.94358     -411.09131      26001.63       29.62558       29.62558       29.62558       0.94831352     1304.8093      1530.5888      988.94979    
     13000   6500           609.0798       606.01763      3472.7118      3243.6913      3665.5979     -421.90659      1381.1204      2040.8149     -3320.6713      0.057530497   -127.23038     -395.99778      25912.737      29.59178       29.59178       29.59178       0.95156667    -92.24152       433.11017      1477.1842    
     14000   7000           600.12496      2402.7286      4039.8255      3157.8883      3611.7053     -453.81698      1288.7888      2114.7735     -3306.7618      2.7902424     -170.37065     -383.03696      25168.483      29.305717      29.305717      29.305717      0.97970532     165.69454      2895.2703      4147.221     
     15000   7500           594.39746      2872.2367      4021.5547      2978.5709      3577.2358     -598.66489      1270.6574      2062.9439     -3319.6324      4.5329084     -156.19572     -460.97095      24898.974      29.200737      29.200737      29.200737      0.99030975     2521.7576      1453.2249      4641.7276    
     16000   8000           601.26587      3960.648       4527.3378      3097.4931      3618.5716     -521.07851      1317.644       2015.1595     -3304.4009      2.5022015     -187.70815     -364.27512      24754.077      29.143983      29.143983      29.143983      0.99610651     6264.0264      2756.82        2861.0977    
     17000   8500           594.00291      812.90228      3240.7266      2948.5787      3574.8613     -626.28264      1344.0403      2016.4731     -3349.6055      4.8562065     -183.79368     -458.25314      24642.713      29.100213      29.100213      29.100213      1.000608       1515.4934     -1921.8676      2845.0811    
     18000   9000           601.48934      2348.2711      3943.8026      3109.0136      3619.9166     -510.90295      1327.5274      2056.9598     -3291.1953      3.6365316     -163.74276     -444.08859      24375.447      28.994627      28.994627      28.994627      1.0115792     -939.16311      3704.2736      4279.703     
     19000   9500           612.93248      3119.5822      4279.1639      3198.3056      3688.7842     -490.47861      1366.5529      2045.9545     -3283.2062      3.5122477     -191.34127     -431.95073      23757.263      28.747415      28.747415      28.747415      1.0379014      1158.8469      3491.2637      4708.636     
     20000   10000          599.38616      4237.1364      4686.2231      3192.206       3607.2591     -415.05309      1360.3364      2104.765      -3307.4238      6.2702058     -175.41759     -403.58328      24177.269      28.915836      28.915836      28.915836      1.0198711      4000.3976      6120.4948      2590.5169    
     21000   10500          593.58792      3600.9291      4419.1847      3132.7566      3572.3638     -439.60721      1279.3871      2089.2223     -3318.79        4.5600278     -156.62552     -337.36113      24495.994      29.042345      29.042345      29.042345      1.0066012      3622.8795      4083.7485      3096.1594    
     22000   11000          614.91854      3268.328       4279.286       3145.0074      3700.7369     -555.72943      1269.2328      2055.1086     -3326.9847      2.241814      -161.40856     -393.9194       23796.78       28.763345      28.763345      28.763345      1.0361779      4741.6431      2794.6425      2268.6985    
     23000   11500          584.711        4529.5512      4610.6152      3067.1719      3518.9402     -451.7683       1356.0159      2078.3391     -3322.4089      1.1189779     -168.63928     -396.19414      23364.668      28.588182      28.588182      28.588182      1.0553412      3805.5961      5701.8335      4081.2241    
     24000   12000          574.51205      3739.3968      4334.3239      3015.4753      3457.5603     -442.08494      1359.7233      2102.6514     -3347.9408      0.97942054    -186.79298     -370.70525      24183.407      28.918282      28.918282      28.918282      1.0196122      3625.4031      4071.4802      3521.307     
     25000   12500          616.07162      4949.3726      5050.4745      3350.1186      3707.6764     -357.5578       1272.1587      2178.0239     -3317.6458      5.6718584     -123.87675     -371.8897       23556.664      28.666275      28.666275      28.666275      1.0467398      3445.4708      5645.1148      5757.5323    
     26000   13000          601.61303      4605.9085      4718.1303      3146.4169      3620.6609     -474.24402      1324.824       2081.5743     -3317.6384      3.6368403     -185.56164     -381.07912      23398.185      28.601846      28.601846      28.601846      1.0538295      5542.2233      5098.5347      3176.9676    
     27000   13500          598.90297      3820.477       4411.3123      3087.0325      3604.3511     -517.31853      1341.1159      2044.7599     -3312.7255      3.1243272     -210.86327     -382.72999      23767.651      28.751605      28.751605      28.751605      1.0374478      3302.561       5358.4633      2800.4066    
     28000   14000          596.52161      9715.2206      6201.8819      2982.7708      3590.0194     -607.24868      1220.1893      1971.6651     -3247.0206      1.2409178     -153.24234     -400.08106      22719.952      28.322775      28.322775      28.322775      1.0852882      10145.59       8703.1753      10296.897    
     29000   14500          595.58758      5714.0201      4816.2935      2902.1732      3584.3982     -682.22499      1258.8875      1953.9766     -3266.5246      1.8085287     -188.85802     -441.51488      22969.501      28.426094      28.426094      28.426094      1.0734973      5501.4943      3798.8379      7841.7282    
     30000   15000          582.15863      7977.8773      5601.8038      2966.7912      3503.5794     -536.78817      1242.6015      2030.8227     -3282.4543      1.3855896     -174.85242     -354.29133      22647.458      28.292619      28.292619      28.292619      1.0887622      12382.124      4348.9627      7202.5454    
     31000   15500          598.00234      6259.2795      5170.4177      3068.8153      3598.9308     -530.11553      1300.1213      2070.1207     -3359.2477      3.9844085     -169.81729     -375.27685      23022.386      28.447893      28.447893      28.447893      1.0710313      6118.0533      4475.1937      8184.5914    
     32000   16000          611.28582      8583.101       5905.2414      3077.2099      3678.8742     -601.66433      1216.5551      1968.8791     -3276.0246      2.6055113     -145.00838     -368.67108      22592.492      28.269712      28.269712      28.269712      1.0914111      10398.426      6631.3564      8719.5202    
     33000   16500          601.76696      4540.0317      4712.1888      3228.7913      3621.5873     -392.79603      1323.8819      2159.2373     -3318.7457      3.5470019     -176.664       -384.0526       22403.856      28.190812      28.190812      28.190812      1.1006006      5637.4968      6264.9295      1717.6687    
     34000   17000          598.12185      4844.9829      4748.5294      3136.2693      3599.6501     -463.38082      1311.2915      2103.9662     -3299.2634      0.63465266    -194.75872     -385.25105      22817.442      28.363228      28.363228      28.363228      1.0806512      2947.4546      4645.0636      6942.4305    
     35000   17500          606.83048      6335.4715      5163.2139      3086.0686      3652.0609     -565.99223      1308.8139      2002.5262     -3259.005       1.7032453     -210.53963     -409.49099      22480.815      28.223055      28.223055      28.223055      1.0968329      7139.565       5800.9012      6065.9481    
     36000   18000          605.33455      8490.6404      5942.5853      3187.2026      3643.058      -455.85537      1331.8742      2021.2462     -3266.3925      2.7619788     -159.77797     -385.56725      22251.823      28.1269        28.1269        28.1269        1.1081203      12987.308      9132.7347      3351.8791    
     37000   18500          619.89199      8207.9338      5968.989       3315.1439      3730.6684     -415.52449      1331.978       2098.117      -3297.9453      4.5604637     -191.32191     -360.91282      22170.007      28.092385      28.092385      28.092385      1.1122097      6501.9123      7600.7237      10521.165    
     38000   19000          578.50231      6403.9501      5056.4214      3015.8904      3481.5747     -465.68427      1350.9947      2068.8099     -3289.2554      3.7585626     -199.03399     -400.95808      21848.386      27.955877      27.955877      27.955877      1.1285821      7302.2122      5458.3524      6451.2858    
     39000   19500          593.93639      6427.0705      5057.175       2988.4341      3574.461      -586.02687      1270.6409      2003.6557     -3286.3054      1.9692455     -227.53351     -348.45377      22070.753      28.050399      28.050399      28.050399      1.1172114      4179.0702      7604.4542      7497.6872    
     40000   20000          602.61011      2307.9832      3775.4428      3047.2236      3626.6616     -579.43803      1307.5966      2100.3476     -3355.4308      3.9893729     -201.13371     -434.80709      21634.837      27.864497      27.864497      27.864497      1.1397219      3977.1634      2398.5793      548.20704    
     41000   20500          613.54147      8471.1586      5781.9606      3116.2726      3692.4493     -576.17671      1332.2053      1986.448      -3267.3339      2.731138      -207.20651     -423.0208       21576.978      27.839635      27.839635      27.839635      1.1427781      6578.5137      6819.6705      12015.292    
     42000   21000          599.16311      5734.5423      5027.2608      3186.5369      3605.9167     -419.3798       1346.1167      2116.8135     -3285.3577      4.8743348     -202.1514      -399.67513      22009.694      28.024508      28.024508      28.024508      1.1203107      7798.9474      4316.0879      5088.5917    
     43000   21500          595.50391      7435.1729      5488.0435      3145.6471      3583.8947     -438.24761      1328.0412      2075.269      -3330.78        3.1923468     -179.84548     -334.1247       21601.974      27.850381      27.850381      27.850381      1.1414557      8648.5525      6972.8355      6684.1306    
     44000   22000          602.08205      8721.6182      5830.548       3080.8942      3623.4836     -542.58942      1319.7057      2061.9798     -3328.1899      3.7838518     -201.6646      -398.20432      21617.48       27.857043      27.857043      27.857043      1.140637       13394.619      5234.373       7535.863     
     45000   22500          596.02443      8191.4513      5575.5538      3048.2623      3587.0273     -538.765        1285.1501      2065.2323     -3287.7979      1.6884169     -180.85712     -422.18079      21155.271      27.657072      27.657072      27.657072      1.1655581      8175.0965      10874.804      5524.4534    
     46000   23000          601.98869      7217.6385      5374.5826      3117.0507      3622.9218     -505.87102      1297.5693      2053.8043     -3315.4773      3.6434234     -200.0518      -345.35895      21446.819      27.783543      27.783543      27.783543      1.1497135      12984.547      2145.3184      6523.0501    
     47000   23500          606.59095      4928.1053      4610.1724      3074.6682      3650.6193     -575.95114      1237.0173      1978.1891     -3290.9746      4.0580746     -201.37275     -302.86826      21364.619      27.748002      27.748002      27.748002      1.154137       5689.7923      6795.6344      2298.8892    
     48000   24000          589.83865      6692.0883      5261.1612      3197.0748      3549.7997     -352.72485      1363.927       2068.0479     -3265.5918      2.5403857     -191.05082     -330.5975       21149.023      27.654349      27.654349      27.654349      1.1659024      9926.5258      5762.4344      4387.3047    
     49000   24500          604.59994      8283.4996      5765.3973      3199.2286      3638.6369     -439.40828      1345.4793      2051.9269     -3259.5447      2.249253      -212.70854     -366.81056      21242.002      27.694816      27.694816      27.694816      1.1607991      5108.3308      9370.3144      10371.854    
     50000   25000          594.20838      7102.6204      5271.9408      3073.5693      3576.0978     -502.52849      1345.9809      2054.6536     -3291.6699      0.98325015    -231.50587     -380.9705       21222.99       27.686551      27.686551      27.686551      1.161839       6955.7807      6899.4641      7452.6164    
     51000   25500          585.81157      8942.9972      5770.5797      3017.9993      3525.5637     -507.56442      1341.2332      2035.2503     -3293.5614     -0.3403546     -180.7812      -409.36496      21104.79       27.635056      27.635056      27.635056      1.168346       9679.9298      9130.1042      8018.9575    
     52000   26000          608.79421      8140.1314      5459.5399      2967.7646      3663.8791     -696.1145       1262.9323      1970.0154     -3267.8052     -0.71383421    -249.58836     -410.95485      20989.475      27.584632      27.584632      27.584632      1.1747648      8435.5201      8741.6661      7243.208     
     53000   26500          595.85336      6437.5622      5049.2679      3078.8282      3585.9977     -507.16956      1288.7192      2044.4384     -3244.8611      1.4953705     -200.34828     -396.61313      20987.747      27.583875      27.583875      27.583875      1.1748615      6270.2116      6275.5225      6766.9526    
     54000   27000          594.60514      8705.4316      5692.6956      3022.0374      3578.4857     -556.44828      1308.2901      2063.4702     -3280.5621      0.18342732    -217.88022     -429.94968      21035.465      27.604764      27.604764      27.604764      1.1721964      6848.021       12186.01       7082.2636    
     55000   27500          605.26346      8891.2426      5811.6826      3120.713       3642.6301     -521.91712      1313.4997      2080.6785     -3256.6332      2.7518077     -207.5015      -454.71243      20752.501      27.480427      27.480427      27.480427      1.1881796      8375.0216      10258.862      8039.8445    
     56000   28000          603.27769      8991.9158      5850.5672      3131.1111      3630.6793     -499.56822      1333.8573      2000.3146     -3292.0647      2.0290936     -151.47376     -392.23068      20737.383      27.473753      27.473753      27.473753      1.1890457      12319.539      6477.4472      8178.7609    
     57000   28500          613.10629      12266.125      6761.1317      3044.8218      3689.8303     -645.00852      1240.7911      2076.8002     -3350.3596      1.8620306     -161.38654     -452.71572      20774.408      27.490093      27.490093      27.490093      1.1869266      10597.728      12873.79       13326.857    
     58000   29000          600.81762      7676.9374      5255.2642      2918.0752      3615.874      -697.79875      1265.2161      1997.2341     -3343.5594      4.7246636     -190.01269     -431.4015       20875.166      27.534465      27.534465      27.534465      1.1811976      10031.459      8647.3185      4352.0344    
     59000   29500          619.90612      9611.711       6072.1413      3173.1292      3730.7534     -557.62421      1330.1945      2055.1639     -3326.6556      3.5633066     -200.36144     -419.52886      20681.09       27.44887       27.44887       27.44887       1.1922822      6134.7126      11506.659      11193.762    
     60000   30000          603.36618      11643.668      6612.4346      3115.0971      3631.2118     -516.1147       1330.8562      2062.0082     -3283.5128      5.3193758     -186.69375     -444.09197      20595.476      27.410941      27.410941      27.410941      1.1972385      10258.151      12776.353      11896.5      
     61000   30500          614.3612       7040.2915      5224.4643      3113.8075      3697.3827     -583.57523      1303.9268      1939.0108     -3268.9641      4.390502      -159.93708     -402.0021       20556.591      27.393679      27.393679      27.393679      1.1995032      7956.3541      6337.5856      6826.9348    
     62000   31000          590.85952      11110.478      6348.9956      3019.9093      3555.9436     -536.03425      1322.785       1994.1437     -3299.2862      2.1696828     -142.42697     -413.41939      20545.486      27.388745      27.388745      27.388745      1.2001516      11583.654      11050.804      10696.977    
     63000   31500          612.17884      11140.449      6373.7194      3052.8194      3684.2487     -631.42927      1315.655       2006.0029     -3324.1398      3.4600021     -176.67968     -455.7277       20439.827      27.341714      27.341714      27.341714      1.2063554      12200.902      9248.5242      11971.92     
     64000   32000          600.2452       15578.908      7561.8161      2918.6469      3612.429      -693.78209      1226.4916      1944.8811     -3256.7951      4.368781      -147.97759     -464.75079      20436.269      27.340127      27.340127      27.340127      1.2065655      16216.534      13696.746      16823.445    
     65000   32500          603.9158       10949.988      6335.7315      3067.1114      3634.5196     -567.40815      1353.6214      1912.325      -3310.848      -0.39979116    -149.39572     -372.71114      20467.976      27.35426       27.35426       27.35426       1.2046964      11593.173      12582.408      8674.384     
     66000   33000          588.70901      11309.73       6392.2313      3004.3208      3543.0012     -538.6804       1308.2756      1991.536      -3272.4129      3.1947218     -166.16446     -403.10933      20540.159      27.386378      27.386378      27.386378      1.2004628      11805.53       11208.961      10914.699    
     67000   33500          612.82675      13592.007      7149.1525      3110.7635      3688.148      -577.3844       1296.5146      2005.7088     -3330.2868      4.5015677     -145.71012     -408.11241      20372.703      27.311751      27.311751      27.311751      1.2103302      11308.183      15568.996      13898.843    
     68000   34000          602.55177      11026.706      6222.9822      2946.7413      3626.3105     -679.56925      1263.5015      1969.0047     -3295.0983      1.2672839     -160.2833      -457.96108      20372.961      27.311867      27.311867      27.311867      1.2103148      10770.158      8104.2169      14205.743    
     69000   34500          593.67596      14452.492      7340.2755      3100.0161      3572.8936     -472.87751      1302.9995      2096.3714     -3328.8746      4.5013175     -164.7214      -383.1536       20117.49       27.197225      27.197225      27.197225      1.2256845      14743.927      16879.096      11734.453    
     70000   35000          610.09039      13113.47       6973.0994      3122.536       3671.6799     -549.14388      1341.3017      1985.9126     -3322.261       0.98828407    -126.8674      -428.21799      20134.032      27.204678      27.204678      27.204678      1.2246775      16081.99       11393.499      11864.922    
     71000   35500          621.6755       13797.396      7186.4302      3138.3194      3741.402      -603.08265      1271.2114      1981.6978     -3305.4275      3.9389543     -99.226995     -455.27631      20117.749      27.197342      27.197342      27.197342      1.2256688      11907.846      12166.605      17317.736    
     72000   36000          606.329        14951.112      7526.7491      3169.6563      3649.0428     -479.38655      1238.177       2125.1388     -3285.8182      5.8261044     -162.50006     -400.21018      19982.39       27.136207      27.136207      27.136207      1.2339713      14721.414      14975.53       15156.392    
     73000   36500          613.95355      13402.057      6994.102       3086.8725      3694.9293     -608.05687      1266.2598      2069.2568     -3312.9856      2.3482642     -175.75321     -457.18293      19990.405      27.139835      27.139835      27.139835      1.2334766      11210.085      10294.407      18701.679    
     74000   37000          607.23084      15390.444      7590.5586      3161.6734      3654.4703     -492.79699      1254.7056      2028.6281     -3267.8006      2.2085126     -123.41882     -387.11979      19731.831      27.022309      27.022309      27.022309      1.2496406      15365.09       18202.239      12604.003    
     75000   37500          615.11915      11347.858      6551.18        3235.8511      3701.9442     -466.09305      1310.7878      2079.9532     -3260.128       1.0440985     -165.8898      -431.86042      20032.577      27.158906      27.158906      27.158906      1.2308799      14188.505      9940.2616      9914.8082    
     76000   38000          605.35788      12270.435      6646.4868      3109.6118      3643.1984     -533.58657      1286.7169      2007.9566     -3292.1787      1.2664534     -98.998792     -438.34904      19764.409      27.037173      27.037173      27.037173      1.2475808      12191.534      12238.142      12381.631    
     77000   38500          603.64031      12096.924      6531.8721      2987.7777      3632.8616     -645.08391      1263.4843      1993.362      -3258.909      -0.65029116    -177.41004     -464.96085      20088.82       27.184299      27.184299      27.184299      1.2274338      11330.39       10325.875      14634.508    
     78000   39000          581.27985      12237.934      6511.3055      3016.9019      3498.2907     -481.38878      1345.1421      2053.5566     -3284.3827      1.3895078     -161.20321     -435.89102      19578.935      26.952332      26.952332      26.952332      1.2593993      14004.255      8205.4752      14504.073    
     79000   39500          600.0714       12212.383      6639.748       3097.8651      3611.383      -513.51789      1296.6264      2043.2552     -3275.4382      2.6072755     -161.04526     -419.5233       19886.478      27.092721      27.092721      27.092721      1.2399228      9144.6494      14694.421      12798.079    
     80000   40000          594.48129      14890.988      7440.9192      3188.7066      3577.7403     -389.03367      1344.3678      2018.3521     -3238.3423      3.1155018     -124.55365     -391.97319      19580.129      26.95288       26.95288       26.95288       1.2593225      14349.786      15206.382      15116.797    
     81000   40500          601.98843      8903.186       5745.0601      3178.8084      3622.9202     -444.11183      1318.3313      2036.5401     -3270.3098      4.2547346     -141.12191     -391.80629      19764.14       27.03705       27.03705       27.03705       1.2475978      12171.024      8429.1631      6109.371     
     82000   41000          588.82538      12236.706      6417.4362      2923.8509      3543.7015     -619.85062      1273.9915      1993.8539     -3298.8582      0.36175565    -130.78016     -458.41936      19576.315      26.95113       26.95113       26.95113       1.2595679      16299.747      11403.562      9006.8093    
     83000   41500          597.85457      10611.538      6062.1891      3017.3675      3598.0415     -580.67401      1241.792       2029.091      -3281.2699     -1.8396993     -154.10714     -414.3403       19674.678      26.996194      26.996194      26.996194      1.2532706      11483.961      10156.389      10194.263    
     84000   42000          575.74563      14533.664      7077.3811      2942.9289      3464.9843     -522.0554       1254.0231      2021.7651     -3282.9669      2.0549128     -136.55687     -380.37469      19505.944      26.918798      26.918798      26.918798      1.264112       15992.221      13260.574      14348.196    
     85000   42500          595.03809      9894.4819      5719.7427      2882.1898      3581.0913     -698.90146      1254.1175      2002.7993     -3334.0204      4.6737842     -215.62425     -410.84749      19664.142      26.991375      26.991375      26.991375      1.2539421      7638.3942      10955.399      11089.652    
     86000   43000          606.32386      16371.56       7814.8756      3160.3414      3649.0119     -488.6705       1310.8484      2135.9118     -3334.8306      1.4450617     -137.6372      -464.40796      19494.418      26.913494      26.913494      26.913494      1.2648594      19255.229      14243.192      15616.259    
     87000   43500          604.82418      12121.121      6601.1324      3149.9502      3639.9864     -490.03626      1311.5996      2024.1641     -3293.8152      4.3166922     -121.75216     -414.54921      19523.12       26.926697      26.926697      26.926697      1.2629998      12382.307      12472.12       11508.934    
     88000   44000          584.98938      11846.879      6357.0285      2973.1513      3520.6156     -547.46426      1277.7845      2042.9388     -3281.1884      1.4002549     -149.37102     -439.02844      19585.504      26.955346      26.955346      26.955346      1.2589769      10226.112      15320.945      9993.5794    
     89000   44500          600.96967      15986.081      7601.1782      3058.067       3616.789      -558.72204      1278.3394      2050.4544     -3350.3573      4.3587944     -111.49621     -430.02111      19486.573      26.909884      26.909884      26.909884      1.2653686      14722.047      16465.596      16770.6      
     90000   45000          607.83229      16113.87       7632.0389      3102.2656      3658.09       -555.82446      1199.5795      2060.7107     -3314.3418      5.5240407     -101.90563     -405.39121      19275.282      26.81227       26.81227       26.81227       1.2792393      18015.925      14731.033      15594.651    
     91000   45500          601.15677      15001.77       7198.7476      2919.0538      3617.915      -698.86116      1204.3242      1998.5169     -3301.6539      1.1271127     -150.88986     -450.28563      19561.147      26.944168      26.944168      26.944168      1.2605445      14053.859      15820.705      15130.745    
     92000   46000          593.46617      15889.503      7423.8521      2966.7388      3571.631      -604.89228      1208.4714      1972.2932     -3295.8748      1.0825774     -92.286308     -398.57833      19233.906      26.793071      26.793071      26.793071      1.2819911      17859.905      16442.895      13365.708    
     93000   46500          597.40681      12221.951      6461.0079      3019.7119      3595.3468     -575.63486      1256.5693      1998.3101     -3289.9165      1.1798152     -103.94573     -437.83191      19306.592      26.826779      26.826779      26.826779      1.2771647      11251.95       11647.094      13766.807    
     94000   47000          619.75095      20386.281      8841.7954      3143.4866      3729.8195     -586.33299      1250.8999      1985.4056     -3344.9459      4.3873668     -91.07212      -391.00777      19166.027      26.761515      26.761515      26.761515      1.2865315      21258.395      21836.62       18063.827    
     95000   47500          609.30067      13288.283      6906.0002      3159.4395      3666.9271     -507.48761      1281.0933      2048.3321     -3330.9039      3.0821876     -107.38562     -401.70564      19332.501      26.838774      26.838774      26.838774      1.2754531      14511.236      14515.401      10838.21     
     96000   48000          612.97377      16846.068      7964.8162      3293.6848      3689.0327     -395.34797      1269.6654      2092.1878     -3332.7369      1.821648      -70.516356     -355.76957      19012.869      26.69004       26.69004       26.69004       1.2968951      13651.698      19470.299      17416.207    
     97000   48500          616.82855      17144.532      7923.7659      3064.434       3712.2318     -647.79774      1140.3863      2083.8907     -3351.2315      2.026706      -127.57446     -395.29546      19434.575      26.885927      26.885927      26.885927      1.2687541      17107.712      17722.478      16603.405    
     98000   49000          576.05998      18595.52       8119.2297      2985.3468      3466.8761     -481.52931      1243.9158      2104.4341     -3339.7151      3.7039657     -62.221539     -431.6465       18930.484      26.651434      26.651434      26.651434      1.3025391      17530.053      18923.106      19333.402    
     99000   49500          600.4418       13362.046      6898.3288      3152.0393      3613.6121     -461.5728       1277.4655      2102.1481     -3331.6232      3.5536716     -111.42159     -401.69528      19224.386      26.78865       26.78865       26.78865       1.282626       12337.929      11827.611      15920.598    
    100000   50000          630.14075      17721.769      8085.6582      3162.6564      3792.348      -629.69165      1246.5258      1995.3813     -3331.346       4.9452592     -118.25311     -426.94487      19047.897      26.70642       26.70642       26.70642       1.2945102      16705.735      17227.307      19232.266    
    101000   50500          601.32063      18786.294      8289.5932      3053.7273      3618.9012     -565.17394      1276.4837      1978.1439     -3310.9017      0.21026167    -119.22699     -389.88311      19110.477      26.735635      26.735635      26.735635      1.2902712      16980.546      18342.413      21035.922    
    102000   51000          587.2376       17688.174      7891.0808      2998.5857      3534.1459     -535.56025      1200.4059      2018.7527     -3265.6184      0.99470078    -94.997755     -395.09736      18965.815      26.668003      26.668003      26.668003      1.3001127      20431.156      15391.961      17241.406    
    103000   51500          585.83829      14016.088      6970.4121      3055.1169      3525.7245     -470.60763      1317.4033      1995.6825     -3337.7582      2.4298732     -122.31273     -326.0524       19154.102      26.755964      26.755964      26.755964      1.2873324      11320.095      16765.532      13962.637    
    104000   52000          596.69682      18369.756      8189.7228      3102.2385      3591.0739     -488.83537      1264.5375      1970.1293     -3299.0738      0.40119394    -56.378235     -368.45139      18989.949      26.67931       26.67931       26.67931       1.2984604      18729.438      18107.507      18272.324    
    105000   52500          605.11768      18444.775      8313.872       3233.8732      3641.7528     -407.87958      1289.0374      1992.8776     -3256.8162     -1.4043148     -107.49018     -324.08385      18884.886      26.630018      26.630018      26.630018      1.3056842      20504.936      17876.685      16952.703    
    106000   53000          616.5968       17124.369      8047.6317      3296.7043      3710.8371     -414.13272      1314.6564      2066.2116     -3316.945      -0.45794218    -76.76278      -400.83501      19023.391      26.694962      26.694962      26.694962      1.2961778      15361.322      18963.044      17048.741    
    107000   53500          600.81232      19841.484      8654.3475      3229.6592      3615.8421     -386.18289      1266.7917      2063.8741     -3293.9257      4.782563      -37.623348     -390.0822       18746.696      26.564904      26.564904      26.564904      1.3153089      17981.511      19132.088      22410.854    
    108000   54000          614.94774      17119.9        7932.9577      3182.4401      3700.9126     -518.47258      1253.4035      2048.5907     -3290.8934      2.6134321     -96.85719      -435.32959      19026.715      26.696517      26.696517      26.696517      1.2959513      14458.555      18911.436      17989.709    
    109000   54500          581.5621       19364.651      8382.0211      3116.7959      3499.9893     -383.19344      1277.3356      1976.347      -3263.1685      0.34753621    -3.3732612     -370.68182      18643.67       26.51615       26.51615       26.51615       1.3225774      22772.376      17322.953      17998.623    
    110000   55000          589.59007      15914.759      7385.6345      2944.4804      3548.3037     -603.82324      1273.1696      1935.028      -3315.7696      0.90684128    -77.213604     -419.94451      19134.622      26.74689       26.74689       26.74689       1.288643       16172.107      13848.594      17723.577    
    111000   55500          587.31639      18739.957      8154.853       3031.5758      3534.6201     -503.04432      1272.0433      2001.8713     -3303.6775      3.8235756     -45.732453     -431.37258      18745.774      26.564468      26.564468      26.564468      1.3153736      20494.131      17542.311      18183.429    
    112000   56000          581.32923      18887.528      8338.2009      3125.3082      3498.5879     -373.27961      1266.0078      2082.0547     -3282.8446      2.1683852     -25.96583      -414.70012      18924.646      26.648693      26.648693      26.648693      1.302941       21682.75       17365.085      17614.75     
    113000   56500          606.23982      17554.093      8037.947       3212.4894      3648.5061     -436.01679      1281.7581      2063.0629     -3309.076       4.1949829     -59.857112     -416.09968      18848.822      26.613055      26.613055      26.613055      1.3081824      16586.36       16783.368      19292.552    
    114000   57000          602.19742      23218.025      9582.5536      3252.1385      3624.1779     -372.03949      1341.8673      1924.2585     -3267.8341      0.54624331     5.9881403     -376.86557      18695.239      26.540576      26.540576      26.540576      1.3189292      23164.042      25716.776      20773.257    
    115000   57500          606.76756      19293.839      8521.2706      3240.8614      3651.6822     -410.82074      1321.0805      1998.4665     -3235.5784      2.1014771     -56.672581     -440.21825      18766.057      26.574046      26.574046      26.574046      1.3139519      17549.971      19038.925      21292.621    
    116000   58000          596.29974      21321.915      8949.9044      3101.0398      3588.6842     -487.64442      1227.4282      2022.3648     -3292.0051      2.7143979     -38.661727     -409.48505      18809.163      26.594377      26.594377      26.594377      1.3109407      23812.879      20291.662      19861.203    
    117000   58500          599.01014      19494.558      8452.1181      3105.164       3604.9961     -499.83206      1232.0244      2019.8928     -3282.7313      4.0677288     -103.08543     -370.00029      18806.898      26.59331       26.59331       26.59331       1.3110985      22255.519      16531.056      19697.098    
    118000   59000          606.89007      20163.847      8720.0877      3267.8996      3652.4195     -384.51994      1250.0838      1971.1239     -3312.0685      3.0155805      14.7492       -311.42393      18540.505      26.46715       26.46715       26.46715       1.3299366      20686.341      18148.122      21657.077    
    119000   59500          606.39521      16777.038      7810.7014      3198.4952      3649.4413     -450.94609      1272.5741      2011.2457     -3306.2452      2.4694799     -24.215806     -406.7744       18850.268      26.613736      26.613736      26.613736      1.308082       18026.159      16024.679      16280.277    
    120000   60000          575.88785      19206.038      8146.824       2922.8951      3465.8402     -542.94515      1203.35        2009.9098     -3317.9455      2.7426653     -29.951823     -411.05034      18650.204      26.519247      26.519247      26.519247      1.3221141      19820.015      19903.35       17894.75     
    121000   60500          599.42882      22089.576      9237.531       3247.6879      3607.5158     -359.82792      1269.2842      2037.3366     -3319.4737      3.0709215     -1.2872959     -348.75868      18593.116      26.492161      26.492161      26.492161      1.3261735      25102.993      22203.986      18961.749    
    122000   61000          576.40101      16419.741      7492.0368      3036.5368      3468.9285     -432.39178      1316.9697      2004.9819     -3324.6894      3.6761007     -29.611098     -403.71911      18606.053      26.498305      26.498305      26.498305      1.3252513      15643.133      18843.668      14772.421    
    123000   61500          592.24172      18973.865      8205.0408      3101.7431      3564.262      -462.51886      1215.2645      2019.0085     -3305.7447     -0.58660066    -18.758218     -371.70232      18442.475      26.420421      26.420421      26.420421      1.3370058      18818.191      17050.876      21052.529    
    124000   62000          595.62243      16118.741      7589.8466      3176.7754      3584.608      -407.83261      1297.0105      2074.5942     -3331.0832      3.8894453     -57.983111     -394.26039      18773.011      26.577328      26.577328      26.577328      1.3134652      20628.222      13415.483      14312.516    
    125000   62500          592.65856      19282.595      8377.1754      3178.3648      3566.7706     -388.40585      1237.8011      2076.1312     -3330.713       2.862535       17.215481     -391.70308      18486.838      26.441589      26.441589      26.441589      1.3337974      17690.951      19743.29       20413.543    
    126000   63000          594.30289      23926.344      9576.2579      3105.1018      3576.6666     -471.5648       1211.1424      2075.421      -3359.251       2.7275214     -2.1851458     -399.41956      18545.12       26.469346      26.469346      26.469346      1.3296057      23257.763      22093.064      26428.204    
    127000   63500          604.36693      21971.084      9194.7293      3257.5096      3637.2346     -379.725        1375.0793      2010.8276     -3339.098       2.4620783     -29.310353     -399.68569      18529.16       26.461751      26.461751      26.461751      1.3307509      25870.234      21738.501      18304.518    
    128000   64000          607.60617      23186.009      9550.2059      3284.9349      3656.7292     -371.79431      1251.4166      2097.0453     -3305.6833      2.9082729     -19.963972     -397.51728      18528.403      26.46139       26.46139       26.46139       1.3308053      22781.074      23616.132      23160.82     
    129000   64500          572.20712      18377.956      7910.0007      2972.6337      3443.6886     -471.05493      1235.8952      2034.7544     -3316.3153      2.2457675     -53.961734     -373.67325      18421.386      26.410347      26.410347      26.410347      1.3385364      17485.469      21203.028      16445.371    
    130000   65000          622.30295      22460.993      9339.8714      3296.1015      3745.1782     -449.07665      1239.2577      2080.1095     -3353.7311      3.1843855     -30.18198      -387.71514      18450.285      26.42415       26.42415       26.42415       1.3364399      23619.609      21497.348      22266.023    
    131000   65500          618.79222      23310.362      9589.5086      3368.4146      3724.0497     -355.63509      1303.8142      2034.2934     -3350.501       2.1626768      19.635648     -365.04012      18299.611      26.352023      26.352023      26.352023      1.3474437      21183.317      22743.436      26004.332    
    132000   66000          584.07249      22082.874      9194.6083      3226.51        3515.0975     -288.5875       1325.9186      2044.3448     -3336.9643      3.3866869     -11.933756     -313.33957      18531.241      26.462741      26.462741      26.462741      1.3306015      25576.954      17150.572      23521.095    
    133000   66500          592.73609      25494.848      9940.9903      3179.4687      3567.2372     -387.76846      1258.7398      2024.1918     -3309.1385      0.86488964     44.337423     -406.76385      18185.118      26.296949      26.296949      26.296949      1.3559273      28075.185      27687.727      20721.633    
    134000   67000          605.06856      20696.564      8863.5839      3292.3487      3641.4572     -349.10855      1287.257       2022.7843     -3337.5519      4.8393621      27.59114      -354.02845      18457.69       26.427685      26.427685      26.427685      1.3359037      22029.647      17980.711      22079.334    
    135000   67500          620.12454      21652.3        9101.6385      3311.2739      3732.0679     -420.79395      1277.5854      1976.4191     -3314.5618      3.3703837      21.832022     -385.43908      18336.903      26.369911      26.369911      26.369911      1.3447035      23935.628      18452.049      22569.224    
    136000   68000          611.83613      25525.61       10027.996      3267.374       3682.1861     -414.8121       1270.477       1969.1996     -3359.4946      1.066922       82.078849     -378.13985      18160.785      26.285215      26.285215      26.285215      1.357744       27445.23       21077.875      28053.725    
    137000   68500          597.41861      22392.65       9177.9124      3182.6527      3595.4178     -412.76519      1252.5712      2044.9608     -3323.8005      0.28497468    -40.468148     -346.3135       18358.053      26.380045      26.380045      26.380045      1.3431542      20099.212      22450.993      24627.746    
    138000   69000          578.9448       26587.539      10104.065      3030.698       3484.2377     -453.5397       1206.7622      2065.0259     -3345.999       4.5615082      12.061863     -395.95224      18241.987      26.324333      26.324333      26.324333      1.3517002      24935.944      28271.068      26555.606    
    139000   69500          604.97157      24846.541      9778.6758      3204.4097      3640.8735     -436.46373      1195.9245      1984.5726     -3270.1138      2.0005029      22.743641     -371.59126      18142.847      26.276558      26.276558      26.276558      1.3590864      27202.003      23445.649      23891.972    
    140000   70000          584.61111      22018.394      9161.262       3311.0987      3518.339      -207.2403       1302.3908      2111.664      -3286.1732      2.6992715     -10.130927     -327.69022      18218.242      26.312906      26.312906      26.312906      1.3534619      20997.34       19651.606      25406.236    
    141000   70500          604.28306      24631.458      9785.6362      3236.5451      3636.7298     -400.18477      1278.8602      1986.5119     -3321.2724      2.580324       6.0901719     -352.95499      18231.191      26.319139      26.319139      26.319139      1.3525006      18149.913      26214.557      29529.903    
    142000   71000          582.76849      23160.165      9112.3409      3022.6667      3507.2497     -484.58294      1210.8967      1958.1399     -3303.6288      2.2121155      29.808273     -382.01108      18029.202      26.221579      26.221579      26.221579      1.3676532      25781.759      26285.48       17413.255    
    143000   71500          610.1533       22326.655      9252.9055      3333.5836      3672.0584     -338.47483      1209.9836      2006.1759     -3255.1793      2.5585555      58.841241     -360.85477      18179.101      26.294049      26.294049      26.294049      1.356376       23141.553      23338.871      20499.541    
    144000   72000          623.07237      30278.136      11349.5        3380.4855      3749.8087     -369.32318      1256.1513      2083.7962     -3379.5457      4.8263315      21.341551     -355.89283      18046.776      26.230096      26.230096      26.230096      1.3663215      30947.827      32118.832      27767.748    
    145000   72500          585.48986      24965.212      9743.3211      3207.8608      3523.6276     -315.76678      1302.0764      1977.9822     -3253.7347      2.5652142      63.969009     -408.62494      17950.024      26.183137      26.183137      26.183137      1.373686       19797.182      25474.958      29623.496    
    146000   73000          593.96468      22881.601      9203.965       3112.6654      3574.6312     -461.9658       1248.5444      2034.6738     -3329.3114      3.2570577     -34.450217     -384.67949      18253.564      26.329901      26.329901      26.329901      1.3508429      23808.257      23108.034      21728.511    
    147000   73500          600.14055      29600.839      10801.846      3062.944       3611.7992     -548.85519      1163.1146      1986.0105     -3300.5097      2.9995422      26.050789     -426.52083      17926.663      26.171773      26.171773      26.171773      1.3754761      25637.366      30111.987      33053.164    
    148000   74000          601.00141      23386.785      9416.7583      3275.5097      3616.98       -341.47029      1234.8973      2039.5593     -3329.82        5.2165111      52.914041     -344.2375       18005.71       26.210185      26.210185      26.210185      1.3694376      23038.92       23947.755      23173.681    
    149000   74500          610.54334      21716.062      9033.8232      3338.1326      3674.4058     -336.27322      1228.3532      2054.5137     -3313.1851      5.5120933      43.104825     -354.57197      17984.13       26.19971       26.19971       26.19971       1.3710809      26405.098      21564.927      17178.16     
    150000   75000          607.78586      26888.373      10357.844      3283.0728      3657.8106     -374.7378       1240.2955      2061.1816     -3282.0082      1.7067912      36.346175     -432.25969      18041.473      26.227526      26.227526      26.227526      1.3667231      26905.641      28034.767      25724.711    
    151000   75500          615.54211      26635.545      10300.584      3301.609       3704.4897     -402.88065      1256.578       2009.6442     -3330.8004      2.9302278      6.7724175     -348.00505      18017.6        26.215953      26.215953      26.215953      1.3685339      26249.947      25150.244      28506.445    
    152000   76000          592.17676      25935.336      10087.161      3266.7931      3563.871      -297.07795      1238.7728      1969.6702     -3267.9452      2.1890352      81.510448     -321.27525      18031.839      26.222857      26.222857      26.222857      1.3674533      26447.507      24146.963      27211.538    
    153000   76500          598.19206      26107.223      10045.229      3196.5758      3600.0727     -403.49692      1253.8308      1994.6299     -3319.3605      2.9642133      81.927328     -417.48861      17987.409      26.201302      26.201302      26.201302      1.370831       23912.613      26932.258      27476.799    
    154000   77000          604.75981      25798.219      10026.491      3302.1833      3639.5991     -337.41573      1270.9909      1978.4794     -3219.6284      2.4164923      26.144676     -395.8188       17872.362      26.145321      26.145321      26.145321      1.3796552      25344.552      24537.361      27512.745    
    155000   77500          594.24948      25366.802      9890.3579      3248.4656      3576.3452     -327.87961      1267.9268      2013.4104     -3321.4588      2.8443529      79.127854     -369.73019      17953.545      26.184849      26.184849      26.184849      1.3734166      22548.055      26299.199      27253.153    
    156000   78000          606.66813      25466.496      10074.754      3407.4086      3651.0838     -243.67519      1331.207       2090.5803     -3306.2725      2.168021       14.69439      -376.0525       17951.794      26.183998      26.183998      26.183998      1.3735506      29185.863      22555.051      24658.574    
    157000   78500          592.99125      27208.589      10414.967      3363.0095      3568.7729     -205.76336      1301.2832      2056.7418     -3292.0378     -1.4580102      94.251832     -364.54445      17771.65       26.096119      26.096119      26.096119      1.3874737      29089.13       22236.09       30300.547    
    158000   79000          593.71264      25781.423      10047.949      3276.9505      3573.1144     -296.16382      1259.4228      2022.9845     -3300.5168      1.7903404      39.316084     -319.16075      18008.186      26.211386      26.211386      26.211386      1.3692493      24805.096      27057.647      25481.525    
    159000   79500          585.51383      25463.345      9925.9203      3273.927       3523.7718     -249.8448       1274.8667      1994.952      -3308.0817      0.24992445     151.10475     -362.93648      17912.675      26.164965      26.164965      26.164965      1.3765502      27685.037      25897.796      22807.203    
    160000   80000          604.46914      29452.124      11037.266      3412.2634      3637.8497     -225.5863       1298.7175      2068.8834     -3276.1416     -0.3929517      90.214419     -406.86717      17752.008      26.086501      26.086501      26.086501      1.3890089      25082.453      30292.963      32980.958    
    161000   80500          611.61128      25038.814      10072.043      3524.8085      3680.8329     -156.02448      1318.362       2097.4517     -3318.2515      0.86759735     87.56954      -342.02373      17929.503      26.173155      26.173155      26.173155      1.3752583      24720.928      23470.242      26925.271    
    162000   81000          589.78202      24488.534      9688.7517      3307.1593      3549.4589     -242.29953      1285.4785      2027.2509     -3287.8507      4.2936326      144.79137     -416.26326      17868.595      26.143484      26.143484      26.143484      1.3799461      25054.979      25263.947      23146.674    
    163000   81500          594.00997      24450.977      9612.5569      3266.4133      3574.9037     -308.4904       1266.1308      2089.2801     -3327.5452      2.6499115      87.927308     -426.93327      17796.63       26.10834       26.10834       26.10834       1.3855262      26497.482      20928.432      25927.018    
    164000   82000          598.29791      32207.712      11739.201      3413.1581      3600.7097     -187.55155      1269.5556      2111.2644     -3342.1672      3.1524776      147.76104     -377.11787      17725.678      26.073597      26.073597      26.073597      1.3910721      36206.587      28648.682      31767.866    
    165000   82500          617.94759      30794.296      11469.782      3484.4999      3718.9665     -234.46652      1237.79        2129.7731     -3315.7708      0.75165433     83.502358     -370.51285      17780.505      26.100452      26.100452      26.100452      1.3867827      25543.801      32591.975      34247.111    
    166000   83000          599.86796      28313.822      10762.128      3433.4349      3610.1587     -176.72378      1308.3844      2076.9593     -3302.7495     -0.088691083    120.93327     -380.16269      17748.111      26.084592      26.084592      26.084592      1.3893139      29994.605      26590.53       28356.33     
    167000   83500          600.91381      28778.959      10616.396      3203.2042      3616.4529     -413.2487       1183.505       1974.3451     -3275.2519      2.6052042      93.404644     -391.85681      17662.587      26.042626      26.042626      26.042626      1.3960411      28011.947      29668.613      28656.315    
    168000   84000          611.03943      24114.697      9606.1307      3303.1556      3677.3914     -374.23583      1308.2736      1952.4511     -3306.3658      1.7941507      90.397426     -420.78638      17922.059      26.169533      26.169533      26.169533      1.3758295      21288.577      27040.467      24015.047    
    169000   84500          621.56541      28027.29       10721.462      3480.269       3740.7395     -260.47041      1286.4688      2071.1286     -3315.7686     -0.26007592     92.559989     -394.59911      17715.489      26.0686        26.0686        26.0686        1.3918722      31904.998      25758.847      26418.025    
    170000   85000          601.17905      29023.551      10897.241      3421.8774      3618.0491     -196.17167      1280.8317      2029.9933     -3332.7271      2.4583873      142.05772     -318.78569      17660.617      26.041658      26.041658      26.041658      1.3961968      30080.837      30179.399      26810.417    
    171000   85500          594.71256      27309.768      10351.835      3243.5983      3579.1321     -335.53385      1347.2802      1945.5435     -3348.6354      5.718806       98.526737     -383.96767      17847.113      26.133003      26.133003      26.133003      1.381607       30249.367      24785.97       26893.967    
    172000   86000          605.06976      32506.524      11840.247      3434.574       3641.4644     -206.89034      1246.0581      2025.0687     -3283.7082      3.0381815      156.96001     -354.3072       17730.709      26.076064      26.076064      26.076064      1.3906775      29857.993      33523.2        34138.378    
    173000   86500          613.71922      29031.842      10975.014      3534.8181      3693.5191     -158.70103      1289.5767      2089.7372     -3275.787       3.7400442      130.65955     -396.62752      17572.515      25.998281      25.998281      25.998281      1.4031968      32646.07       25953.286      28496.169    
    174000   87000          612.07007      28487.888      10737.974      3412.6833      3683.5941     -270.91075      1246.7739      2063.2675     -3278.9253      4.5027247      84.587945     -391.11751      17631.477      26.027327      26.027327      26.027327      1.3985043      27978.745      30632.216      26852.702    
    175000   87500          577.8381       26784.054      9986.7814      3104.4375      3477.5773     -373.13978      1207.0733      1973.85       -3359.9471      3.2383447      188.27478     -385.62912      17619.118      26.021244      26.021244      26.021244      1.3994853      28989.842      24297.486      27064.834    
    176000   88000          598.48268      32055.164      11564.145      3312.2291      3601.8217     -289.59262      1203.0671      1989.9632     -3284.9922      6.4323495      140.94015     -345.00323      17651.47       26.037161      26.037161      26.037161      1.3969203      32823.78       30858.541      32483.172    
    177000   88500          597.97697      29507.519      11010.496      3407.6001      3598.7782     -191.17804      1231.2405      2059.5006     -3328.8953      1.7435086      177.47768     -332.24499      17667.31       26.044947      26.044947      26.044947      1.3956679      32585.805      27735.768      28200.986    
    178000   89000          616.77551      29918.644      11165.295      3468.9577      3711.9126     -242.95492      1273.7883      2032.609      -3309.3806      1.2088246      123.18023     -364.36065      17638.69       26.030875      26.030875      26.030875      1.3979324      29682.204      31066.505      29007.222    
    179000   89500          620.74866      31970.073      11732.658      3575.3793      3735.8241     -160.44472      1259.8792      2019.8837     -3278.7405      1.9957838      202.67375     -366.13677      17495.477      25.960234      25.960234      25.960234      1.4093755      33481.771      29349.105      33079.342    
    180000   90000          599.66373      30765.482      11445.983      3532.0581      3608.9296     -76.871503      1248.1567      2212.4437     -3319.548       1.4477674      132.6538      -352.02552      17638.121      26.030596      26.030596      26.030596      1.3979775      29976.236      29151.148      33169.064    
    181000   90500          597.73499      28608.127      10675.77       3315.5623      3597.3219     -281.75961      1235.056       2052.4271     -3302.5104     -1.4405705      117.73375     -383.02549      17641.064      26.032043      26.032043      26.032043      1.3977443      29870.077      27240.255      28714.048    
    182000   91000          614.01235      31005.581      11294.744      3423.3814      3695.2832     -271.90182      1291.0135      1993.4646     -3343.7419      4.641096       161.24089     -378.51997      17407.41       25.916602      25.916602      25.916602      1.4165058      31288.909      27199.452      34528.382    
    183000   91500          600.74183      31287.142      11441.516      3449.8765      3615.4178     -165.54128      1318.4668      2005.8195     -3303.3535      2.1753254      190.1947      -378.84409      17514.353      25.969566      25.969566      25.969566      1.4078566      30473.522      30583.939      32803.965    
    184000   92000          594.15381      27234.117      10304.302      3402.1067      3575.7694     -173.66273      1259.8425      1982.7948     -3285.3525      1.7128437      219.91864     -352.57897      17377.93       25.901963      25.901963      25.901963      1.4189087      32387.349      22974.838      26340.164    
    185000   92500          612.21943      27027.264      10474.379      3580.8586      3684.4929     -103.63439      1324.4658      2007.0027     -3272.2095      2.21146        209.86705     -374.97188      17488.924      25.956992      25.956992      25.956992      1.4099036      26205.373      25907.522      28968.897    
    186000   93000          606.5043       29305.908      10963.81       3475.5782      3650.0978     -174.51963      1291.0675      2077.9393     -3306.5695      2.1464933      121.94648     -361.04983      17520.568      25.972638      25.972638      25.972638      1.4073571      31168.107      28676.855      28072.763    
    187000   93500          585.62979      33175.057      11799.131      3428.0208      3524.4697     -96.448922      1181.1461      2145.5711     -3300.8386      1.2786344      230.75346     -354.35954      17301.967      25.864167      25.864167      25.864167      1.4251384      34356.697      34299.023      30869.451    
    188000   94000          579.01382      28131.887      10509.185      3328.0069      3484.6531     -156.64618      1191.8107      2140.9248     -3310.5071      2.1717585      157.66615     -338.71253      17503.341      25.964123      25.964123      25.964123      1.4087423      24568.91       30318.686      29508.065    
    189000   94500          602.05609      31896.668      11718.254      3515.1396      3623.3274     -108.18779      1356.6293      2099.6124     -3300.3269      1.341798       100.83785     -366.28218      17634.274      26.028703      26.028703      26.028703      1.3982825      32620.091      33139.688      29930.223    
    190000   95000          609.93224      32919.799      11864.975      3542.9441      3670.7281     -127.78395      1266.0194      2053.0661     -3287.4675      2.7232305      208.65502     -370.78015      17333.899      25.880068      25.880068      25.880068      1.422513       36233.746      30517.807      32007.843    
    191000   95500          610.44364      30835.556      11232.602      3453.7302      3673.8058     -220.07556      1245.8398      2039.2742     -3341.9924      2.1327162      197.73289     -363.06276      17297.723      25.862052      25.862052      25.862052      1.425488       33078.92       30984.708      28443.042    
    192000   96000          600.32327      34915.776      12340.397      3486.4681      3612.8988     -126.43077      1300.1221      2013.6801     -3320.3299      4.5849231      228.9875      -353.47546      17387.552      25.906743      25.906743      25.906743      1.4181235      37222.421      37003.126      30521.781    
    193000   96500          595.40299      34843.763      12356.623      3582.4905      3583.2873     -0.79681521     1339.4541      2075.0192     -3339.6596      4.0170665      254.10218     -333.72976      17266.458      25.846461      25.846461      25.846461      1.4280692      37952.187      35504.191      31074.912    
    194000   97000          606.06697      31520.971      11286.272      3308.6732      3647.4658     -338.79269      1275.9045      1936.4952     -3301.7741      3.3236014      183.91508     -436.65698      17353.885      25.890011      25.890011      25.890011      1.4208748      31731.719      31615.06       31216.134    
    195000   97500          579.27119      29999.534      10885.077      3241.6921      3486.202      -244.50991      1196.4315      2049.0903     -3276.8099      2.8041401      132.1427      -348.16866      17470.098      25.947675      25.947675      25.947675      1.4114229      28646.095      31799.82       29552.687    
    196000   98000          590.67102      31888.631      11550.563      3472.454       3554.8091     -82.355122      1271.0658      2078.2065     -3315.5695      3.1621883      226.21401     -345.43406      17369.925      25.897985      25.897985      25.897985      1.4195627      26103.563      33003.505      36558.824    
    197000   98500          616.96522      29728.703      10936.617      3420.6885      3713.0543     -292.36582      1238.823       1920.6983     -3315.4253      2.9753737      181.14968     -320.5869       17335.276      25.880754      25.880754      25.880754      1.4224         26832.127      32352.128      30001.855    
    198000   99000          602.5184       31892.013      11474.477      3434.8622      3626.1097     -191.24748      1224.7636      2025.7856     -3262.7404      2.4803295      223.41792     -404.95453      17285.321      25.85587       25.85587       25.85587       1.4265108      29935.905      32071.779      33668.354    
    199000   99500          585.28787      32809.55       11586.815      3318.4545      3522.4119     -203.95744      1264.8919      1984.8363     -3315.7107      2.3612882      193.7361      -334.07226      17279.98       25.853206      25.853206      25.853206      1.4269517      33062.042      29572.551      35794.058    
    200000   100000         593.44032      29474.226      10888.116      3422.2024      3571.4755     -149.27306      1236.1018      2017.0044     -3290.2703      4.4502627      177.17562     -293.73487      17368.593      25.897324      25.897324      25.897324      1.4196715      30129.586      31416.686      26876.405    
    201000   100500         595.20715      30327.57       11035.852      3390.3333      3582.1087     -191.77542      1269.5745      2045.2013     -3315.3103      1.77553        184.21614     -377.23253      17285.957      25.856187      25.856187      25.856187      1.4264583      31837.567      29770.335      29374.808    
    202000   101000         601.81065      34739.929      12235.873      3569.4568      3621.8503     -52.393418      1272.74        2021.8996     -3313.1323     -0.47754919     296.53798     -329.96109      17105.459      25.765876      25.765876      25.765876      1.4415104      36387.436      31963.185      35869.164    
    203000   101500         632.42326      31964.961      11724.533      3708.9876      3806.0848     -97.097135      1241.2737      2011.6564     -3272.702       4.1934058      258.50282     -340.02155      17194.24       25.810376      25.810376      25.810376      1.4340672      31309.16       35322.297      29263.425    
    204000   102000         583.71873      32936.817      11697.914      3422.2006      3512.9684     -90.767874      1286.5058      2057.3801     -3341.6479      2.513615       235.05491     -330.57433      17228.519      25.827516      25.827516      25.827516      1.431214       30887.337      36134.66       31788.454    
    205000   102500         606.19058      36122.367      12446.061      3409.1708      3648.2098     -239.039        1264.6729      1984.0414     -3329.2794      3.252118       207.61992     -369.34596      17154.06       25.790255      25.790255      25.790255      1.4374263      33040.8        36510.048      38816.253    
    206000   103000         617.54966      32067.224      11664.201      3611.5745      3716.5716     -104.9971       1284.1115      2063.1354     -3287.9405      0.8872425      221.83657     -387.02728      17218.698      25.822608      25.822608      25.822608      1.4320303      33535.685      33546.988      29118.998    
    207000   103500         616.10664      33819.544      12006.225      3558.0529      3707.8872     -149.83427      1292.0708      2037.9476     -3327.0257      2.6490169      231.83718     -387.31316      17128.492      25.777436      25.777436      25.777436      1.439572       33544.246      35239.627      32674.761    
    208000   104000         610.29983      32192.631      11539.523      3448.0502      3672.9403     -224.89014      1266.5488      2021.5779     -3298.6323      1.2823365      190.14069     -405.80763      17234.363      25.830436      25.830436      25.830436      1.4307287      30186.03       35145.25       31246.614    
    209000   104500         586.95614      33331.604      11715.273      3425.0773      3532.452      -107.37469      1288.1131      2110.0292     -3293.9397      1.9199994      214.21772     -427.71495      17054.251      25.740139      25.740139      25.740139      1.4458387      35162.082      39355.995      25476.737    
    210000   105000         609.67474      37396.967      13038.111      3755.8011      3669.1784      86.622696      1279.5552      2120.9335     -3268.3368      2.7029157      305.39704     -353.62912      17019.383      25.722585      25.722585      25.722585      1.4488009      31861.823      42703.341      37625.737    
    211000   105500         603.40159      30047.365      11191.026      3706.1678      3631.425       74.742835      1299.2488      2201.3281     -3327.7452      5.4582405      245.58317     -349.13024      17080.529      25.753353      25.753353      25.753353      1.4436143      30816.447      33186.251      26139.398    
    212000   106000         610.69356      37745.517      12946.11       3515.9612      3675.3099     -159.34869      1206.1884      2098.5865     -3325.0656      0.98340984     243.85301     -383.89444      17130.786      25.778586      25.778586      25.778586      1.4393792      38802.755      40218.977      34214.819    
    213000   106500         588.18363      36511.37       12567.106      3436.0218      3539.8393     -103.81755      1295.1466      2016.2925     -3274.4479      2.7608804      211.41383     -354.98339      17148.192      25.787314      25.787314      25.787314      1.4379181      37904.809      37280.868      34348.434    
    214000   107000         595.83575      39440.01       13306.235      3609.7584      3585.8918      23.866671      1246.5376      2038.9819     -3279.2061      2.2875022      381.02658     -365.76088      16857.806      25.640925      25.640925      25.640925      1.4626872      36933.637      41634.357      39752.035    
    215000   107500         617.62585      34725.173      12429.417      3732.742       3717.0302      15.711808      1294.9275      2082.59       -3257.5341      0.94388996     231.36048     -336.57598      17172.477      25.799481      25.799481      25.799481      1.4358847      34675.857      34661.772      34837.89     
    216000   108000         584.10677      33918.019      11887.28       3439.7866      3515.3038     -75.517223      1296.4458      2026.8107     -3324.7473      3.4610371      257.73749     -335.22493      17077.389      25.751774      25.751774      25.751774      1.4438798      31707.528      30073.564      39972.966    
    217000   108500         578.2735       35396.543      12163.577      3392.3718      3480.1977     -87.825891      1220.3251      2102.8111     -3342.346       3.4299889      271.28903     -343.33512      16991.14       25.708348      25.708348      25.708348      1.4512091      36923.652      31939.794      37326.184    
    218000   109000         596.93944      34746.768      12245.271      3576.6542      3592.534      -15.879873      1305.8209      2086.4886     -3263.7277     -0.38913746     249.96623     -394.03872      17106.436      25.766366      25.766366      25.766366      1.4414281      34377.454      34156.019      35706.83     
    219000   109500         596.23434      34030.283      12089.257      3656.4732      3588.2906      68.182605      1314.4714      2054.409      -3274.8068      1.612593       320.54188     -348.04538      16991.413      25.708486      25.708486      25.708486      1.4511858      33980.639      33818.382      34291.828    
    220000   110000         603.08763      36399.999      12607.698      3612.5897      3629.5355     -16.945754      1242.3876      2044.0517     -3295.6051      3.5577527      366.26025     -377.59796      16944.515      25.684811      25.684811      25.684811      1.4552023      33260.324      36049.384      39890.289    
    221000   110500         566.72696      34430.075      11830.565      3248.9817      3410.7076     -161.7259       1220.9279      2005.958      -3295.8201      1.9881646      273.3036      -368.08346      17090.452      25.758339      25.758339      25.758339      1.4427762      32949.526      35398.634      34942.066    
    222000   111000         610.51012      34033.686      12079.317      3519.9766      3674.2059     -154.2293       1300.4703      2114.1924     -3351.5934      1.4329851      224.01387     -442.74556      17244.691      25.835595      25.835595      25.835595      1.4298718      36101.937      29790.757      36208.363    
    223000   111500         590.37436      40818.857      13643.284      3581.7115      3553.0238      28.687741      1283.4237      2107.6402     -3303.5796      2.3760879      294.62373     -355.79634      16901.652      25.663135      25.663135      25.663135      1.4588927      39831.848      41912.257      40712.466    
    224000   112000         596.55462      36649.911      12614.947      3552.9545      3590.2181     -37.26356       1151.2586      2092.6058     -3315.0029      2.2212399      351.6586      -320.00484      16954.106      25.689656      25.689656      25.689656      1.4543791      34782.448      32976.903      42190.381    
    225000   112500         584.11028      40322.433      13500.666      3499.3166      3515.3249     -16.008291      1216.6716      2117.9183     -3321.5292      1.11718        280.23417     -310.42036      17007.324      25.716508      25.716508      25.716508      1.4498281      38798.209      44855.562      37313.529    
    226000   113000         589.21622      35697.986      12175.596      3327.6215      3546.0538     -218.43225      1176.0938      1991.6607     -3262.116       0.075720417    228.42181     -352.56836      16995.121      25.710356      25.710356      25.710356      1.4508692      35967.758      32934.824      38191.375    
    227000   113500         605.15917      35516.843      12421.922      3647.6784      3642.0025      5.6758633      1247.1266      2119.8936     -3327.2839      3.3987847      273.93277     -311.39197      16939.456      25.682255      25.682255      25.682255      1.4556369      33896.185      36577.931      36076.414    
    228000   114000         607.11598      39668.63       13297.635      3519.2013      3653.7791     -134.57773      1266.2815      2057.9285     -3336.6756      5.3352736      293.40287     -420.85021      16902.316      25.663471      25.663471      25.663471      1.4588354      39796.765      36706.851      42502.275    
    229000   114500         614.38461      38660.973      13131.836      3584.8378      3697.5235     -112.68573      1194.9994      2037.4214     -3264.9775      2.5431225      292.66944     -375.34163      16932.387      25.678682      25.678682      25.678682      1.4562446      35741.84       40553.005      39688.074    
    230000   115000         610.42553      41526.9        13741.996      3587.8034      3673.6968     -85.893404      1255.168       1968.5665     -3277.6352     -0.65686682     327.69409     -359.02991      16766.407      25.594501      25.594501      25.594501      1.4706607      37938.239      43750.876      42891.585    
    231000   115500         601.28438      36420.393      12381.197      3437.8721      3618.683      -180.81087      1200.433       2002.8824     -3332.9329      2.988366       340.90101     -395.08273      16837.534      25.630643      25.630643      25.630643      1.4644482      36105.267      37869.684      35286.227    
    232000   116000         601.80634      34330.219      12002.355      3469.3         3621.8243     -152.5243       1244.3551      2017.6269     -3327.1078      0.62176702     296.84601     -384.86628      17043.236      25.734596      25.734596      25.734596      1.4467732      33867.263      36744.825      32378.568    
    233000   116500         581.94953      40776.236      13540.531      3428.7989      3502.321      -73.52206       1259.4557      2023.7858     -3330.7609      2.4085879      328.18315     -356.59443      17003.664      25.714663      25.714663      25.714663      1.4501402      38682.561      46145.476      37500.671    
    234000   117000         591.85906      39474.17       13280.465      3588.3469      3561.959       26.387872      1216.0371      2206.1114     -3380.0808      4.3673962      303.63464     -323.68177      16835.646      25.629685      25.629685      25.629685      1.4646124      36732.284      39995.825      41694.4      
    235000   117500         593.68228      33660.88       11880.51       3571.8173      3572.9316     -1.1143292      1244.1713      2095.69       -3303.1161      0.94666865     332.86214     -371.66834      16925.104      25.675         25.675         25.675         1.4568712      27838.404      41734.237      31409.997    
[...]
    245000   122500         609.92218      43226.289      14113.532      3606.4212      3670.6675     -64.246303      1239.3305      2005.9556     -3322.6061      0.77303007     379.01805     -366.7174       16667.077      25.543858      25.543858      25.543858      1.4794253      37764.486      46506.406      45407.975    
    246000   123000         600.70542      41889.108      13807.378      3565.915       3615.1987     -49.283729      1243.9884      2077.9788     -3310.8504      3.9441865      351.5506      -415.8954       16764.284      25.593421      25.593421      25.593421      1.470847       36891.324      44851.999      43924.002    
    247000   123500         594.83165      41125.178      13537.613      3591.6139      3579.8488      11.765075      1200.1284      2043.4774     -3290.7857      2.8057276      416.32665     -360.18743      16583.062      25.500865      25.500865      25.500865      1.4869206      43566.408      39928.359      39880.769    
    248000   124000         591.51425      41911.784      13778.522      3632.2384      3559.8839      72.354477      1201.4422      2003.3082     -3283.4995      0.50328832     488.84467     -338.24438      16599.498      25.509287      25.509287      25.509287      1.4854484      39303.656      45945.242      40486.453    
    249000   124500         595.98716      40588.123      13536.608      3613.1313      3586.803       26.328355      1250.8179      2005.3611     -3265.2834      2.3022359      366.5185      -333.38793      16764.439      25.593499      25.593499      25.593499      1.4708334      40591.797      38296.608      42875.965    
    250000   125000         610.82761      43522.352      14335.376      3695.6403      3676.1166      19.523667      1299.5799      2022.6331     -3307.6392      4.1052119      366.26777     -365.42308      16762.646      25.592587      25.592587      25.592587      1.4709907      42103.691      41039.769      47423.596    
    251000   125500         608.6268       46502.013      14909.418      3663.4925      3662.8716      0.62095935     1253.4112      1927.7649     -3267.6402      1.2770682      483.81967     -398.01171      16582.407      25.500529      25.500529      25.500529      1.4869793      46613.817      46464.35       46427.872    
    252000   126000         616.5261       41826.107      13749.033      3644.6349      3710.4116     -65.776724      1166.2508      1990.1421     -3293.4202      2.9882658      448.06381     -379.80159      16564.834      25.491518      25.491518      25.491518      1.4885568      44578.165      43636.239      37263.917    
    253000   126500         589.82492      39314.041      12980.056      3435.0982      3549.7171     -114.6189       1214.8378      2015.4894     -3292.3745      3.4780068      362.36268     -418.41236      16647.554      25.53388       25.53388       25.53388       1.4811603      39252.853      37562.993      41126.277    
    254000   127000         589.67083      38424.298      12869.946      3489.1893      3548.7897     -59.600363      1230.4742      2006.3084     -3295.6214      4.5187109      357.86336     -363.1436       16740.024      25.581069      25.581069      25.581069      1.4729786      41697.079      38919.951      34655.863    
    255000   127500         595.11356      42370.138      13745.53       3490.7137      3581.5455     -90.831783      1223.187       2022.0011     -3355.8618      1.3006508      428.15176     -409.61057      16595.568      25.507273      25.507273      25.507273      1.4858001      39844.677      40536.864      46728.872    
    256000   128000         581.04979      42633.133      13949.746      3588.5523      3496.9061      91.64623       1265.8684      2087.614      -3302.8395      1.6635239      412.51115     -373.17142      16664.283      25.54243       25.54243       25.54243       1.4796734      43538.499      36394.434      47966.467    
    257000   128500         608.69337      42268.876      13915.266      3700.4647      3663.2722      37.192438      1219.3689      2042.8676     -3321.829       2.6706112      417.79829     -323.68387      16570.413      25.494379      25.494379      25.494379      1.4880556      39968.811      44793.336      42044.481    
    258000   129000         608.46668      45636.124      14806.985      3761.8818      3661.9079      99.973874      1226.3735      2122.224      -3322.0332      4.0347274      453.8658      -384.49104      16595.301      25.507137      25.507137      25.507137      1.485824       45874.655      43881.772      47151.944    
    259000   129500         598.19574      48000.353      15275.014      3717.0745      3600.0948      116.97973      1243.2111      2116.4557     -3335.7307      1.3748941      496.14992     -404.48123      16510.495      25.463613      25.463613      25.463613      1.4934559      50724.602      45136.918      48139.538    
    260000   130000         583.60349      42895.818      14009.501      3684.924       3512.2749      172.64908      1254.7789      2143.3977     -3319.8443      1.27676        484.16872     -391.1287       16503.704      25.460122      25.460122      25.460122      1.4940705      45940.37       44267.778      38479.306    
    261000   130500         599.45913      39778.334      13300.598      3570.5325      3607.6982     -37.165734      1250.6947      1975.8509     -3264.8958      0.82487405     364.77945     -364.41987      16772.325      25.597512      25.597512      25.597512      1.4701418      42133.823      40628.928      36572.25     
    262000   131000         598.03237      43454.503      14075.595      3527.1823      3599.1116     -71.929241      1175.4697      2025.7709     -3324.6122      1.8915866      390.45116     -340.90035      16644.718      25.53243       25.53243       25.53243       1.4814127      40539.343      45352.277      44471.888    
    263000   131500         592.7848       44058.965      14094.394      3487.8736      3567.5304     -79.656803      1206.7403      2020.6112     -3332.0705      2.4503086      442.86721     -420.25546      16506.795      25.461711      25.461711      25.461711      1.4937907      42843.003      46019.185      43314.706    
    264000   132000         600.4486       39950.077      13336.944      3656.2603      3613.6531      42.607184      1243.4223      2110.484      -3336.8889      1.9117687      402.93117     -379.25311      16615.466      25.517464      25.517464      25.517464      1.4840208      45616.932      37208.39       37024.908    
    265000   132500         606.99052      44877.576      14490.065      3649.616       3653.024      -3.4080113      1200.3446      2119.0296     -3307.2378      1.8871838      422.75599     -440.18755      16563.113      25.490635      25.490635      25.490635      1.4887115      44902.016      48145.643      41585.069    
    266000   133000         583.23369      46469.677      14663.234      3500.3877      3510.0493     -9.6616745      1147.1685      1984.629      -3275.4806      2.4029695      471.6828      -340.06436      16471.358      25.443477      25.443477      25.443477      1.4970045      47240.576      46024.482      46143.974    
    267000   133500         603.79427      42692.628      14002.249      3712.2829      3633.7882      78.494701      1259.4544      2028.4313     -3265.1711      1.2475616      421.18778     -366.65531      16526.662      25.471922      25.471922      25.471922      1.491995       44598.675      44014.083      39465.128    
    268000   134000         600.42353      45724.122      14717.538      3694.2277      3613.5022      80.725435      1221.6751      2042.6096     -3293.9219      0.78056361     460.77671     -351.19463      16530.682      25.473987      25.473987      25.473987      1.4916322      43290.288      45494.207      48387.871    
    269000   134500         593.73319      44826.96       14364.935      3618.2901      3573.238       45.052092      1297.8419      1977.2887     -3307.233       2.4902322      493.43395     -418.7698       16438.332      25.426461      25.426461      25.426461      1.5000121      47627.262      43347.119      43506.499    
    270000   135000         595.09807      46426.008      14760.953      3603.8173      3581.4522      22.365022      1250.3521      2056.9459     -3330.4204      3.9656864      488.94404     -447.42227      16478.417      25.447112      25.447112      25.447112      1.4963632      45118.621      48105.31       46054.093    
    271000   135500         609.85961      43183.033      14129.018      3735.7536      3670.2909      65.462653      1214.5727      2044.862      -3297.8328      2.9232761      459.64806     -358.71059      16503.002      25.459761      25.459761      25.459761      1.494134       49154.609      39988.713      40405.778    
    272000   136000         588.00938      48116.891      15268.121      3756.859       3538.7907      218.06833      1247.846       2075.106      -3269.61        1.8703621      512.36046     -349.50457      16403.989      25.408742      25.408742      25.408742      1.5031525      45579.197      50464.261      48307.215    
    273000   136500         609.83869      44292.254      14344.446      3787.6704      3670.165       117.50532      1275.7064      2020.8745     -3287.4677      0.73262501     490.51158     -382.85208      16342.844      25.377132      25.377132      25.377132      1.5087764      44257.647      46651.85       41967.266    
    274000   137000         611.08326      43697.103      14345.639      3845.06        3677.6552      167.40481      1280.3462      2113.6662     -3330.6712      4.8565456      487.73666     -388.52958      16477.25       25.446511      25.446511      25.446511      1.4964692      45724.55       45505.84       39860.919    
    275000   137500         594.8172       47085.756      14840.229      3557.3951      3579.7619     -22.366784      1234.2652      2108.0367     -3384.0959      3.0958928      460.13282     -443.8015       16430.575      25.422461      25.422461      25.422461      1.5007203      52697.34       43113.584      45446.345    
    276000   138000         599.91386      46093.423      14615.445      3519.7181      3610.4349     -90.71676       1150.1377      2061.3009     -3343.1195      4.3735478      426.7116      -390.12097      16505.965      25.461284      25.461284      25.461284      1.4938658      47359.114      41835.261      49085.894    
    277000   138500         583.77099      42979.156      13791.36       3482.4892      3513.283      -30.793747      1198.8712      1985.7272     -3279.3065      0.43746858     454.21905     -390.74217      16446.645      25.430746      25.430746      25.430746      1.4992539      42721.283      40974.095      45242.089    
    278000   139000         593.62467      44001.405      14216.468      3679.5142      3572.585       106.9293       1227.8913      2048.2868     -3324.7228      1.4747276      490.41777     -336.41856      16419.98       25.416995      25.416995      25.416995      1.5016886      46173.662      42647.288      43183.266    
    279000   139500         609.04934      49043.772      15532.345      3762.5685      3665.4145      97.153948      1246.1008      2106.0028     -3366.9439      1.7715179      475.36207     -365.1393       16455.4        25.435258      25.435258      25.435258      1.4984562      45313.75       44655.888      57161.677    
    280000   140000         597.91284      48569.84       15301.519      3710.9002      3598.3922      112.50792      1243.679       2053.0739     -3289.8734      4.1581305      484.92835     -383.45802      16363.042      25.387583      25.387583      25.387583      1.506914       50425.163      45022.395      50261.963    
    281000   140500         616.82356      46548.081      14966.722      3854.8766      3712.2018      142.67484      1221.4229      2077.3919     -3292.4533      3.0419254      468.72146     -335.4501       16368.486      25.390398      25.390398      25.390398      1.5064128      47190.771      46401.111      46052.361    
    282000   141000         623.08942      44455.357      14463.745      3846.1708      3749.9113      96.259437      1275.2554      1979.0981     -3274.323       3.8407382      493.29586     -380.90766      16376.659      25.394623      25.394623      25.394623      1.505661       48028.452      43969.732      41367.885    
    283000   141500         597.65315      48080.843      15194.303      3700.1178      3596.8293      103.28843      1243.7061      2009.4412     -3312.8982      4.171765       543.8596      -384.9921       16391.936      25.402517      25.402517      25.402517      1.5042578      51500.442      43604.452      49137.636    
    284000   142000         576.75465      46339.09       14719.187      3651.7292      3471.0569      180.67236      1304.3761      2025.5976     -3298.6788      3.0462472      545.70675     -399.37559      16376.628      25.394607      25.394607      25.394607      1.5056639      49884.22       44447.683      44685.368    
    285000   142500         583.00155      47291.485      14985.306      3641.3398      3508.6523      132.68756      1194.8264      2110.5858     -3312.676       2.9447116      446.06373     -309.05708      16447.735      25.431308      25.431308      25.431308      1.4991546      45154.355      48819.432      47900.667    
    286000   143000         592.81186      44352.198      14311.135      3657.1089      3567.6932      89.415712      1303.8059      2051.2923     -3310.8842      2.4152223      439.31917     -396.53269      16471.105      25.443347      25.443347      25.443347      1.4970275      42983.021      43578.806      46494.767    
    287000   143500         589.98785      47873.426      15062.252      3699.6318      3550.6976      148.93414      1203.9868      2078.5597     -3312.2897      1.2953198      509.03539     -331.65333      16274.516      25.341717      25.341717      25.341717      1.5151109      50730.377      44268.699      48621.201    
    288000   144000         590.81441      47143.511      14906.3        3733.1036      3555.6721      177.43158      1250.3489      2062.3715     -3299.2236      1.4958343      549.04485     -386.60594      16250.982      25.329495      25.329495      25.329495      1.517305       46707.363      48490.855      46232.314    
    289000   144500         605.90373      51093.889      15924.06       3745.3101      3646.4834      98.826633      1222.1367      2110.5505     -3295.9333      2.4571612      445.28544     -385.66991      16343.981      25.377721      25.377721      25.377721      1.5086714      50663.051      46932.016      55686.601    
    290000   145000         622.34767      49391.66       15551.707      3799.3656      3745.4473      53.918317      1202.1871      2069.7802     -3336.9517      2.2286961      520.82139     -404.14737      16315.293      25.362864      25.362864      25.362864      1.5113242      55678.864      45596.794      46899.323    
    291000   145500         614.47397      48003.728      15244.018      3871.0997      3698.0614      173.03836      1283.8857      2075.4417     -3385.6931      3.27649        577.62737     -381.49976      16245.051      25.326414      25.326414      25.326414      1.517859       50396.35       44934.111      48680.722    
    292000   146000         610.94669      50264.412      15825.919      3938.1344      3676.8333      261.30107      1267.5345      2102.2929     -3296.3749      1.5005402      565.80999     -379.46204      16216.773      25.31171       25.31171       25.31171       1.5205058      48282.197      49843.253      52667.786    
    293000   146500         595.24056      49173.606      15456.071      3789.64        3582.3097      207.33026      1276.7406      2051.8228     -3272.8255     -1.4446993      572.71636     -419.67935      16267.846      25.338254      25.338254      25.338254      1.5157321      54548.033      51275.692      41697.093    
    294000   147000         599.21105      47222.426      14938.308      3694.7574      3606.2052      88.55216       1213.9149      1997.0789     -3267.1599      0.15455222     541.20151     -396.63773      16325.982      25.368401      25.368401      25.368401      1.5103347      44774.58       44087.942      52804.755    
    295000   147500         586.32471      47778.35       14987.343      3654.6879      3528.6519      126.03607      1243.012       2043.77       -3270.5706      4.541378       515.60815     -410.32487      16263.898      25.336204      25.336204      25.336204      1.5161001      43865.96       52057.085      47412.005    
    296000   148000         590.44187      45126.187      14501.608      3852.7113      3553.43        299.28121      1243.3747      2157.317      -3292.2659      0.50556374     600.60542     -410.25558      16180.803      25.292982      25.292982      25.292982      1.5238858      49942.116      41609.117      43827.33     
    297000   148500         622.13003      55208.663      17025.404      4054.3351      3744.1375      310.1976       1287.544       2027.1761     -3268.776       2.5217182      647.13983     -385.40803      16109.892      25.255979      25.255979      25.255979      1.5305935      58494.595      55157.903      51973.491    
    298000   149000         602.83616      47335.899      15123.792      3901.3793      3628.022       273.35727      1273.7652      2044.7784     -3272.8315      2.576322       593.46112     -368.39222      16256.226      25.332219      25.332219      25.332219      1.5168156      47280.991      47808.453      46918.253    
    299000   149500         588.50109      47255.111      14886.514      3693.6022      3541.7499      151.85228      1218.6427      2027.3507     -3245.4922      3.0906598      559.569       -411.30859      16241.211      25.324418      25.324418      25.324418      1.5182179      45815.659      46015.594      49934.081    
    300000   150000         602.25432      46640.444      14751.765      3646.4529      3624.5204      21.932468      1168.6575      2025.3826     -3324.8294      2.8533135      553.76496     -403.8965       16326.466      25.368653      25.368653      25.368653      1.5102899      43772.63       47442.811      48705.892    
Loop time of 399.952 on 8 procs for 300000 steps with 2020 atoms

Performance: 32.404 ns/day, 0.741 hours/ns, 750.090 timesteps/s, 1.515 Matom-step/s
95.3% CPU use with 8 MPI tasks x 1 OpenMP threads

MPI task timing breakdown:
Section |  min time  |  avg time  |  max time  |%varavg| %total
---------------------------------------------------------------
Pair    | 248.62     | 253.89     | 260.4      |  19.8 | 63.48
Bond    | 63.986     | 66.742     | 69.191     |  20.5 | 16.69
Neigh   | 14.246     | 14.298     | 14.381     |   1.3 |  3.57
Comm    | 45.746     | 53.273     | 60.203     |  57.2 | 13.32
Output  | 0.10194    | 0.11109    | 0.12161    |   1.9 |  0.03
Modify  | 4.7032     | 5.0729     | 5.7232     |  17.7 |  1.27
Other   |            | 6.562      |            |       |  1.64

Nlocal:          252.5 ave         261 max         243 min
Histogram: 1 2 0 0 0 0 1 2 1 1
Nghost:        5364.25 ave        5399 max        5332 min
Histogram: 1 1 1 0 1 0 2 1 0 1
Neighs:        98641.5 ave      102916 max       95207 min
Histogram: 2 0 1 1 0 2 0 0 1 1

Total # of neighbors = 789132
Ave neighs/atom = 390.65941
Ave special neighs/atom = 5.7524752
Neighbor list builds = 7763
Dangerous builds = 0
System init for write_data ...
Generated 15 of 15 mixed pair_coeff terms from sixthpower/sixthpower mixing rule
STAGE COMPLETE: NPT compression P=1.0->50000.0atm density target reached
