LAMMPS (22 Jul 2025 - Update 3)
KOKKOS mode with Kokkos version 4.6.2 is enabled
  will use up to 1 GPU(s) per node
  using 1 OpenMP thread(s) per MPI task
Reading data file ...
  orthogonal box = (4.1902327 4.1902327 4.1902327) to (45.1309 45.1309 45.1309)
  1 by 1 by 1 MPI processor grid
  reading atoms ...
  7020 atoms
  reading velocities ...
  7020 velocities
  scanning bonds ...
  4 = max bonds/atom
  scanning angles ...
  10 = max angles/atom
  scanning dihedrals ...
  16 = max dihedrals/atom
  scanning impropers ...
  7 = max impropers/atom
  orthogonal box = (4.1902327 4.1902327 4.1902327) to (45.1309 45.1309 45.1309)
  1 by 1 by 1 MPI processor grid
  reading bonds ...
  7010 bonds
  reading angles ...
  13000 angles
  reading dihedrals ...
  14970 dihedrals
  reading impropers ...
  8000 impropers
Finding 1-2 1-3 1-4 neighbors ...
  special bond factors lj:    0        0        1       
  special bond factors coul:  0        0        1       
     4 = max # of 1-2 neighbors
     6 = max # of 1-3 neighbors
     8 = max # of special neighbors
  special bonds CPU = 0.005 seconds
  read_data CPU = 0.277 seconds
Finding SHAKE clusters ...
      10 = # of size 2 clusters
    1990 = # of size 3 clusters
      10 = # of size 4 clusters
       0 = # of frozen angles
  find clusters CPU = 0.003 seconds
PPPM Kokkos initialization ...
  using 12-bit tables for long-range coulomb
  G vector (1/distance) = 0.30326058
  grid = 30 30 30
  stencil order = 5
  estimated absolute RMS force accuracy = 0.00030314567
  estimated relative force accuracy = 9.1291418e-07
  using double precision cuFFT
  3d grid and FFT values/proc = 50653 27000
Generated 10 of 10 mixed pair_coeff terms from sixthpower/sixthpower mixing rule
Neighbor list info ...
  update: every = 1 steps, delay = 0 steps, check = yes
  max neighbors/atom: 4000, page size: 100000
  master list distance cutoff = 11.5
  ghost atom cutoff = 11.5
  binsize = 11.5, bins = 4 4 4
  1 neighbor lists, perpetual/occasional/extra = 1 0 0
  (1) pair lj/class2/coul/long/kk, perpetual
      attributes: full, newton off, kokkos_device
      pair build: full/bin/kk/device
      stencil: full/bin/3d
      bin: kk/device
Setting up Verlet run ...
  Unit style    : real
  Current step  : 0
  Time step     : 1
Per MPI rank memory allocation (min/avg/max) = 34.19 | 34.19 | 34.19 Mbytes
   Step          Time           Temp          Press         Enthalpy        TotEng         KinEng         PotEng         E_bond        E_angle        E_dihed        E_impro         E_vdwl         E_coul         E_long         E_tail         Volume           Lx             Ly             Lz          Density          Pxx            Pyy            Pzz      
         0   0              369.79973     -2240.4607      418.91556      2661.1343      6259.9774     -3598.8431      986.44874      5000.7872     -8519.0952     -54.480725     -3049.1482      6929.1957     -4892.5505     -467.81807      68622.219      40.940667      40.940667      40.940667      1.0665082     -2186.7937     -2671.6068     -1862.9817    
       100   100            302.63244     -86.879906      1431.1105      1518.2734      5122.968      -3604.6946      987.99997      4944.4495     -8480.6975     -55.694631     -3047.5231      6939.8888     -4893.1176     -466.66512      68791.758      40.974356      40.974356      40.974356      1.0638798      689.12226     -1016.8425      67.080567    
       200   200            293.91231     -2100.1337     -723.44701      1396.4517      4975.3536     -3578.9019      1025.3888      4853.1805     -8416.2271     -49.803786     -3042.6587      6944.3251     -4893.1067     -463.82         69213.732      41.057965      41.057965      41.057965      1.0573936     -2298.9779     -2078.7901     -1922.6332    
       300   300            294.97696     -589.77872      813.09621      1411.4028      4993.376      -3581.9732      983.34004      4876.3933     -8464.1161     -52.490281     -2992.8228      6957.0177     -4889.2949     -461.51196      69559.873      41.126296      41.126296      41.126296      1.0521319     -1095.0606     -945.01657      270.74097    
       400   400            294.58352     -1321.6856      155.27108      1502.3809      4986.7158     -3484.3349      1011.2986      4952.5698     -8438.5549     -52.026001     -2990.1007      6926.3971     -4893.9187     -459.34902      69887.411      41.190745      41.190745      41.190745      1.0472009     -1630.6695     -395.03984     -1939.3476    
       500   500            295.14814     -192.39728      1400.4956      1597.2561      4996.2737     -3399.0176      1019.659       5019.3529     -8518.993      -53.643383     -2917.4396      6943.8623     -4891.816      -457.80304      70123.417      41.23706       41.23706       41.23706       1.0436765     -1392.0619      613.10098      201.76908    
       600   600            301.67303     -1373.4362      244.59664      1655.1036      5106.7272     -3451.6236      1007.0915      4918.417      -8445.7587     -52.900467     -2931.4492      6943.1872     -4890.2109     -455.88034      70419.166      41.294951      41.294951      41.294951      1.0392932     -763.38094     -1692.0671     -1664.8605    
       700   700            301.13787     -575.97042      1067.0085      1659.2583      5097.668      -3438.4097      997.48835      5014.2758     -8484.7894     -52.244778     -2954.838       6935.1926     -4893.4942     -455.31594      70506.456      41.312007      41.312007      41.312007      1.0380065     -560.45724     -209.291       -958.16303    
       800   800            298.1203      -1147.1945      413.07938      1592.6002      5046.5865     -3453.9862      1034.3198      4944.2767     -8508.2036     -51.836        -2915.9491      6932.7787     -4889.3728     -455.35393      70500.574      41.310858      41.310858      41.310858      1.0380931     -501.89163     -2167.1379     -772.55408    
       900   900            293.55165     -1176.2951      266.88227      1477.3535      4969.2483     -3491.8949      1043.0519      4971.2133     -8536.3499     -54.611503     -2965.5669      6939.338      -4888.9698     -454.96655      70560.602      41.32258       41.32258       41.32258       1.03721       -687.27728     -2043.8053     -797.80278    
      1000   1000           296.71946     -1720.688      -291.98521      1475.3545      5022.873      -3547.5184      1038.9021      4780.0572     -8439.7069     -49.388607     -2925.1124      6937.3204     -4889.5903     -455.82666      70427.46       41.296573      41.296573      41.296573      1.0391708     -1759.2221     -1684.624      -1718.2179    
      1100   1100           296.45971      1100.3253      2723.7212      1598.4713      5018.4759     -3420.0046      1030.6595      4921.1324     -8443.5895     -49.719692     -2920.0512      6933.9261     -4892.3623     -457.81474      70121.626      41.236708      41.236708      41.236708      1.0437031      2049.7401      171.3864       1079.8495    
      1200   1200           295.8913      -1447.7356      136.1002       1615.2169      5008.8539     -3393.637       1049.9161      5066.4471     -8528.4976     -54.888881     -2970.5838      6936.5655     -4892.5954     -458.2521       70054.7        41.223585      41.223585      41.223585      1.0447002     -2493.8808     -1484.863      -364.46318    
      1300   1300           300.30474     -1623.7617     -59.117695      1600.4665      5083.5647     -3483.0982      1065.7618      4903.7088     -8466.2864     -52.633085     -2981.7921      6942.5128     -4894.3702     -458.07926      70081.133      41.228769      41.228769      41.228769      1.0443062     -1521.7423     -1689.4876     -1660.0551    
      1400   1400           301.90131     -1152.6912      412.16234      1589.9904      5110.5915     -3520.601       993.20537      4890.4701     -8461.9846     -49.54788      -2938.2546      6938.0176     -4892.5072     -458.19325      70063.698      41.22535       41.22535       41.22535       1.044566      -695.3132      -1542.5569     -1220.2034    
      1500   1500           298.69662     -761.80554      801.51021      1580.7932      5056.3424     -3475.5493      1034.7747      4913.664      -8448.0067     -50.47734      -2980.0072      6945.7176     -4891.2142     -457.68489      70141.519      41.240608      41.240608      41.240608      1.0434071     -780.13547     -1683.3509      178.06975    
      1600   1600           301.79681     -1467.9783      63.345978      1565.6784      5108.8226     -3543.1442      1008.3991      4911.7423     -8476.4856     -50.731224     -2991.9743      6946.4127     -4890.5071     -457.47908      70173.074      41.246791      41.246791      41.246791      1.0429379     -1564.926      -1152.5361     -1686.4728    
      1700   1700           296.45475     -357.5448       1213.178       1578.8147      5018.392      -3439.5774      1024.6067      4981.3551     -8494.7186     -50.766098     -2962.963       6952.4234     -4889.5148     -457.82376      70120.244      41.236438      41.236438      41.236438      1.0437237     -421.04243     -142.61088     -508.9811     
      1800   1800           296.9337      -1739.8916     -189.03702      1589.2173      5026.4997     -3437.2824      1076.3128      4988.5628     -8512.9542     -55.586436     -2978.6247      6936.6911     -4891.6838     -458.08489      70080.272      41.228601      41.228601      41.228601      1.044319      -1327.7741     -2583.4976     -1308.4031    
      1900   1900           300.21716     -823.3481       747.7882       1586.8921      5082.0821     -3495.19        1062.5042      4884.975      -8487.7109     -53.915344     -2955.9422      6944.1995     -4889.3002     -459.39408      69880.556      41.189399      41.189399      41.189399      1.0473036     -163.34816     -261.79496     -2044.9012    
      2000   2000           297.43989     -1687.6969     -201.4348       1516.308       5035.0685     -3518.7605      1013.431       4934.2529     -8459.7128     -54.673009     -3002.9019      6943.2935     -4892.4502     -459.99589      69789.132      41.171428      41.171428      41.171428      1.0486756     -2332.8829     -1741.8791     -988.32871    
      2100   2100           294.86684     -180.10902      1279.6737      1462.7128      4991.5119     -3528.7991      1007.1821      4897.069      -8454.0188     -52.205602     -2977.2157      6943.6015     -4893.2116     -460.69034      69683.93       41.15073       41.15073       41.15073       1.0502588      1568.5062     -1298.9494     -809.88382    
      2200   2200           299.70447     -761.66625      759.02966      1533.5073      5073.4033     -3539.896       1011.384       4959.4403     -8553.4965     -55.542009     -2950.7745      6941.1958     -4892.103      -460.44044      69721.751      41.158174      41.158174      41.158174      1.0496891     -1645.633      -471.29672     -168.06906    
      2300   2300           306.90051     -1204.62        416.99736      1647.4908      5195.2181     -3547.7273      1022.4103      4906.911      -8470.6032     -52.295018     -3007.3002      6947.1182     -4893.9684     -458.34068      70041.162      41.22093       41.22093       41.22093       1.0449021     -1084.8356     -811.60101     -1717.4234    
      2400   2400           304.37001     -865.69227      734.89734      1622.9025      5152.3816     -3529.4791      1019.9135      4963.1134     -8547.3235     -53.074183     -2951.4699      6938.1357     -4898.7741     -456.42105      70335.742      41.278638      41.278638      41.278638      1.0405259     -1768.6392      410.64127     -1239.0788    
      2500   2500           301.36864     -1593.6667     -44.661065      1594.838       5101.5745     -3506.7365      1029.9956      4923.9945     -8499.6095     -48.741138     -2965.156       6944.117      -4891.3369     -455.09697      70540.382      41.318632      41.318632      41.318632      1.0375073     -2653.0838     -1212.8869     -915.02928    
      2600   2600           295.80117     -924.06025      645.83247      1596.3942      5007.3282     -3410.934       1029.3025      5053.9728     -8492.1192     -51.796002     -2990.6159      6935.5159     -4895.1941     -455.13224      70534.914      41.317565      41.317565      41.317565      1.0375877     -937.36882     -963.80048     -871.01145    
      2700   2700           301.21392     -1048.5719      613.52235      1690.9018      5098.9553     -3408.0535      1054.8862      4910.4625     -8436.6054     -50.980375     -2933.9114      6940.6846     -4892.5896     -455.66657      70452.203      41.301408      41.301408      41.301408      1.0388058      383.50248     -2233.6998     -1295.5184    
      2800   2800           306.23811     -478.04931      1251.6635      1742.5266      5184.0049     -3441.4783      1018.4708      4980.1097     -8476.3375     -55.662082     -2957.8811      6941.8553     -4892.0334     -455.96335      70406.347      41.292445      41.292445      41.292445      1.0394824     -851.00864      382.88745     -966.02673    
      2900   2900           303.32486     -2300.5895     -680.79543      1679.0407      5134.6893     -3455.6487      1055.7182      4863.6396     -8417.7032     -50.281727     -2960.4105      6944.5672     -4891.1782     -456.43078      70334.244      41.278345      41.278345      41.278345      1.040548      -2055.6076     -2779.4792     -2066.6816    
      3000   3000           302.32718      31.60521       1602.7017      1570.3407      5117.8007     -3547.4599      1014.6405      4883.3319     -8511.0198     -50.795394     -2934.15        6943.0454     -4892.5125     -457.25171      70207.968      41.253627      41.253627      41.253627      1.0424196      428.47917     -791.85503      458.19149    
      3100   3100           296.94664     -1061.1574      461.74783      1549.5544      5026.7188     -3477.1644      1018.8188      4981.1055     -8505.3411     -52.082894     -2971.5894      6944.0261     -4892.1016     -456.71552      70290.394      41.269765      41.269765      41.269765      1.0411972     -1545.2003     -1282.5203     -355.75164    
      3200   3200           294.99594     -1421.1334      125.78009      1585.1501      4993.6972     -3408.547       1041.1301      4912.4457     -8440.2773     -51.636836     -2924.9522      6948.4448     -4893.7013     -455.91833      70413.298      41.293804      41.293804      41.293804      1.0393798     -1013.656      -1541.5599     -1708.1843    
      3300   3300           300.61381     -625.80345      993.95439      1637.6307      5088.7967     -3451.166       1030.0355      4960.848      -8508.2518     -53.040069     -2937.6156      6948.7748     -4891.9168     -455.18513      70526.719      41.315964      41.315964      41.315964      1.0377083     -3559.6975      763.03367      919.25346    
      3400   3400           301.59402     -949.84816      775.78068      1753.1657      5105.3898     -3352.2241      1031.2315      4956.1612     -8456.202      -53.321879     -2887.7847      6948.9106     -4891.2188     -454.99449      70556.269      41.321734      41.321734      41.321734      1.0372737     -498.37978     -1556.1978     -794.96694    
      3500   3500           304.60216     -343.25164      1497.5786      1851.5248      5156.3115     -3304.7866      1032.7807      4977.1491     -8461.2726     -53.749064     -2858.3691      6946.1759     -4887.5016     -454.03878      70704.783      41.350706      41.350706      41.350706      1.0350949     -2410.8491      443.5232       937.57095    
      3600   3600           303.12219     -940.42239      803.34805      1775.0294      5131.2587     -3356.2293      1050.1431      4941.1132     -8437.2521     -50.072123     -2909.5335      6939.0593     -4889.6871     -453.12365      70847.58       41.378525      41.378525      41.378525      1.0330086     -547.32457     -1934.4444     -339.49815    
      3700   3700           298.63486     -1286.0575      337.20028      1665.7412      5055.297      -3389.5559      1046.6818      4898.762      -8467.1014     -54.58581      -2865.2619      6944.7973     -4892.8479     -453.21376      70833.493      41.375782      41.375782      41.375782      1.033214      -2343.3547     -667.38671     -847.43096    
      3800   3800           299.8696      -1418.9616      167.66874      1630.2358      5076.1987     -3445.9628      1052.3928      4993.4367     -8544.9872     -55.569996     -2935.4048      6937.7336     -4893.5639     -454.22651      70675.561      41.345009      41.345009      41.345009      1.0355229     -1849.6289     -2368.1604     -39.095449    
      3900   3900           298.46161     -844.76536      739.35464      1607.4072      5052.3642     -3444.957       1050.3644      4867.5684     -8429.8715     -53.600153     -2912.6506      6930.5357     -4897.3032     -455.62517      70458.604      41.302659      41.302659      41.302659      1.0387115     -390.88221     -290.80281     -1852.6111    
      4000   4000           300.90974     -841.13478      786.79376      1647.5475      5093.8062     -3446.2587      1076.9232      4946.3868     -8503.6513     -50.953322     -2950.1518      6926.3083     -4891.1204     -457.51389      70167.735      41.245745      41.245745      41.245745      1.0430173     -703.47467     -2018.5788      198.64916    
      4100   4100           307.63736     -394.7552       1348.5423      1751.2057      5207.6915     -3456.4858      1030.6388      4965.5978     -8479.7689     -53.412996     -2966.3481      6936.1426     -4889.3351     -458.99006      69942.067      41.20148       41.20148       41.20148       1.0463826      100.81981     -1179.3577     -105.72767    
      4200   4200           301.69319     -737.37759      943.25583      1694.5837      5107.0685     -3412.4848      1080.8947      4981.3611     -8486.4066     -50.907667     -2968.1721      6923.8852     -4893.1393     -459.49212      69865.646      41.186469      41.186469      41.186469      1.0475271      35.808602     -805.3634      -1442.578     
      4300   4300           300.08094     -1914.3472     -378.08758      1579.3883      5079.7762     -3500.3879      1038.9716      4963.7151     -8488.8645     -53.675676     -2995.0126      6925.0361     -4890.5579     -457.86973      70113.204      41.235057      41.235057      41.235057      1.0438285     -1861.3263     -2605.571      -1276.1444    
      4400   4400           299.70153     -517.53205      1031.2073      1560.6851      5073.3537     -3512.6685      1017.0293      4830.2657     -8455.0263     -52.592107     -2908.1364      6947.029      -4891.2377     -457.62225      70151.121      41.242489      41.242489      41.242489      1.0432643     -1208.7253      53.99212      -397.86299    
      4500   4500           300.19907     -220.87729      1379.7283      1605.8783      5081.7759     -3475.8976      1025.4939      4947.8757     -8505.6597     -52.366805     -2941.026       6944.6375     -4894.8522     -457.26947      70205.241      41.253093      41.253093      41.253093      1.0424601      524.55934     -863.28172     -323.90947    
      4600   4600           298.78947     -1970.0561     -364.31444      1659.8234      5057.9142     -3398.0908      1073.1379      4946.1447     -8412.7502     -54.929605     -2995.3559      6937.5242     -4891.8618     -455.67599      70450.746      41.301124      41.301124      41.301124      1.0388273     -2337.8391     -1625.1436     -1947.1856    
      4700   4700           305.22631     -1076.3875      682.56783      1786.6673      5166.8772     -3380.2099      1042.9417      5072.8937     -8510.7101     -52.150885     -2977.7918      6939.1163     -4894.5088     -456.4341       70333.732      41.278245      41.278245      41.278245      1.0405556     -687.63892     -1794.5837     -746.93984    
      4800   4800           302.7213      -984.37627      834.7033       1842.623       5124.4723     -3281.8493      1069.4595      5067.1845     -8501.1802     -53.704871     -2912.8865      6940.2854     -4891.0071     -457.24905      70208.376      41.253707      41.253707      41.253707      1.0424135     -1572.9093     -538.40082     -841.81869    
      4900   4900           302.31334     -994.71633      706.65016      1725.4424      5117.5663     -3392.1239      1026.794       4889.4015     -8456.648      -51.116886     -2861.7076      6949.6963     -4888.5432     -457.12109      70228.03       41.257556      41.257556      41.257556      1.0421218      317.81952     -2054.389      -1247.5795    
      5000   5000           298.79251     -1282.3887      347.42594      1663.6102      5057.9656     -3394.3554      1035.0225      5044.7813     -8535.1362     -52.965552     -2943.5091      6944.3459     -4886.8941     -456.16359      70375.441      41.286403      41.286403      41.286403      1.0399389     -1523.0167     -468.56129     -1855.588     
      5100   5100           297.878       -1456.6115      112.83474      1612.4811      5042.4849     -3430.0038      1030.5341      4906.0251     -8496.4179     -51.864166     -2875.8786      6946.4105     -4888.8128     -454.74979      70594.235      41.329144      41.329144      41.329144      1.0367158     -1569.6728     -1197.2468     -1602.9148    
      5200   5200           302.88641     -852.93603      738.97151      1619.4879      5127.2673     -3507.7795      954.76077      4971.7474     -8505.066      -50.550974     -2941.2356      6951.0531     -4888.4881     -453.52024      70785.625      41.36646       41.36646       41.36646       1.0339127     -122.94475     -566.67288     -1869.1905    
      5300   5300           300.32388     -1975.2528     -374.76897      1668.2549      5083.8887     -3415.6338      1056.9178      4878.4158     -8455.8622     -53.103204     -2903.4857      6952.6319     -4891.1482     -452.65452      70921.005      41.392815      41.392815      41.392815      1.0319391     -2605.392      -1273.9069     -2046.4594    
      5400   5400           301.12552      325.70042      2119.9807      1783.6688      5097.4589     -3313.7901      1007.2658      5030.7744     -8518.6932     -52.084922     -2832.8116      6940.0435     -4888.284      -453.41274      70802.408      41.369729      41.369729      41.369729      1.0336677      1605.9229     -667.82042      38.998779    
      5500   5500           305.28404     -1000.4378      794.67271      1829.4393      5167.8545     -3338.4152      1041.0797      4959.7814     -8440.8013     -51.05632      -2906.5407      6947.0876     -4887.9655     -452.65291      70921.257      41.392864      41.392864      41.392864      1.0319355     -2511.9723     -296.87012     -192.47086    
      5600   5600           300.08045     -1505.6233      184.01534      1743.4973      5079.7679     -3336.2706      1036.4403      4992.1461     -8478.4007     -52.278763     -2904.7391      6957.6079     -4887.0462     -452.01578      71021.224      41.412303      41.412303      41.412303      1.0304829     -560.40405     -2751.089      -1205.3767    
      5700   5700           298.96903     -911.07456      741.15312      1683.6518      5060.9537     -3377.302       1033.4712      4986.3131     -8540.0484     -52.82539      -2872.9138      6955.1407     -4886.4394     -452.57528      70933.423      41.395231      41.395231      41.395231      1.0317585     -1208.3304     -906.07519     -618.81814    
      5800   5800           302.25602     -2396.0031     -824.7169       1652.9287      5116.5961     -3463.6673      1060.8967      4871.4751     -8495.7735     -52.370725     -2903.3426      6943.8701     -4888.4224     -452.75767      70904.848      41.389671      41.389671      41.389671      1.0321743     -2819.6344     -2923.4934     -1444.8814    
      5900   5900           302.67153     -150.71171      1430.9367      1586.2448      5123.6299     -3537.385       996.15408      4871.2932     -8493.3752     -54.839498     -2910.5729      6942.3588     -4888.4034     -454.32915      70659.595      41.341895      41.341895      41.341895      1.0357569      314.95427      322.05876     -1089.1482    
      6000   6000           294.99427     -1437.3878      30.431672      1505.7362      4993.669      -3487.9328      1059.6565      4936.2038     -8542.4424     -50.972714     -2945.2399      6942.5158     -4887.654      -456.15235      70377.175      41.286742      41.286742      41.286742      1.0399133     -1109.8438     -1922.4747     -1279.8448    
      6100   6100           299.47121     -514.13773      970.86782      1497.9928      5069.4547     -3571.4619      1003.736       4925.686      -8537.8573     -51.677446     -2972.7168      6947.9981     -4886.6304     -456.65007      70300.468      41.271736      41.271736      41.271736      1.041048       467.04223     -1115.7626     -893.69279    
      6200   6200           305.21806     -1091.1681      502.35479      1622.8608      5166.7375     -3543.8768      982.22485      4910.6156     -8520.8671     -53.26688      -2911.5445      6936.841      -4887.8797     -455.92678      70411.994      41.293549      41.293549      41.293549      1.0393991     -814.78473     -1317.9556     -1140.7638    
      6300   6300           303.36603     -1294.8664      364.7641       1696.2819      5135.3864     -3439.1044      1041.4377      4921.5714     -8483.6568     -50.290198     -2921.9131      6940.7743     -4887.0278     -455.29788      70509.254      41.312554      41.312554      41.312554      1.0379653     -1014.07       -1144.9272     -1725.6021    
      6400   6400           303.91383     -525.17716      1148.5199      1689.0338      5144.6594     -3455.6256      1055.7647      4912.5653     -8489.7113     -51.980989     -2938.7452      6941.2733     -4884.7914     -454.90072      70570.814      41.324573      41.324573      41.324573      1.0370599     -339.74482     -300.18091     -935.60573    
      6500   6500           297.95413     -1098.9862      456.15252      1587.4894      5043.7735     -3456.2841      1037.2672      4901.9973     -8523.7925     -54.052785     -2874.4425      6943.8513     -4887.112      -454.79733      70586.856      41.327704      41.327704      41.327704      1.0368242     -1228.861      -958.05456     -1110.043     
      6600   6600           294.13181     -475.68922      1026.2857      1516.5525      4979.0693     -3462.5168      1015.9624      4987.3568     -8549.5664     -52.459256     -2922.357       6945.8631     -4887.3165     -454.26416      70669.704      41.343867      41.343867      41.343867      1.0356087     -1166.9668     -919.93229      659.83144    
      6700   6700           297.88084     -1622.1003     -122.23436      1549.5826      5042.533      -3492.9504      982.02022      4976.1835     -8538.2442     -52.647018     -2923.463       6952.558      -4889.3578     -454.26222      70670.006      41.343925      41.343925      41.343925      1.0356043     -947.75398     -1514.2689     -2404.278     
      6800   6800           299.98837      6.5917306      1609.7618      1602.9726      5078.2093     -3475.2367      990.27094      4906.515      -8493.5406     -51.416449     -2907.7574      6966.2052     -4885.5135     -454.56851      70622.388      41.334637      41.334637      41.334637      1.0363025     -204.40801      115.08476      109.09844    
      6900   6900           300.70988     -1295.0637      268.83959      1601.1569      5090.4229     -3489.2661      989.67959      5006.8838     -8557.4654     -52.475288     -2932.7279      6947.4276     -4890.5884     -455.09399      70540.843      41.318722      41.318722      41.318722      1.0375005     -1493.2499     -1678.9062     -713.03501    
      7000   7000           299.50439     -255.18843      1301.4394      1563.3903      5070.0163     -3506.626       1015.4647      4792.114      -8469.3891     -49.338682     -2852.9472      6948.7193     -4891.249      -456.09862      70385.465      41.288363      41.288363      41.288363      1.0397908      457.0774      -760.72579     -461.9169     
      7100   7100           293.81192     -1365.2392      127.04607      1527.118       4973.6541     -3446.5361      1006.6451      5108.3958     -8576.864      -57.663161     -2974.9764      6938.8033     -4890.8767     -456.53706      70317.87       41.275141      41.275141      41.275141      1.0407903     -2372.3174     -1765.4613      42.06119     
      7200   7200           293.99688     -740.02567      798.7026       1556.5073      4976.7852     -3420.2779      1041.445       4796.9285     -8430.6809     -50.016854     -2830.4668      6945.1716     -4892.6584     -457.20096      70215.762      41.255153      41.255153      41.255153      1.0423039      204.32904     -2329.5955     -94.810536    
      7300   7300           301.98671     -1350.6589      301.34224      1685.3142      5112.0372     -3426.7229      1056.6695      4977.0273     -8494.4408     -53.523275     -2971.9846      6950.613      -4891.0841     -456.91562      70259.611      41.263739      41.263739      41.263739      1.0416533     -2195.6608      93.811727     -1950.1275    
      7400   7400           298.28004     -512.99294      1174.4657      1699.2089      5049.2906     -3350.0816      1063.07        4918.774      -8457.4136     -49.201586     -2876.7301      6939.7854     -4888.3658     -457.70129      70139.006      41.240115      41.240115      41.240115      1.0434445      60.513277     -1100.2044     -499.28765    
      7500   7500           300.33318     -1176.9821      413.16521      1618.708       5084.0461     -3465.3381      1027.5764      5039.6149     -8562.5493     -55.327444     -2965.902       6939.4019     -4888.1526     -457.09333      70232.296      41.258391      41.258391      41.258391      1.0420585     -1537.4217     -638.62117     -1354.9035    
      7600   7600           297.6044      -363.88344      1145.2923      1518.2763      5037.8533     -3519.5771      983.26454      4999.7482     -8577.7579     -54.696154     -2917.5809      6937.4111     -4889.9659     -456.76182      70283.269      41.26837       41.26837       41.26837       1.0413027     -483.88283     -233.60453     -374.16295    
      7700   7700           299.77667     -1359.7526      129.47042      1527.1524      5074.6256     -3547.4732      985.84995      4883.9172     -8469.7457     -50.84801      -2956.6147      6947.6346     -4887.6665     -455.47983      70481.087      41.307052      41.307052      41.307052      1.0383801     -1955.5403     -1099.2662     -1024.4512    
      7800   7800           294.39332     -1181.8291      361.41959      1577.8726      4983.496      -3405.6234      1029.5752      4936.6977     -8469.455      -53.34592      -2903.6422      6941.3217     -4886.775      -454.8592       70577.255      41.32583       41.32583       41.32583       1.0369652     -2417.6137     -757.97991     -369.89374    
      7900   7900           298.28079     -1948.7922     -365.75689      1641.3417      5049.3032     -3407.9615      1015.6223      4982.3636     -8485.1782     -54.209554     -2918.4359      6938.4601     -4886.5838     -454.58432      70619.932      41.334158      41.334158      41.334158      1.0363386     -2302.8784     -1286.3664     -2257.1318    
      8000   8000           305.71679     -1005.1006      649.28289      1683.6784      5175.18       -3491.5016      1024.1678      4930.9338     -8543.3447     -51.25589      -2906.9049      6942.0938     -4887.1914     -454.92577      70566.927      41.323814      41.323814      41.323814      1.037117       287.26316     -1480.7581     -1821.807     
      8100   8100           302.59407     -2183.6318     -566.17114      1680.6552      5122.3185     -3441.6633      1039.4211      4990.27       -8484.6788     -55.87347      -2968.8078      6927.9572     -4889.9515     -455.01691      70552.792      41.321055      41.321055      41.321055      1.0373248     -887.70144     -3345.1702     -2318.0237    
      8200   8200           298.30212     -636.53891      929.16609      1583.1713      5049.6644     -3466.4931      989.53121      4907.8932     -8464.7898     -52.7312       -2894.7988      6938.7826     -4890.3803     -455.68148      70449.897      41.300958      41.300958      41.300958      1.0388398     -467.65524     -1398.2678     -43.693675    
      8300   8300           292.59896     -1205.9778      251.74979      1489.9396      4953.1211     -3463.1815      1030.2907      4946.937      -8489.8158     -55.96631      -2934.4322      6927.9564     -4888.1514     -456.00513      70399.896      41.291184      41.291184      41.291184      1.0395777     -798.74709     -1289.1256     -1530.0607    
      8400   8400           299.83233     -912.8141       622.05217      1558.3932      5075.5677     -3517.1745      1029.9056      4795.3573     -8442.5573     -48.686746     -2895.1095      6934.9825     -4891.0663     -456.4213       70335.705      41.278631      41.278631      41.278631      1.0405264     -440.78339     -1384.5566     -913.1023     
      8500   8500           297.08876     -1786.5617     -193.04687      1639.6521      5029.1246     -3389.4725      1045.8885      4936.2728     -8431.6964     -57.27792      -2926.2946      6935.1675     -4891.5323     -456.39881      70339.171      41.279309      41.279309      41.279309      1.0404752     -818.55068     -2152.2583     -2388.876     
      8600   8600           298.67704     -344.70028      1300.6784      1653.7242      5056.011      -3402.2867      1024.4707      4959.9465     -8467.1199     -55.412037     -2904.031       6932.4835     -4892.6245     -457.11789      70228.521      41.257652      41.257652      41.257652      1.0421145      202.1432      -386.23966     -850.00439    
      8700   8700           298.32273     -1203.1275      424.44421      1658.2464      5050.0132     -3391.7669      1015.521       5069.8515     -8560.5603     -52.29767      -2908.5542      6934.0986     -4889.8258     -456.54515      70316.624      41.274897      41.274897      41.274897      1.0408088     -344.2713      -2286.3289     -978.7821     
      8800   8800           306.85006     -1165.8303      444.31245      1642.7732      5194.364      -3551.5908      1011.6136      4899.8359     -8477.6682     -46.865479     -2969.8158      6926.5069     -4895.1977     -455.43791      70487.575      41.308319      41.308319      41.308319      1.0382845     -901.74665     -1257.364      -1338.3803    
      8900   8900           296.05814     -1819.5616     -349.60068      1522.5431      5011.6782     -3489.1352      1055.3859      4880.2689     -8486.8964     -55.097451     -2934.3364      6940.7056     -4889.1653     -455.03543      70549.92       41.320494      41.320494      41.320494      1.037367      -1047.3486     -1786.631      -2624.7054    
      9000   9000           292.72523     -2061.8102     -609.82286      1511.9356      4955.2586     -3443.323       1039.2728      4919.9208     -8487.8687     -51.597071     -2916.7648      6942.6224     -4888.9085     -454.95703      70562.078      41.322868      41.322868      41.322868      1.0371883     -2242.1033     -1927.0672     -2016.2601    
      9100   9100           300.22957     -1228.574       350.27059      1614.067       5082.2923     -3468.2253      1067.2257      4851.5258     -8474.866      -54.776976     -2899.4414      6930.9976     -4888.89       -455.13668      70534.226      41.31743       41.31743       41.31743       1.0375978     -1474.9138     -444.36616     -1766.442     
      9200   9200           301.96559     -189.35525      1498.634       1693.1511      5111.6795     -3418.5284      1037.8942      4932.5342     -8485.1556     -51.708423     -2906.7732      6945.3291     -4890.6488     -455.76093      70437.617      41.298558      41.298558      41.298558      1.039021      -945.09894     -1354.6811      1731.7142    
      9300   9300           302.84616     -1505.8828      129.60285      1676.3424      5126.586      -3450.2436      1063.4968      4911.7023     -8503.0931     -55.41428      -2908.4109      6934.9185     -4893.4431     -455.81816      70428.773      41.296829      41.296829      41.296829      1.0391514     -3472.5587     -895.58503     -149.5047     
      9400   9400           302.43036     -360.53414      1239.5385      1609.5443      5119.5473     -3510.0031      1025.714       4850.6546     -8482.6408     -49.120463     -2909.4501      6943.4235     -4888.5837     -456.20032      70369.774      41.285294      41.285294      41.285294      1.0400227     -568.19875     -1090.1087      576.70497    
      9500   9500           297.71371     -2628.8896     -1167.2612      1533.3538      5039.7037     -3506.3499      1029.2407      4933.7486     -8484.5489     -55.070248     -2984.3582      6941.8401     -4887.202      -455.75067      70439.202      41.298867      41.298867      41.298867      1.0389976     -3871.1914     -2548.8826     -1466.5949    
      9600   9600           299.56072     -1250.7076      246.95438      1528.1348      5070.9699     -3542.8351      1017.3696      4919.7433     -8519.7989     -51.260339     -2960.33        6940.6933     -4889.2521     -457.0494       70239.045      41.259713      41.259713      41.259713      1.0419583     -1275.2884     -745.78204     -1731.0525    
      9700   9700           297.7194      -508.94482      1044.9958      1565.7701      5039.8        -3474.0299      997.19741      4948.8611     -8468.6732     -50.166701     -2947.7235      6937.0072     -4890.5323     -457.55022      70162.164      41.244653      41.244653      41.244653      1.0431001     -459.08777      436.72737     -1504.4741    
      9800   9800           301.44499     -592.96929      1006.0509      1612.7729      5102.8669     -3490.094       1010.0296      4898.2947     -8485.2918     -53.139377     -2905.044       6937.2925     -4892.2356     -457.57268      70158.721      41.243979      41.243979      41.243979      1.0431513     -1419.602       395.62908     -754.93492    
      9900   9900           301.28303     -424.16243      1231.6917      1666.3598      5100.1253     -3433.7656      1033.3697      5015.8313     -8534.119      -50.12156      -2948.3994      6941.4495     -4891.776      -456.86941      70266.716      41.26513       41.26513       41.26513       1.041548       744.58703     -59.893919     -1957.1804    
     10000   10000          306.15413     -2118.6265     -512.97857      1664.5891      5182.5833     -3517.9942      1028.5037      4886.7314     -8516.7432     -50.373673     -2908.5983      6934.8173     -4892.3313     -455.51258      70476.021      41.306062      41.306062      41.306062      1.0384548     -2848.9204     -1487.1695     -2019.7896    
     10100   10100          295.01494     -1148.8867      366.30752      1548.4118      4994.019      -3445.6072      990.17775      4971.233      -8482.1758     -51.277587     -2926.0005      6938.0107     -4885.5748     -455.02898      70550.921      41.32069       41.32069       41.32069       1.0373523     -1201.1787     -1267.7354     -977.74602    
     10200   10200          296.30698     -715.9942       770.35415      1506.5859      5015.8905     -3509.3046      976.97936      4883.9852     -8484.7079     -53.438559     -2886.06        6939.8333     -4885.8959     -455.31565      70506.501      41.312016      41.312016      41.312016      1.0380058     -948.23738     -573.21788     -626.52733    
     10300   10300          298.49758     -1500.0583      50.370529      1591.085       5052.9731     -3461.8881      1007.4467      4954.7187     -8506.5894     -54.302537     -2927.8221      6945.65       -4880.9894     -455.83074      70426.829      41.296449      41.296449      41.296449      1.0391801     -2315.5529     -2313.8562      129.23404    
     10400   10400          300.04541     -436.72513      1234.3043      1682.1738      5079.1747     -3397.001       1003.1651      5012.1054     -8523.7631     -52.000304     -2904.6091      6954.1699     -4886.0689     -456.53529      70318.143      41.275195      41.275195      41.275195      1.0407863     -34.533247     -755.23736     -520.40477    
     10500   10500          299.49018     -869.03035      753.64793      1644.6722      5069.7758     -3425.1036      1019.6717      4943.1948     -8471.7995     -52.263633     -2940.0433      6957.7761     -4881.6398     -456.62852      70303.786      41.272385      41.272385      41.272385      1.0409988     -1209.9503     -493.14316     -903.99758    
     10600   10600          301.15943     -340.9584       1238.4952      1588.1275      5098.033      -3509.9055      1005.0626      4919.3213     -8532.4458     -53.204847     -2900.5547      6943.8589     -4891.943      -456.57011      70312.779      41.274145      41.274145      41.274145      1.0408657     -103.75135     -340.56178     -578.56205    
     10700   10700          295.53675     -1841.8654     -365.78942      1528.3508      5002.8521     -3474.5013      1031.9142      4931.3539     -8468.3538     -49.487538     -2977.1379      6946.5405     -4889.3306     -455.26408      70514.489      41.313576      41.313576      41.313576      1.0378883     -2802.7795     -2184.6855     -538.13115    
     10800   10800          295.79318     -141.45979      1343.3083      1488.592       5007.1929     -3518.6009      990.03301      4863.2637     -8492.4552     -52.851058     -2881.4401      6943.0516     -4888.2027     -455.86223      70421.964      41.295498      41.295498      41.295498      1.0392519      72.532138     -1088.9408      592.02931    
     10900   10900          296.51753     -995.28437      540.24237      1561.1809      5019.4548     -3458.2739      1002.7126      4965.3076     -8483.5828     -53.254641     -2943.0115      6940.6478     -4887.0929     -456.42059      70335.813      41.278652      41.278652      41.278652      1.0405248     -725.21353     -370.53944     -1890.1001    
     11000   11000          300.70187     -1571.3         56.196897      1668.7218      5090.2873     -3421.5655      1024.8586      4962.5084     -8467.9874     -50.672222     -2937.2239      6935.0529     -4888.1018     -456.21579      70367.389      41.284828      41.284828      41.284828      1.0400579     -1597.0344     -2381.9897     -734.87589    
     11100   11100          299.36921     -760.02087      925.03496      1705.4882      5067.728      -3362.2398      1021.422       4984.4948     -8459.1375     -51.921434     -2914.9248      6946.9159     -4889.0888     -455.928        70411.805      41.293512      41.293512      41.293512      1.0394018     -1078.868      -1022.6451     -178.5495     
     11200   11200          302.78627     -669.12631      1000.5664      1688.0113      5125.5721     -3437.5608      980.14468      5014.9663     -8522.4846     -58.035117     -2912.6279      6944.5883     -4884.1124     -455.70924      70445.606      41.300119      41.300119      41.300119      1.0389031      28.665763     -1004.1448     -1031.8999    
     11300   11300          298.49579     -1675.3111     -173.3345       1552.9378      5052.9427     -3500.0049      1020.5612      4861.7859     -8456.365      -55.06287      -2929.8773      6943.5874     -4884.6342     -454.36387      70654.195      41.340842      41.340842      41.340842      1.035836      -1080.405      -1169.0675     -2776.4606    
     11400   11400          293.35409     -253.72318      1265.8721      1527.3775      4965.9041     -3438.5265      1003.5644      4930.342      -8520.8832     -52.79491      -2867.0257      6952.043      -4883.772      -454.25225      70671.557      41.344228      41.344228      41.344228      1.0355815      37.881122      207.29842     -1006.3491    
     11500   11500          299.17829     -510.5935       1079.9047      1606.8278      5064.4961     -3457.6684      1012.0983      4875.3654     -8482.118      -51.676139     -2880.56        6952.482      -4883.2599     -453.67586      70761.344      41.36173       41.36173       41.36173       1.0342675     -707.80238     -1088.3433      264.36517    
     11600   11600          299.60551     -1672.2883     -68.105228      1659.0308      5071.7281     -3412.6973      999.36972      4988.0922     -8494.8957     -54.307844     -2916.4061      6950.4216     -4884.9711     -453.31723      70817.325      41.372634      41.372634      41.372634      1.0334499     -1263.0728     -1943.4266     -1810.3653    
     11700   11700          300.1775      -1280.0819      352.12455      1672.4178      5081.4108     -3408.993       1050.3201      4977.1486     -8516.8336     -54.065205     -2928.98        6946.7307     -4883.3136     -453.92591      70722.364      41.354133      41.354133      41.354133      1.0348376     -861.00976     -2279.0672     -700.16857    
     11800   11800          302.78367     -693.5365       950.56314      1665.1724      5125.5281     -3460.3557      1048.9496      4882.4625     -8472.3461     -52.818737     -2931.0782      6951.695      -4887.2198     -454.37906      70651.834      41.340381      41.340381      41.340381      1.0358706     -1323.8651     -716.2636      -40.480838    
     11900   11900          300.31049     -478.30006      1101.1935      1592.6731      5083.6621     -3490.989       1024.6437      4930.2975     -8565.812      -51.653863     -2885.9195      6944.3276     -4886.8724     -455.63029      70457.813      41.302504      41.302504      41.302504      1.0387231     -492.95804     -323.1838      -618.75833    
     12000   12000          296.73314     -804.35097      642.43205      1468.1357      5023.1045     -3554.9688      1005.8376      4861.6955     -8514.0111     -52.258071     -2915.804       6945.6524     -4886.0811     -456.07787      70388.668      41.288989      41.288989      41.288989      1.0397435     -1268.2744     -664.37393     -480.40454    
     12100   12100          294.82045     -2376.2016     -951.50148      1485.9533      4990.7266     -3504.7733      1062.619       4948.503      -8523.6118     -50.775649     -3002.7512      6947.0345     -4885.7911     -456.41966      70335.956      41.27868       41.27868       41.27868       1.0405227     -2936.5572     -2687.4918     -1504.5556    
     12200   12200          299.68887     -124.93604      1470.0517      1597.7852      5073.1393     -3475.3541      1000.7582      4896.6566     -8531.099      -53.953855     -2856.0634      6956.416      -4888.0686     -457.93146      70103.752      41.233204      41.233204      41.233204      1.0439692      58.101447     -646.66796      213.75839    
     12300   12300          300.33894     -468.41063      1160.1992      1640.1745      5084.1437     -3443.9692      1015.6637      4897.5811     -8422.4448     -51.468953     -2955.7705      6961.1226     -4888.6522     -456.90452      70261.318      41.264073      41.264073      41.264073      1.0416281     -1141.9987     -114.44028     -148.79293    
     12400   12400          301.27157     -1060.2322      574.25469      1663.6598      5099.9313     -3436.2715      1037.6798      4901.201      -8473.3335     -51.841212     -2923.7446      6959.004      -4885.237      -455.64773      70455.116      41.301977      41.301977      41.301977      1.0387629     -1807.9579     -845.82092     -526.91773    
     12500   12500          301.58721     -958.17753      634.9937       1622.0954      5105.2744     -3483.179       995.17223      4878.5175     -8488.2129     -51.967721     -2886.9776      6958.4352     -4888.1458     -454.46635      70638.264      41.337735      41.337735      41.337735      1.0360696     -2040.9587     -215.79473     -617.77914    
     12600   12600          298.37412     -1853.9534     -398.61094      1516.114       5050.8832     -3534.7693      1020.4251      4844.1142     -8477.708      -50.018185     -2936.5098      6951.7161     -4886.7888     -453.32541      70816.046      41.372385      41.372385      41.372385      1.0334686     -1399.8604     -1852.5794     -2309.4205    
     12700   12700          293.15309     -988.6478       481.39635      1501.8237      4962.5014     -3460.6777      1047.5683      4860.1004     -8483.8988     -50.376754     -2902.2877      6954.5888     -4886.3719     -453.60428      70772.51       41.363905      41.363905      41.363905      1.0341043     -1162.0348     -1073.5735     -730.33504    
     12800   12800          303.52373     -1150.8496      460.61398      1646.6069      5138.0559     -3491.449       1040.509       4879.282      -8521.0292     -52.465531     -2903.2832      6953.2772     -4887.7393     -454.31188      70662.28       41.342419      41.342419      41.342419      1.0357175     -763.98432     -1351.7174     -1336.847     
     12900   12900          300.5165      -961.59319      724.68068      1714.8818      5087.1493     -3372.2675      1076.1426      4961.9203     -8493.1869     -51.244366     -2936.2744      6956.067      -4885.6918     -454.6588       70608.363      41.331901      41.331901      41.331901      1.0365084     -1216.906      -335.58203     -1332.2915    
     13000   13000          300.64754     -50.011444      1632.8141      1684.2763      5089.3677     -3405.0914      1058.3608      4908.4844     -8466.6212     -52.140102     -2909.4526      6945.015      -4888.7378     -454.98638      70557.526      41.321979      41.321979      41.321979      1.0372552      191.29987      322.31961     -663.65381    
     13100   13100          301.00006     -1795.0999     -261.66836      1581.7665      5095.3352     -3513.5687      1030.1603      4852.2936     -8483.8873     -50.132794     -2932.8032      6955.8258     -4885.0252     -455.90932      70414.691      41.294077      41.294077      41.294077      1.0393592     -3066.4667     -1041.603      -1277.23      
     13200   13200          298.87166     -326.24543      1198.4256      1532.8997      5059.3056     -3526.4059      1034.4424      4820.5952     -8507.5076     -50.763423     -2896.601       6959.2857     -4885.8571     -456.66696      70297.867      41.271227      41.271227      41.271227      1.0410865     -59.180117     -628.13119     -291.42499    
     13300   13300          298.83582     -1095.7867      457.10106      1579.4507      5058.6988     -3479.2482      1076.9182      4904.2718     -8511.4896     -52.535058     -2951.9196      6944.2864     -4888.7803     -457.10452      70230.576      41.258054      41.258054      41.258054      1.042084      -1536.6117     -450.0162      -1300.7324    
     13400   13400          304.14894     -905.04693      807.25824      1733.1061      5148.6395     -3415.5333      1055.5497      4959.4756     -8500.3684     -54.595968     -2939.7222      6953.3368     -4889.2089     -457.66647      70144.343      41.241161      41.241161      41.241161      1.0433651     -1668.7908     -960.09416     -86.255871    
     13500   13500          307.69634     -1735.8212     -39.064413      1733.0778      5208.6899     -3475.6121      1028.3686      4879.9241     -8442.5127     -52.824347     -2955.6172      6952.9975     -4885.948      -458.58943      70003.169      41.213475      41.213475      41.213475      1.0454692     -2246.785      -2390.7819     -569.89664    
     13600   13600          302.29776     -41.474048      1604.7455      1647.0214      5117.3025     -3470.2811      1013.206       4888.3859     -8492.598      -49.366768     -2899.2621      6955.4252     -4886.0714     -459.30467      69894.158      41.192071      41.192071      41.192071      1.0470998     -64.978873      430.93533     -490.3786     
     13700   13700          296.72424     -1232.9724      320.99173      1582.876       5022.954      -3440.078       1060.2392      4906.4187     -8458.9722     -51.916526     -2965.4703      6957.1068     -4887.4838     -457.45825      70176.27       41.247417      41.247417      41.247417      1.0428904     -743.42181     -2106.9872     -848.50804    
     13800   13800          301.71497     -700.00567      858.89356      1578.5946      5107.4371     -3528.8425      994.11468      4845.3737     -8520.1174     -52.437747     -2860.0852      6954.0216     -4889.7122     -455.37278      70497.657      41.310288      41.310288      41.310288      1.0381361     -719.10357      31.781446     -1412.6949    
     13900   13900          300.19401     -1713.9139     -151.93676      1619.0791      5081.6904     -3462.6113      1062.0772      4823.5431     -8467.5978     -52.703915     -2896.4661      6956.733      -4888.1968     -453.08971      70852.887      41.379558      41.379558      41.379558      1.0329312     -1539.7624     -961.58652     -2640.3929    
     14000   14000          301.79271      258.49538      1968.9201      1701.4694      5108.7532     -3407.2838      1021.6922      4992.7446     -8572.9355     -54.213907     -2862.8178      6952.9161     -4884.6694     -452.5084       70943.906      41.39727       41.39727       41.39727       1.031606      -220.84902      993.02553      3.3096481    
     14100   14100          302.14673     -1556.6202      131.23151      1743.8423      5114.746      -3370.9037      1069.9093      4999.6868     -8525.9835     -54.761773     -2932.3402      6956.8475     -4884.2619     -451.92952      71034.779      41.414938      41.414938      41.414938      1.0302863     -1156.8655     -2355.9638     -1157.0311    
     14200   14200          298.14614     -1045.67        572.67549      1653.1135      5047.0239     -3393.9104      1029.9259      4950.6705     -8525.2665     -54.739599     -2865.1581      6956.5223     -4885.8649     -453.11916      70848.282      41.378662      41.378662      41.378662      1.0329984     -1269.8964     -828.36177     -1038.7519    
     14300   14300          297.26701     -1704.9329     -226.12444      1528.9004      5032.142      -3503.2416      1063.5778      4843.6995     -8485.3814     -52.463386     -2952.3705      6963.9232     -4884.2268     -454.82219      70582.998      41.326951      41.326951      41.326951      1.0368809     -1787.0684     -2179.1878     -1148.5424    
     14400   14400          295.75534     -890.18727      639.2491       1550.5946      5006.5524     -3455.9578      1041.2185      4989.3948     -8568.5682     -51.118906     -2941.7055      6959.9743     -4885.1528     -457.31556      70198.166      41.251707      41.251707      41.251707      1.0425651     -1798.7957     -552.113       -319.65308    
     14500   14500          303.15222     -175.88451      1458.9791      1638.7683      5131.7669     -3492.9985      1060.0383      4837.5151     -8513.124      -52.241039     -2899.9071      6960.5478     -4885.8277     -458.01696      70090.665      41.230638      41.230638      41.230638      1.0441642     -124.62344     -564.11093      161.08082    
     14600   14600          301.21864     -1319.656       314.33218      1661.8167      5099.0353     -3437.2186      1036.3757      4915.0909     -8502.8622     -55.817032     -2904.9044      6959.037      -4884.1385     -458.51607      70014.37       41.215673      41.215673      41.215673      1.045302      -2019.6468     -1753.503      -185.81808    
     14700   14700          300.66127     -1026.9838      568.62302      1617.5162      5089.6        -3472.0839      1022.8186      4916.5521     -8498.8228     -51.153955     -2928.4783      6953.3954     -4886.3949     -458.40568      70031.23       41.218981      41.218981      41.218981      1.0450503     -2305.775      -1452.6373      677.46084    
     14800   14800          294.34393     -564.30515      955.77455      1533.6803      4982.6599     -3448.9797      1041.515       4911.1292     -8491.4584     -50.85417      -2923.5718      6950.4373     -4886.1768     -457.16674      70221.017      41.256182      41.256182      41.256182      1.0422259     -318.82193     -646.53175     -727.56177    
     14900   14900          293.83457     -1345.7566     -17.620993      1365.0981      4974.0376     -3608.9395      1013.0467      4796.937      -8526.9006     -50.448306     -2912.5404      6955.4469     -4884.4808     -455.66973      70451.714      41.301313      41.301313      41.301313      1.0388131     -1535.8314     -924.57882     -1576.8595    
     15000   15000          292.8028      -2421.0305     -1107.5747      1386.8574      4956.5718     -3569.7144      1026.3191      4900.457      -8529.7778     -52.695198     -2988.0243      6955.8147     -4881.8078     -454.40827      70647.292      41.339496      41.339496      41.339496      1.0359372     -2033.0177     -2819.3609     -2410.7131    
     15100   15100          299.58333     -194.21544      1295.0187      1494.7252      5071.3527     -3576.6276      1016.0189      4766.6653     -8501.6601     -52.129538     -2882.7459      6960.6901     -4883.4663     -455.31213      70507.046      41.312122      41.312122      41.312122      1.0379978      584.21395     -960.72257     -206.1377     
     15200   15200          301.07519     -336.14037      1256.7253      1602.0165      5096.6069     -3494.5904      999.26639      4917.6673     -8517.3963     -52.80832      -2923.6071      6965.9678     -4883.6801     -455.77744      70435.065      41.298059      41.298059      41.298059      1.0390586     -592.70197     -103.51503     -312.20411    
     15300   15300          301.00673     -1121.0144      514.99411      1666.0699      5095.4481     -3429.3782      1059.1146      4918.4279     -8545.1165     -53.860784     -2891.4192      6963.3072     -4879.8314     -455.95805      70407.165      41.292605      41.292605      41.292605      1.0394703     -1541.2169     -599.21291     -1222.6133    
     15400   15400          301.93191     -1020.7573      616.66439      1665.9003      5111.1095     -3445.2092      1034.6347      4915.3968     -8475.9201     -52.898359     -2956.9661      6975.1152     -4884.5713     -455.47755      70481.441      41.307121      41.307121      41.307121      1.0383749     -424.11484     -720.82259     -1917.3344    
     15500   15500          297.55272     -1456.8715      60.262241      1558.7478      5036.9785     -3478.2307      1029.7355      4913.459      -8542.3833     -53.886067     -2911.1194      6966.6097     -4880.6461     -455.1833       70527.002      41.31602       41.31602       41.31602       1.0377041     -1651.1718     -1774.016      -945.4268     
     15600   15600          297.45155     -1513.2761     -59.66101       1497.2139      5035.2658     -3538.0519      1028.3694      4880.2087     -8526.9742     -52.339783     -2946.6113      6958.08       -4878.7848     -455.07406      70543.933      41.319325      41.319325      41.319325      1.0374551     -730.96532     -1027.0154     -2781.8475    
     15700   15700          298.31869     -165.35558      1394.9133      1564.9731      5049.9449     -3484.9718      1034.5528      4878.1527     -8516.8236     -50.587274     -2899.1167      6954.2961     -4885.4457     -455.23412      70519.129      41.314482      41.314482      41.314482      1.03782       -113.48046     -617.56398      234.97769    
     15800   15800          299.62887     -1012.7344      565.10004      1607.0035      5072.1236     -3465.12        1000.5542      4995.5543     -8565.9463     -52.409445     -2909.1519      6951.6562     -4885.377      -455.07785      70543.345      41.319211      41.319211      41.319211      1.0374637     -471.13589     -1848.5239     -718.54334    
     15900   15900          300.04306     -1075.5932      500.81298      1608.1254      5079.135      -3471.0096      997.28348      4937.766      -8512.5241     -52.900632     -2919.5896      6963.0808     -4884.1257     -454.77391      70590.492      41.328414      41.328414      41.328414      1.0367708     -1878.5567     -1181.8773     -166.34576    
     16000   16000          300.15734     -1653.6199     -88.996207      1614.621       5081.0696     -3466.4486      1053.4764      4835.0616     -8506.0338     -49.264106     -2870.423       6956.1723     -4885.438      -454.44499      70641.584      41.338382      41.338382      41.338382      1.0360209     -1359.2558     -2084.7395     -1516.8645    
     16100   16100          302.00723     -749.55064      856.76642      1630.0228      5112.3845     -3482.3617      1029.0567      4934.6157     -8518.854      -52.965261     -2951.2397      6963.8632     -4886.8383     -453.83196      70737.005      41.356987      41.356987      41.356987      1.0346234     -335.20983     -1127.8625     -785.57961    
     16200   16200          298.76859     -1684.2964     -130.02218      1606.2677      5057.5608     -3451.293       1051.6404      4870.782      -8476.996      -53.519199     -2919.1182      6960.7748     -4884.8568     -454.16527      70685.091      41.346867      41.346867      41.346867      1.0353833     -518.03822     -3102.9414     -1431.9097    
     16300   16300          297.38483      95.725382      1653.7297      1555.1771      5034.1364     -3478.9593      983.6935       4965.6741     -8549.7497     -54.917001     -2900.3794      6963.8418     -4887.1226     -454.7541       70593.566      41.329014      41.329014      41.329014      1.0367256     -406.44245     -26.904212      720.52281    
     16400   16400          295.55837     -1444.0904      47.648461      1535.0525      5003.2181     -3468.1656      1030.6181      4976.395      -8556.7468     -49.299587     -2936.3561      6955.6076     -4888.3839     -454.55144      70625.039      41.335155      41.335155      41.335155      1.0362636     -1465.8186     -1624.424      -1242.0285    
     16500   16500          301.14611     -1270.9065      311.63238      1619.9907      5097.8074     -3477.8167      1045.2541      4879.4404     -8488.109      -50.705038     -2940.4297      6966.6245     -4889.892      -454.78334      70589.027      41.328128      41.328128      41.328128      1.0367923     -1492.1289     -1244.0007     -1076.59      
     16600   16600          305.02812     -515.10724      1179.6455      1708.4297      5163.5222     -3455.0925      1012.5356      4921.4003     -8512.4582     -51.589043     -2896.2871      6957.5316     -4886.2256     -456.07558      70389.02       41.289058      41.289058      41.289058      1.0397383     -144.05936      165.53981     -1566.8022    
     16700   16700          303.86972     -824.84888      863.87486      1709.3387      5143.9127     -3434.574       1041.2721      4915.5007     -8472.0417     -52.826194     -2922.0413      6942.8089     -4887.2466     -456.76938      70282.106      41.268143      41.268143      41.268143      1.04132       -985.06618     -1137.3037     -352.17682    
     16800   16800          297.81102     -452.91583      1132.6826      1596.13        5041.3509     -3445.221       1037.4913      4958.6451     -8487.1202     -52.53586      -2954.6693      6942.0896     -4889.1216     -457.54595      70162.819      41.244782      41.244782      41.244782      1.0430904      738.45926     -754.66329     -1342.5435    
     16900   16900          297.44409     -1358.508       94.247383      1482.4229      5035.1395     -3552.7167      1015.1882      4959.1856     -8546.8394     -53.988561     -2992.1818      6947.9342     -4882.0149     -458.17929      70065.834      41.225769      41.225769      41.225769      1.0445342     -1498.9668     -1614.0225     -962.53457    
     17000   17000          295.90026     -1547.8682     -55.250523      1524.4744      5009.0055     -3484.5311      1032.7453      4859.6953     -8456.7049     -51.288638     -2928.7226      6948.8382     -4889.0937     -458.74374      69979.622      41.208853      41.208853      41.208853      1.045821      -827.47416     -1381.7169     -2434.4136    
     17100   17100          301.03192     -578.061        1019.0062      1608.9924      5095.8745     -3486.8822      1004.3449      4943.5195     -8486.784      -53.475778     -2952.0124      6942.8478     -4885.3221     -458.7219       69982.954      41.209507      41.209507      41.209507      1.0457712     -672.59655     -349.37035     -712.21608    
     17200   17200          301.10381     -801.19671      855.8629       1675.6951      5097.0914     -3421.3963      1016.5613      5010.6689     -8525.3119     -51.322277     -2928.3508      6943.9326     -4887.5741     -457.54287      70163.29       41.244874      41.244874      41.244874      1.0430833     -1727.0923     -506.05373     -170.44408    
     17300   17300          298.38725     -589.25225      1081.2537      1686.2995      5051.1055     -3364.806       1038.9653      4964.9825     -8485.2999     -54.215561     -2881.7536      6940.4947     -4887.9796     -455.96408      70406.234      41.292423      41.292423      41.292423      1.0394841     -631.31772     -908.23666     -228.20235    
     17400   17400          296.85153     -1260.6369      299.1177       1598.8914      5025.1087     -3426.2172      995.9676       4921.7822     -8453.6409     -53.519423     -2902.7094      6949.4572     -4883.5545     -454.08785      70697.143      41.349217      41.349217      41.349217      1.0352068     -1223.2058     -1769.9704     -788.73443    
     17500   17500          297.73984      50.403255      1517.0367      1464.9099      5040.1461     -3575.2362      971.53632      4849.5225     -8509.7861     -50.985064     -2897.2628      6951.1998     -4889.4608     -452.70487      70913.117      41.39128       41.39128       41.39128       1.0320539      891.10191      310.94515     -1050.8373    
     17600   17600          297.3421      -1213.7171      285.82419      1543.6588      5033.4131     -3489.7543      1002.0884      4894.7336     -8493.4879     -52.052566     -2895.815       6943.5193     -4888.74       -451.76394      71060.815      41.419997      41.419997      41.419997      1.0299088     -1646.2421     -1467.6087     -527.30055    
     17700   17700          301.31243     -2246.4447     -693.77534      1635.8027      5100.6229     -3464.8201      1045.8968      4922.8398     -8528.949      -52.248378     -2904.446       6941.5202     -4889.4336     -451.47748      71105.902      41.428755      41.428755      41.428755      1.0292558     -2403.8528     -2019.9175     -2315.5638    
     17800   17800          299.42167     -952.46141      709.70078      1695.1171      5068.6161     -3373.499       1017.0342      4959.1467     -8532.5669     -55.285164     -2838.5333      6965.446      -4888.7406     -452.52781      70940.864      41.396678      41.396678      41.396678      1.0316503      57.743512     -1346.8103     -1568.3175    
     17900   17900          306.56538     -1099.6947      595.21052      1731.7878      5189.545      -3457.7572      1001.2349      4968.9304     -8544.6201     -51.30593      -2913.4413      6966.4542     -4885.0094     -452.99227      70868.127      41.382525      41.382525      41.382525      1.0327091     -1256.8703     -407.19682     -1635.017     
     18000   18000          298.10735     -1270.7535      386.13993      1697.2673      5046.3672     -3349.0999      1020.6444      5091.964      -8528.1866     -51.652469     -2963.8544      6966.7906     -4884.8055     -453.76823      70746.94       41.358923      41.358923      41.358923      1.0344781     -823.24609     -2022.2458     -966.76863    
     18100   18100          298.04604      511.08469      2064.1856      1539.1041      5045.3294     -3506.2253      947.61623      4974.899      -8592.3024     -54.431269     -2856.3564      6959.4194     -4885.0698     -455.70502      70446.259      41.300247      41.300247      41.300247      1.0388935      10.551191      1824.097      -301.39412    
     18200   18200          299.76231     -1385.7755      117.35633      1541.1622      5074.3825     -3533.2203      985.78804      4899.335      -8492.7283     -50.637994     -2936.7345      6950.0839     -4888.3264     -455.67974      70450.167      41.30101       41.30101       41.30101       1.0388359     -1687.638      -1857.1524     -612.53596    
     18300   18300          302.15159     -751.46088      858.83534      1630.663       5114.8282     -3484.1651      1035.8474      4831.9697     -8494.1719     -52.7769       -2880.0591      6960.4022     -4885.3765     -455.83078      70426.823      41.296448      41.296448      41.296448      1.0391802     -529.70395     -165.81933     -1558.8594    
     18400   18400          299.84477     -1528.581       104.29836      1673.7448      5075.7783     -3402.0334      1027.0866      4975.6353     -8492.4494     -51.980343     -2943.3395      6967.0041     -4883.9902     -455.99448      70401.539      41.291506      41.291506      41.291506      1.0395534     -1464.2519     -2094.1455     -1027.3457    
     18500   18500          304.71091     -1526.5845      85.284453      1651.5478      5158.1525     -3506.6048      1026.8644      4913.1528     -8514.7756     -51.737717     -2951.837       6958.5135     -4886.7851     -456.32443      70350.635      41.281551      41.281551      41.281551      1.0403056     -2196.3666     -1266.5708     -1116.8162    
     18600   18600          301.34449     -1510.9456      66.255632      1613.1766      5101.1656     -3487.989       1039.9108      4936.3097     -8505.8669     -50.480189     -2970.763       6951.8982     -4888.9976     -457.29698      70201.019      41.252266      41.252266      41.252266      1.0425228     -742.22231     -1669.174      -2121.4403    
     18700   18700          302.18932     -216.00656      1386.728       1607.2133      5115.467      -3508.2537      1036.3566      4851.5821     -8496.1356     -51.973682     -2925.8759      6963.9573     -4886.1646     -458.67493      69990.12       41.210914      41.210914      41.210914      1.0456642     -0.85247696    -799.95832      152.79113    
     18800   18800          295.60434     -1102.6481      485.38718      1610.628       5003.9962     -3393.3681      1065.4691      5033.7566     -8523.2086     -56.543431     -2986.6482      6960.8978     -4887.0913     -458.78486      69973.35       41.207622      41.207622      41.207622      1.0459148     -942.08586     -899.26388     -1466.5947    
     18900   18900          298.25339     -5.0479106      1607.8876      1613.0377      5048.8394     -3435.8017      1039.7397      4962.7715     -8489.8454     -54.743141     -2974.776       6965.4644     -4884.4128     -458.89704      69956.245      41.204264      41.204264      41.204264      1.0461705     -232.39242     -8.1598503      225.40854    
     19000   19000          299.524       -1818.3902     -210.75979      1647.9428      5070.3484     -3422.4056      1053.7393      4952.9235     -8496.9902     -53.212994     -2952.7165      6958.987      -4885.1357     -458.03095      70088.526      41.230219      41.230219      41.230219      1.044196      -2511.4932     -473.1606      -2470.5168    
     19100   19100          305.02847     -300.27205      1378.638       1686.784       5163.5282     -3476.7442      1002.1109      4894.3183     -8444.1547     -47.702103     -2955.0848      6963.3614     -4889.5932     -456.22187      70366.451      41.284644      41.284644      41.284644      1.0400718     -71.133676     -816.65388     -13.028589    
     19200   19200          304.11651     -1819.8511     -238.18194      1634.7193      5148.0904     -3513.3711      1076.6247      4812.9903     -8487.4381     -54.172555     -2938.4174      6962.6731     -4885.6311     -454.92374      70567.242      41.323876      41.323876      41.323876      1.0371124     -2889.27       -617.15331     -1953.1298    
     19300   19300          295.14647     -2367.1458     -883.71022      1553.5948      4996.2454     -3442.6507      1075.5646      4892.9076     -8495.8837     -53.56962      -2932.8291      6957.955      -4886.7956     -454.70818      70600.695      41.330405      41.330405      41.330405      1.036621      -2906.6179     -1522.0489     -2672.7706    
     19400   19400          300.9151       481.40149      2079.6197      1584.2694      5093.8969     -3509.6275      1005.8256      4941.2854     -8524.8395     -53.368787     -2953.9401      6962.1752     -4886.7654     -455.00129      70555.215      41.321528      41.321528      41.321528      1.0372892      847.29002      292.08044      304.834      
     19500   19500          302.11337     -2221.0427     -569.86164      1711.5921      5114.1812     -3402.5891      1050.877       4986.2699     -8534.2781     -54.196511     -2923.4202      6959.731      -4887.5722     -455.78798      70433.437      41.297741      41.297741      41.297741      1.0390826     -2067.4024     -1947.5009     -2648.2248    
     19600   19600          305.66352     -295.77253      1435.6652      1738.9153      5174.2782     -3435.3629      1033.9862      4983.1689     -8509.7724     -52.608146     -2960.0674      6955.9612     -4886.0312     -456.64073      70301.906      41.272018      41.272018      41.272018      1.0410267     -970.92774      345.19401     -261.58387    
     19700   19700          302.36713     -1187.7505      466.37058      1681.7207      5118.4769     -3436.7562      1036.2047      4934.9212     -8480.5046     -52.948115     -2952.6892      6965.1556     -4886.8957     -457.55304      70161.731      41.244569      41.244569      41.244569      1.0431065     -1270.7652     -377.76199     -1914.7244    
     19800   19800          303.62731     -163.79809      1476.2024      1643.6239      5139.8093     -3496.1854      1001.1994      4926.9039     -8507.4773     -55.949534     -2941.9457      6967.3347     -4886.2509     -458.05257      70085.217      41.22957       41.22957       41.22957       1.0442453      179.29217     -1312.9414      642.25492    
     19900   19900          301.43076     -772.21224      798.74622      1588.7899      5102.626      -3513.8361      1007.4638      4947.991      -8550.1321     -54.829799     -2930.9253      6953.5369     -4886.9406     -457.61812      70151.754      41.242613      41.242613      41.242613      1.0432549     -880.23313     -743.65462     -692.74896    
     20000   20000          300.05395     -1706.2486     -198.00382      1552.7956      5079.3194     -3526.5237      1035.9051      4880.6904     -8487.7577     -51.797422     -2984.7235      6967.6481     -4886.4888     -456.27172      70358.763      41.283141      41.283141      41.283141      1.0401854     -2729.8234     -1348.0899     -1040.8326    
     20100   20100          299.66613     -2136.1861     -622.9889       1575.0407      5072.7544     -3497.7137      1033.2712      4922.2124     -8508.3152     -51.461182     -2959.0756      6955.2563     -4889.6015     -455.01236      70553.498      41.321193      41.321193      41.321193      1.0373144     -1082.4983     -3875.0118     -1451.0482    
     20200   20200          304.3262      -1407.8792      236.3593       1686.2896      5151.6401     -3465.3506      1058.8976      4919.6569     -8546.5222     -50.946593     -2925.556       6962.8849     -4883.7652     -454.6068       70616.44       41.333477      41.333477      41.333477      1.0363898     -2058.9529     -1065.8118     -1098.873     
     20300   20300          304.21834     -1226.2867      478.11612      1741.2509      5149.8142     -3408.5634      1046.9223      5027.7778     -8548.5854     -51.47281      -2941.3364      6948.4687     -4890.3377     -454.52729      70628.792      41.335887      41.335887      41.335887      1.0362086     -489.33673     -2359.451      -830.07228    
     20400   20400          300.28666     -728.38822      941.67631      1690.9157      5083.2587     -3392.343       1030.2153      5020.3507     -8533.5643     -53.860751     -2923.6527      6952.1033     -4883.9346     -455.15567      70531.284      41.316856      41.316856      41.316856      1.0376411     -2058.5648      1074.99       -1201.5899    
     20500   20500          295.4374      -870.3938       676.29801      1569.1085      5001.1703     -3432.0618      1044.7264      4921.1321     -8496.1354     -52.252566     -2914.907       6956.5566     -4891.182      -456.42994      70334.373      41.27837       41.27837       41.27837       1.0405461      522.63074     -1445.9587     -1687.8535    
     20600   20600          301.31671     -1079.4755      433.33585      1539.0161      5100.6953     -3561.6792      1023.0741      4861.2141     -8495.4262     -52.225488     -2968.6762      6960.2141     -4889.8537     -457.08911      70232.943      41.258518      41.258518      41.258518      1.0420489     -1485.5053     -1357.9183     -395.00302    
     20700   20700          301.36104     -1226.1656      313.23895      1566.5433      5101.4458     -3534.9025      1052.966       4857.9875     -8500.1231     -49.989337     -2967.723       6961.5791     -4889.5998     -458.04717      70086.043      41.229732      41.229732      41.229732      1.044233      -1460.9688     -949.61424     -1267.9137    
     20800   20800          298.81983     -1293.42        290.76393      1610.9879      5058.4282     -3447.4403      1029.1828      4955.2267     -8483.4816     -52.969057     -2973.0919      6965.4002     -4887.7075     -458.6798       69989.377      41.210768      41.210768      41.210768      1.0456752     -1505.3297     -3108.4118      733.48143    
     20900   20900          300.98311     -1034.4271      564.1952       1618.9646      5095.0481     -3476.0836      1051.9055      4940.1822     -8522.0545     -52.748645     -2964.6404      6959.6888     -4888.4166     -459.15574      69916.829      41.196524      41.196524      41.196524      1.0467603     -1322.8839     -972.5508      -807.84662    
     21000   21000          295.8934      -1123.2325      444.50369      1590.6495      5008.8895     -3418.24        1045.485       4979.6543     -8501.741      -54.284268     -2947.4914      6948.3545     -4888.2171     -458.82538      69967.171      41.206409      41.206409      41.206409      1.0460071     -1728.1869     -564.28697     -1077.2237    
     21100   21100          298.85952     -1572.2936     -73.070794      1533.7083      5059.1001     -3525.3917      1041.9624      4868.0498     -8492.7671     -52.981587     -2972.3586      6967.6341     -4884.9308     -458.13671      70072.346      41.227046      41.227046      41.227046      1.0444371     -2307.3059     -1874.642      -534.93277    
     21200   21200          298.44186     -1005.6693      516.51227      1544.7348      5052.0298     -3507.295       1009.2243      4971.0976     -8513.9354     -53.105252     -2987.6789      6956.7195     -4889.6167     -457.91591      70106.133      41.233671      41.233671      41.233671      1.0439338     -1774.2402     -170.71349     -1072.0543    
     21300   21300          299.69992     -1451.6316      160.71546      1645.9831      5073.3263     -3427.3432      1069.2407      4857.2268     -8423.2044     -52.469369     -2948.6092      6958.6273     -4888.155      -457.58242      70157.227      41.243686      41.243686      41.243686      1.0431735     -3492.9199     -746.47619     -115.49877    
     21400   21400          300.03751     -1248.9222      429.2632       1706.9346      5079.0411     -3372.1065      1097.8065      4941.9861     -8503.0772     -52.664572     -2933.8106      6960.7946     -4883.1413     -457.65041      70146.803      41.241643      41.241643      41.241643      1.0433285      177.91698     -2297.6749     -1627.0087    
     21500   21500          303.44453     -928.6116       735.18008      1686.5442      5136.7152     -3450.171       1026.5505      4990.7662     -8540.4301     -53.362591     -2958.1392      6970.1851     -4885.741      -456.98817      70248.457      41.261555      41.261555      41.261555      1.0418188     -911.78374     -1281.614      -592.43711    
[...]
    495100   495100         298.65024     -1433.523       263.21884      1769.3628      5055.5573     -3286.1945      1059.2853      5014.0567     -8548.0666     -53.53996      -2820.1159      6946.3197     -4884.1338     -445.61093      72042.025      41.609769      41.609769      41.609769      1.0158815     -1853.6779     -853.38498     -1593.5063    
    495200   495200         301.1016      -899.70585      802.57827      1746.5716      5097.0539     -3350.4823      1023.0001      4860.9393     -8485.7493     -52.587646     -2752.7491      6947.0842     -4890.4199     -446.22024      71943.651      41.590821      41.590821      41.590821      1.0172706      72.925182     -170.70296     -2601.3398    
    495300   495300         300.3957      -404.55464      1336.2121      1760.7032      5085.1044     -3324.4013      1016.2896      4968.2445     -8533.0338     -52.693878     -2777.5695      6945.5584     -4891.1967     -446.19659      71947.466      41.591556      41.591556      41.591556      1.0172166     -1034.9999     -312.98759      134.32356    
    495400   495400         298.84122     -1405.5537      326.66865      1803.4616      5058.7902     -3255.3286      1084.2287      4959.1717     -8485.6252     -49.891776     -2826.4795      6950.2388     -4886.9712     -445.60031      72043.742      41.6101        41.6101        41.6101        1.0158573     -922.5873      -1844.7123     -1449.3617    
    495500   495500         299.91367     -1150.6188      699.02796      1907.6856      5076.9448     -3169.2592      1056.9954      5131.9914     -8556.0783     -52.20363      -2814.3709      6951.4581     -4887.0512     -445.70323      72027.105      41.606896      41.606896      41.606896      1.0160919     -1144.0573     -842.44354     -1465.3555    
    495600   495600         303.22089     -1281.5073      553.98635      1899.7804      5132.9294     -3233.149       1048.0177      4941.5824     -8429.864      -50.501682     -2799.5707      6948.1215     -4890.9343     -445.8206       72008.143      41.603245      41.603245      41.603245      1.0163595     -1825.4016     -1234.6628     -784.45762    
    495700   495700         298.39622      84.020942      1848.0341      1759.9833      5051.2572     -3291.2739      1058.2518      4900.0191     -8497.8267     -52.706534     -2757.5931      6948.6988     -4890.1173     -446.75748      71857.137      41.574143      41.574143      41.574143      1.0184953      178.88001     -418.99978      492.18259    
    495800   495800         298.05747     -2309.2404     -702.91276      1713.6859      5045.523      -3331.837       1027.9673      4975.6893     -8517.9739     -51.388306     -2810.3751      6934.6946     -4890.4508     -447.38585      71756.211      41.55467       41.55467       41.55467       1.0199279     -1727.1467     -1978.5765     -3221.9979    
    495900   495900         301.31905     -631.98718      1071.9456      1732.6556      5100.735      -3368.0794      1000.7686      4867.493      -8499.3923     -53.035066     -2747.5647      6953.4576     -4889.8067     -447.83192      71684.737      41.540868      41.540868      41.540868      1.0209448      316.33963     -932.25844     -1280.0427    
    496000   496000         296.13902     -1570.6722      167.8001       1812.5173      5013.0473     -3200.53        1060.3468      5012.5825     -8444.4252     -52.498585     -2828.5918      6941.8705     -4889.8142     -447.1075       71800.884      41.563291      41.563291      41.563291      1.0192933     -2262.0428      129.03366     -2579.0074    
    496100   496100         303.18326     -1190.0226      669.1408       1915.0174      5132.2923     -3217.2749      1051.1205      4928.3752     -8443.3059     -52.550932     -2757.7805      6945.6556     -4888.7889     -447.1959       71786.69       41.560552      41.560552      41.560552      1.0194948     -2131.3136     -441.25631     -997.49796    
    496200   496200         305.14076     -1575.0475      202.24925      1849.3624      5165.4289     -3316.0665      1024.8861      5036.9866     -8520.7122     -53.14018      -2872.6424      6956.4425     -4887.887      -447.70078      71705.735      41.544923      41.544923      41.544923      1.0206458     -2073.0512     -1047.103      -1604.9882    
    496300   496300         303.27148     -114.28312      1586.2712      1705.5007      5133.7858     -3428.2852      1012.423       4871.0208     -8496.1782     -49.631007     -2838.8998      6959.2269     -4886.2469     -448.76214      71536.145      41.512145      41.512145      41.512145      1.0230655     -588.28721      123.83749      121.60036    
    496400   496400         300.26855     -1943.5654     -336.11178      1688.6165      5082.952      -3394.3355      1045.302       4895.6625     -8519.8793     -51.390276     -2830.7738      6954.8255     -4888.0821     -449.41756      71431.819      41.491955      41.491955      41.491955      1.0245597     -2125.4994     -1454.2544     -2250.9424    
    496500   496500         299.59298     -724.63722      971.73882      1725.7163      5071.516      -3345.7997      1022.5057      4912.2346     -8491.3234     -50.015732     -2814.9693      6963.7223     -4887.9539     -449.96618      71344.725      41.475085      41.475085      41.475085      1.0258104     -290.49002     -885.80174     -997.6199     
    496600   496600         300.75104     -592.72065      1186.3572      1803.0666      5091.1198     -3288.0532      1110.5792      4916.6358     -8490.2247     -52.7006       -2838.0128      6954.1493     -4888.4794     -449.97367      71343.538      41.474855      41.474855      41.474855      1.0258274     -866.63717      331.00795     -1242.5327    
    496700   496700         301.64385     -1055.1225      701.04034      1800.3308      5106.2332     -3305.9025      1097.5021      4899.3878     -8485.0621     -50.559494     -2838.4516      6960.0524     -4888.7715     -449.37413      71438.723      41.493292      41.493292      41.493292      1.0244606     -1033.5197     -1132.9718     -998.87593    
    496800   496800         299.63186     -1805.9953     -231.18848      1651.5825      5072.1742     -3420.5916      1049.4903      4874.2644     -8511.7372     -50.933905     -2843.5808      6950.3089     -4888.4033     -449.09348      71483.366      41.501934      41.501934      41.501934      1.0238208     -2453.3509     -1820.552      -1144.083     
    496900   496900         296.82929     -947.62703      629.3091       1617.4384      5024.7323     -3407.2939      1020.4367      4874.0648     -8442.9445     -48.901356     -2862.0404      6946.4817     -4894.3908     -448.99479      71499.079      41.504974      41.504974      41.504974      1.0235958     -603.61412     -1433.7356     -805.53131    
    497000   497000         295.27851     -564.97675      1060.7606      1649.0795      4998.4806     -3349.4011      1071.5378      4920.18       -8509.8831     -49.88174      -2844.5739      6953.4486     -4890.2289     -449.60946      71401.33       41.486051      41.486051      41.486051      1.0249972      474.17794     -1062.9791     -1106.1291    
    497100   497100         302.26189     -1330.3441      346.25616      1730.0274      5116.6954     -3386.668       1019.3781      4933.5548     -8517.0488     -52.359705     -2832.634       6954.0261     -4891.5844     -450.10862      71322.148      41.47071       41.47071       41.47071       1.0261351     -1383.9393     -1574.1959     -1032.8971    
    497200   497200         303.90414     -437.46368      1370.521       1825.263       5144.4954     -3319.2325      1004.2307      4966.3756     -8497.326      -49.947702     -2810.304       6956.2737     -4888.5348     -450.39612      71276.621      41.461884      41.461884      41.461884      1.0267905     -609.60828     -1196.2345      493.45176    
    497300   497300         306.0849      -832.15258      1098.3731      1963.3805      5181.4115     -3218.0309      1056.1436      4926.3967     -8428.3783     -54.422664     -2801.4441      6968.9448     -4885.271      -450.40247      71275.616      41.461689      41.461689      41.461689      1.026805      -482.13013     -1864.0618     -150.26582    
    497400   497400         305.95154     -1218.5137      676.38735      1946.1927      5179.1538     -3232.9611      997.933        5125.487      -8465.8411     -54.932643     -2898.262       6948.801      -4886.1463     -449.27359      71454.709      41.496387      41.496387      41.496387      1.0242314     -1329.7857     -1083.5518     -1242.2036    
    497500   497500         302.24066     -1005.2159      716.3337       1766.2678      5116.3361     -3350.0683      996.22463      4939.2067     -8474.49       -50.620831     -2822.8568      6951.5964     -4889.1283     -448.24448      71618.76       41.52812       41.52812       41.52812       1.0218853     -1639.0918     -1138.1543     -238.40164    
    497600   497600         300.28552     -1140.5218      496.01634      1689.5305      5083.2393     -3393.7089      1017.8699      4923.5503     -8473.9763     -50.103515     -2879.2183      6954.0197     -4885.8508     -447.3976       71754.327      41.554306      41.554306      41.554306      1.0199547     -649.75026     -827.80273     -1944.0124    
    497700   497700         296.43867     -1061.6297      547.37991      1657.7855      5018.1199     -3360.3343      1027.7566      4923.1633     -8514.1387     -50.469141     -2809.8149      6954.3232     -4891.1546     -447.61955      71718.748      41.547437      41.547437      41.547437      1.0204606     -1276.244      -649.41021     -1259.2349    
    497800   497800         300.28058     -2612.1455     -981.86878      1750.487       5083.1558     -3332.6688      1087.6669      4916.0177     -8519.3865     -51.846046     -2836.8662      6958.9952     -4887.2499     -447.58731      71723.914      41.548434      41.548434      41.548434      1.0203871     -3257.4385     -2388.2338     -2190.7644    
    497900   497900         299.63794     -571.69737      1241.9011      1839.362       5072.2771     -3232.9151      1055.3613      5047.3202     -8534.8902     -55.288952     -2817.0152      6959.2264     -4887.6285     -447.99619      71658.452      41.53579       41.53579       41.53579       1.0213193     -1165.9191     -36.313587     -512.85947    
    498000   498000         297.22486     -1661.9791      74.035753      1809.1616      5031.4285     -3222.2669      1080.0699      4992.3337     -8483.5936     -53.578606     -2832.0477      6962.8544     -4888.3049     -448.44811      71586.239      41.521833      41.521833      41.521833      1.0223496     -2342.5711     -159.92373     -2483.4424    
    498100   498100         302.26415     -594.27265      1098.6183      1717.6157      5116.7336     -3399.1179      1024.4515      4880.9992     -8481.2789     -52.608444     -2830.3029      6948.6999     -4889.0783     -449.48435      71421.205      41.4899        41.4899        41.4899        1.0247119     -206.31705     -556.67743     -1019.8235    
    498200   498200         300.17976     -666.47455      981.6217       1672.7765      5081.4491     -3408.6726      1027.6573      4972.7004     -8563.9305     -51.932723     -2854.0461      6949.9805     -4889.1015     -451.46682      71107.581      41.429081      41.429081      41.429081      1.0292315     -428.10943      89.254338     -1660.5686    
    498300   498300         296.46549     -449.88699      1217.1755      1683.3472      5018.5738     -3335.2265      1057.9694      4830.6419     -8429.1697     -51.300522     -2796.8903      6943.7789     -4890.2561     -451.83006      71050.415      41.417976      41.417976      41.417976      1.0300596     -1143.9646     -162.69336     -43.003068    
    498400   498400         299.8708      -123.03593      1602.3347      1730.0165      5076.219      -3346.2025      1050.2108      4970.0849     -8541.4755     -53.479496     -2844.0957      6957.2966     -4884.7442     -451.14949      71157.597      41.438793      41.438793      41.438793      1.028508       733.24972      729.16973     -1831.5273    
    498500   498500         304.02508     -1422.0135      288.71825      1770.7542      5146.5428     -3375.7886      1090.7334      4920.0743     -8586.5199     -51.283081     -2817.3201      6955.6667     -4887.1399     -449.22365      71462.652      41.497925      41.497925      41.497925      1.0241176     -937.78153     -2113.2074     -1215.0516    
    498600   498600         299.75031     -2231.5955     -615.22532      1719.9262      5074.1793     -3354.2531      1041.2439      4918.6981     -8487.4108     -52.830553     -2854.1398      6966.2065     -4886.0205     -447.42273      71750.296      41.553528      41.553528      41.553528      1.020012      -2288.2903     -2955.1887     -1451.3076    
    498700   498700         294.4741      -1781.8756     -276.0713       1587.2096      4984.8635     -3397.6539      997.7895       4980.5699     -8517.6652     -50.457788     -2882.1573      6959.0967     -4884.8296     -447.73051      71700.974      41.544004      41.544004      41.544004      1.0207136      71.931328     -3644.7907     -1772.7674    
    498800   498800         290.9985      -339.85246      1245.9287      1600.0484      4926.0285     -3325.9801      1003.7275      4952.4991     -8480.4218     -50.278518     -2831.5814      6964.2862     -4884.2113     -449.32224      71446.972      41.494889      41.494889      41.494889      1.0243424      46.037834      168.27062     -1233.8658    
    498900   498900         298.06601     -1884.0216     -259.03166      1700.5481      5045.6674     -3345.1193      1050.0573      4954.7382     -8496.2477     -52.49254      -2881.5271      6964.7423     -4884.3898     -450.1327       71318.333      41.469971      41.469971      41.469971      1.02619       -1556.3762     -2970.753      -1124.9356    
    499000   499000         299.01603     -171.19917      1556.8044      1734.4016      5061.7493     -3327.3477      1001.4772      5043.0084     -8562.6556     -54.14395      -2834.8531      6964.6453     -4884.826      -451.31837      71130.97       41.433623      41.433623      41.433623      1.028893      -539.09826     -55.11765       80.618409    
    499100   499100         300.76103     -800.18411      892.46261      1723.2592      5091.2889     -3368.0297      1035.205       4978.6713     -8556.0207     -53.521753     -2847.7767      6962.4503     -4887.0372     -450.93389      71191.619      41.445396      41.445396      41.445396      1.0280165     -639.74677     -2045.321       284.51539    
    499200   499200         296.01601     -1563.571       44.88785       1671.2904      5010.965      -3339.6746      1036.3946      4932.9871     -8456.4017     -48.095527     -2873.3043      6957.8645     -4889.1193     -450.09813      71323.811      41.471032      41.471032      41.471032      1.0261112     -1580.8474     -1777.0586     -1332.8069    
    499300   499300         294.32302     -756.55445      765.53042      1552.5202      4982.306      -3429.7858      1014.7187      4867.5654     -8458.7191     -51.712032     -2886.1844      6967.8147     -4883.269      -450.07898      71326.846      41.471621      41.471621      41.471621      1.0260675      330.33494     -1860.6311     -739.36718    
    499400   499400         292.05599     -947.74298      529.37097      1513.8987      4943.9297     -3430.031       1042.1648      4913.8263     -8538.6958     -51.355143     -2852.3674      6946.2956     -4889.8995     -450.69241      71229.763      41.452796      41.452796      41.452796      1.027466      -1041.2625     -2112.5473      310.58085    
    499500   499500         297.24237     -653.31066      989.88275      1668.258       5031.7248     -3363.4668      1030.5753      4965.5021     -8538.2484     -52.443773     -2831.9083      6950.6098     -4887.5536     -450.88663      71199.08       41.446843      41.446843      41.446843      1.0279088     -1203.6949      390.65992     -1146.897     
    499600   499600         300.96359     -401.29075      1305.6156      1722.9744      5094.7177     -3371.7433      992.79149      4956.9004     -8521.2442     -53.499211     -2812.5547      6955.1628     -4889.2998     -450.16032      71313.956      41.469122      41.469122      41.469122      1.026253       43.330123     -1779.318       532.11562    
    499700   499700         300.88089     -1088.4005      586.61257      1723.1428      5093.3177     -3370.1749      1023.4711      4880.2023     -8484.2138     -49.825871     -2808.665       6956.6094     -4887.753      -448.35848      71600.55       41.5246        41.5246        41.5246        1.0221452     -1977.5034     -46.927315     -1240.7709    
    499800   499800         302.44428     -1145.5572      521.1859       1722.1077      5119.783      -3397.6753      1048.7502      4863.5583     -8504.7088     -50.681477     -2820.3014      6952.8348     -4887.127      -446.60099      71882.316      41.578998      41.578998      41.578998      1.0181386     -1064.7029     -926.41434     -1445.5542    
    499900   499900         301.46284     -782.24641      922.71343      1744.0698      5103.169      -3359.0992      1017.9242      4953.9148     -8571.5201     -51.224146     -2778.9487      6956.2492     -4885.4945     -445.89191      71996.627      41.601027      41.601027      41.601027      1.0165221     -805.86397     -1469.7598     -71.115498    
    500000   500000         300.82836     -1471.0028      263.46186      1808.6145      5092.4286     -3283.8141      1053.2821      5010.2492     -8522.5007     -50.733732     -2839.7306      6954.8619     -4889.2423     -445.71756      72024.79       41.60645       41.60645       41.60645       1.0161246     -956.74105     -1627.5514     -1828.716     
Loop time of 1130.93 on 1 procs for 500000 steps with 7020 atoms

Performance: 38.199 ns/day, 0.628 hours/ns, 442.114 timesteps/s, 3.104 Matom-step/s
100.0% CPU use with 1 MPI tasks x 1 OpenMP threads

MPI task timing breakdown:
Section |  min time  |  avg time  |  max time  |%varavg| %total
---------------------------------------------------------------
Pair    | 124.98     | 124.98     | 124.98     |   0.0 | 11.05
Bond    | 114.08     | 114.08     | 114.08     |   0.0 | 10.09
Kspace  | 479.93     | 479.93     | 479.93     |   0.0 | 42.44
Neigh   | 71.494     | 71.494     | 71.494     |   0.0 |  6.32
Comm    | 14.396     | 14.396     | 14.396     |   0.0 |  1.27
Output  | 6.5499     | 6.5499     | 6.5499     |   0.0 |  0.58
Modify  | 288.54     | 288.54     | 288.54     |   0.0 | 25.51
Other   |            | 30.96      |            |       |  2.74

Nlocal:           7020 ave        7020 max        7020 min
Histogram: 1 0 0 0 0 0 0 0 0 0
Nghost:          19180 ave       19180 max       19180 min
Histogram: 1 0 0 0 0 0 0 0 0 0
Neighs:              0 ave           0 max           0 min
Histogram: 1 0 0 0 0 0 0 0 0 0
FullNghs:  4.35427e+06 ave 4.35427e+06 max 4.35427e+06 min
Histogram: 1 0 0 0 0 0 0 0 0 0

Total # of neighbors = 4354266
Ave neighs/atom = 620.26581
Ave special neighs/atom = 5.7008547
Neighbor list builds = 14791
Dangerous builds = 0
System init for write_data ...
PPPM Kokkos initialization ...
  using 12-bit tables for long-range coulomb
  G vector (1/distance) = 0.30193358
  grid = 30 30 30
  stencil order = 5
  estimated absolute RMS force accuracy = 0.00031822175
  estimated relative force accuracy = 9.5831534e-07
  using double precision cuFFT
  3d grid and FFT values/proc = 50653 27000
Generated 10 of 10 mixed pair_coeff terms from sixthpower/sixthpower mixing rule
STAGE COMPLETE: NPT T=300.0->300.0K P=-1000.0->-1000.0atm steps=500000
