LAMMPS data file via write_data, version 22 Jul 2025, timestep = 300000, units = real

2020 atoms
6 atom types
2010 bonds
7 bond types
3800 angles
12 angle types
4770 dihedrals
14 dihedral types
2400 impropers
11 improper types

0 30.1464841 xlo xhi
0 30.1464841 ylo yhi
0 30.1464841 zlo zhi

Masses

1 12.01115
2 12.01115
3 1.00797
4 1.00797
5 32.064
6 32.064

Pair Coeffs # lj/class2/coul/long/gpu

1 0.054 4.01
2 0.054 4.01
3 0.02 2.995
4 0.02 2.995
5 0.071 4.027
6 0.071 4.027

Bond Coeffs # class2

1 1.53 299.67 -501.77 679.81
2 1.101 345 -691.89 844.6
3 1.823 225.277 -327.706 488.972
4 1.101 345 -691.89 844.6
5 1.823 225.277 -327.706 488.972
6 1.823 225.277 -327.706 488.972
7 1.3261 275.112 -531.318 562.963

Angle Coeffs # class2

1 112.67 39.516 -7.443 -9.5583
2 110.77 41.453 -10.604 5.129
3 112.564 47.0276 -10.679 -10.1687
4 112.564 47.0276 -10.679 -10.1687
5 97.5 57.6938 -5.0559 -11.8206
6 110.77 41.453 -10.604 5.129
7 112.564 47.0276 -10.679 -10.1687
8 96.8479 56.7336 14.2713 0
9 107.66 39.641 -12.921 -2.4318
10 107.852 51.4949 -13.527 7.026
11 107.852 51.4949 -13.527 7.026
12 107.852 51.4949 -13.527 7.026

BondBond Coeffs

1 0 1.53 1.53
2 3.3872 1.53 1.101
3 10.9186 1.53 1.823
4 10.9186 1.53 1.823
5 -22.3144 1.823 1.823
6 3.3872 1.53 1.101
7 10.9186 1.53 1.823
8 -0.57 1.823 1.3261
9 5.3316 1.101 1.101
10 7.0463 1.101 1.823
11 7.0463 1.101 1.823
12 7.0463 1.101 1.823

BondAngle Coeffs

1 8.016 8.016 1.53 1.53
2 20.754 11.421 1.53 1.101
3 -3.5621 22.3865 1.53 1.823
4 -3.5621 22.3865 1.53 1.823
5 -13.0015 -13.0015 1.823 1.823
6 20.754 11.421 1.53 1.101
7 -3.5621 22.3865 1.53 1.823
8 10.7325 5.1221 1.823 1.3261
9 18.103 18.103 1.101 1.101
10 9.3225 44.9874 1.101 1.823
11 9.3225 44.9874 1.101 1.823
12 9.3225 44.9874 1.101 1.823

Dihedral Coeffs # class2

1 0 0 0.0316 0 -0.1681 0
2 -0.7017 0 0.0201 0 0.104 0
3 -0.4871 0 -0.4514 0 -0.1428 0
4 -0.5073 0 0.0155 0 -0.0671 0
5 -0.3338 0 -0.0684 0 -0.1706 0
6 -0.5073 0 0.0155 0 -0.0671 0
7 -0.3338 0 -0.0684 0 -0.1706 0
8 -0.1432 0 0.0617 0 -0.1083 0
9 -0.2078 0 -0.106 0 -0.3595 0
10 -0.2078 0 -0.106 0 -0.3595 0
11 -0.2078 0 -0.106 0 -0.3595 0
12 -0.5374 0 -0.5091 0 -0.1361 0
13 -1.2002 0 -1.2999 0 -0.1626 0
14 -1.2002 0 -1.2999 0 -0.1626 0

AngleAngleTorsion Coeffs

1 -16.164 112.67 110.77
2 -26.71 112.67 112.564
3 -28.1728 112.564 96.8479
4 -32.8949 112.564 97.5
5 -26.49 97.5 107.852
6 -32.8949 112.564 97.5
7 -26.49 97.5 107.852
8 -12.564 110.77 110.77
9 -13.1026 110.77 112.564
10 -13.1026 110.77 112.564
11 -13.1026 110.77 112.564
12 -18.6334 107.852 96.8479
13 -13.9674 112.564 112.564
14 -13.9674 112.564 112.564

EndBondTorsion Coeffs

1 0.2486 0.2422 -0.0925 0.0814 0.0591 0.2219 1.53 1.101
2 -0.1586 -0.7244 -0.2608 -0.7991 -0.959 0.5855 1.53 1.823
3 0.1026 0.0936 -0.0404 -0.3008 0.0606 0.4501 1.53 1.3261
4 -0.2542 -0.7984 -0.6525 -0.3047 -0.0109 -0.3763 1.53 1.823
5 0.2592 -0.0166 0.1306 -0.41 0.0668 0.4187 1.823 1.101
6 -0.2542 -0.7984 -0.6525 -0.3047 -0.0109 -0.3763 1.53 1.823
7 0.2592 -0.0166 0.1306 -0.41 0.0668 0.4187 1.823 1.101
8 0.213 0.312 0.0777 0.213 0.312 0.0777 1.101 1.101
9 -0.1526 -0.371 0.1048 1.0661 0.3298 0.425 1.101 1.823
10 -0.1526 -0.371 0.1048 1.0661 0.3298 0.425 1.101 1.823
11 -0.1526 -0.371 0.1048 1.0661 0.3298 0.425 1.101 1.823
12 0.4376 0.2001 -1.0696 0.2902 0.0695 0.1726 1.101 1.3261
13 -0.3252 0.5008 0.5191 -0.3252 0.5008 0.5191 1.823 1.823
14 -0.3252 0.5008 0.5191 -0.3252 0.5008 0.5191 1.823 1.823

MiddleBondTorsion Coeffs

1 -14.879 -3.6581 -0.3138 1.53
2 -4.2593 -5.6468 -3.3835 1.53
3 0.502 -1.0204 -0.9177 1.823
4 -2.5172 -2.0107 -2.8547 1.823
5 -0.6955 -2.9427 -1.2372 1.823
6 -2.5172 -2.0107 -2.8547 1.823
7 -0.6955 -2.9427 -1.2372 1.823
8 -14.261 -0.5322 -0.4864 1.53
9 -5.7537 -2.0104 0.2813 1.53
10 -5.7537 -2.0104 0.2813 1.53
11 -5.7537 -2.0104 0.2813 1.53
12 -0.3729 0.5373 -0.7035 1.823
13 1.7001 -3.3479 -0.8067 1.53
14 1.7001 -3.3479 -0.8067 1.53

BondBond13 Coeffs

1 0 1.53 1.101
2 0 1.53 1.823
3 0 1.53 1.3261
4 0 1.53 1.823
5 0 1.823 1.101
6 0 1.53 1.823
7 0 1.823 1.101
8 0 1.101 1.101
9 0 1.101 1.823
10 0 1.101 1.823
11 0 1.101 1.823
12 0 1.101 1.3261
13 0 1.823 1.823
14 0 1.823 1.823

AngleTorsion Coeffs

1 -0.2454 0 -0.1136 0.3113 0.4516 -0.1988 112.67 110.77
2 -2.0927 -0.1498 -1.7848 1.1179 0.3638 0.9423 112.67 112.564
3 -0.6045 3.8941 0.8885 1.0193 -0.6016 0.2097 112.564 96.8479
4 5.1289 2.0927 -2.4004 -4.5489 0.0886 0.6237 112.564 97.5
5 -1.0888 -0.2 -0.0909 0.5962 3.3479 0.2265 97.5 107.852
6 5.1289 2.0927 -2.4004 -4.5489 0.0886 0.6237 112.564 97.5
7 -1.0888 -0.2 -0.0909 0.5962 3.3479 0.2265 97.5 107.852
8 -0.8085 0.5569 -0.2466 -0.8085 0.5569 -0.2466 110.77 110.77
9 -2.0382 0.2102 -0.9023 0.3322 -0.0519 -0.3553 110.77 112.564
10 -2.0382 0.2102 -0.9023 0.3322 -0.0519 -0.3553 110.77 112.564
11 -2.0382 0.2102 -0.9023 0.3322 -0.0519 -0.3553 110.77 112.564
12 -2.2533 2.6948 -0.1723 1.434 -0.1915 -0.2611 107.852 96.8479
13 -5.0565 -0.6355 0.6015 -5.0565 -0.6355 0.6015 112.564 112.564
14 -5.0565 -0.6355 0.6015 -5.0565 -0.6355 0.6015 112.564 112.564

Improper Coeffs # class2

1 0 0
2 0 0
3 0 0
4 0 0
5 0 0
6 0 0
7 0 0
8 0 0
9 0 0
10 0 0
11 0 0

AngleAngle Coeffs

1 0.2738 -0.4825 0.2738 110.77 110.77 107.66
2 2.7985 -3.0031 -0.0668 110.77 112.564 107.852
3 -0.3157 -0.3157 -0.3157 107.66 107.66 107.66
4 0.5086 0.5086 -0.064 107.66 107.852 107.852
5 -1.3199 -1.3199 0.1184 112.67 110.77 110.77
6 -0.2564 -0.2564 -0.8766 112.67 112.564 112.564
7 -0.2564 -0.2564 -0.8766 112.67 112.564 112.564
8 2.7985 -3.0031 -0.0668 110.77 112.564 107.852
9 2.7985 -3.0031 -0.0668 110.77 112.564 107.852
10 -0.0668 -3.0031 2.7985 112.564 110.77 107.852
11 -0.0668 -3.0031 2.7985 112.564 110.77 107.852

Atoms # full

287 2 3 0.053 4.931528687591277 3.0473877189263825 3.6827021312989676 1 0 0
286 2 2 0.012 5.095390225769337 4.112737128097883 3.9062209872041342 1 0 0
282 2 6 -0.13 2.8737327165127176 3.526164844838386 2.424347607500767 1 0 0
283 2 1 -0.041 4.098539902144576 4.825462255719113 2.9138457296196454 1 0 0
288 2 1 -0.159 4.765123103711334 4.53634668828054 5.374529030821508 1 0 0
285 2 3 0.053 4.690903895982163 5.195266465292821 2.0418196872876377 1 0 0
290 2 3 0.053 4.33182289303422 5.500681438231885 5.4124841510956605 1 0 0
284 2 3 0.053 3.6766831119926273 5.621960718538882 3.4106204657954633 1 0 0
39 1 3 0.053 1.2969701967543485 2.0824147031310303 5.143820879527504 0 1 0
276 2 2 0.012 2.1963876639015436 4.21645502834305 0.8884705413401116 1 0 0
38 1 3 0.053 0.5079059577605064 0.7066351192574721 5.573994860779838 0 1 0
36 1 1 -0.159 0.30076493494377593 1.7260627389792405 5.380784669359311 0 1 0
273 2 1 -0.041 1.7059320908780373 5.608348365655049 1.07140968420942 1 0 0
277 2 3 0.053 1.591165190390491 3.456582271358392 0.4342877587009579 1 0 0
280 2 3 0.053 4.078215822306243 3.6131111084317475 0.027325074056496267 1 0 0
1758 9 3 0.053 3.3731443726551293 0.8677953012156595 1.2184182997093949 0 1 -1
281 2 3 0.053 3.931216211528341 5.4482354844283645 0.04968066563382578 1 0 0
295 2 3 0.053 7.726383256086049 2.215646091937859 2.9043148785573125 1 0 0
293 2 1 -0.041 7.128654098411454 2.973960535607305 2.391930428697904 1 0 0
301 2 3 0.053 8.84100019417327 1.5034627205634716 1.062437407121168 1 0 0
296 2 2 0.012 7.894843985296985 3.391427791357567 1.1151671168698978 1 0 0
298 2 1 -0.159 8.218379339278226 2.1032551943455293 0.2787605437035317 1 0 0
292 2 6 -0.13 6.825139043660591 4.370737735952489 3.547272138893783 1 0 0
297 2 3 0.053 8.865712703235475 3.8384862066473087 1.451431052151059 1 0 0
294 2 3 0.053 6.165440756523011 2.6683178990550847 1.884100188406066 1 0 0
302 2 6 -0.13 7.151393311925891 4.908454557984194 0.330433636885857 1 0 0
202 1 4 0.1392 10.914088309771854 5.038327071067072 4.585747485141165 -1 1 0
1741 9 3 0.053 6.00614274907754 0.46383181054303674 5.1424559684827384 0 1 -1
312 2 6 -0.13 10.85335011782086 5.222992068633945 0.7271826498182764 1 0 0
200 1 5 -0.2042 11.063439677743387 3.7784023784857004 5.055951265744751 -1 1 0
197 1 3 0.053 12.030150071373818 2.3597213113785167 3.071243878883758 -1 1 0
196 1 1 -0.159 12.822154937204575 2.3967809977503864 3.8210504012074913 -1 1 0
199 1 3 0.053 13.898237331511377 2.233555816281906 3.3423892249629117 -1 1 0
194 1 2 0.012 12.693234560153853 3.8098223396601725 4.4028966917210095 -1 1 0
198 1 3 0.053 12.562133686720603 1.5370139437011399 4.512257637423705 -1 1 0
191 1 1 -0.041 13.761702592269494 4.265968726052397 5.438009538282339 -1 1 0
195 1 3 0.053 12.779415222077008 4.537532993035564 3.5743969180204354 -1 1 0
317 2 3 0.053 13.663366970363807 5.17514294243407 1.6904349955622717 1 0 0
316 2 2 0.012 13.611256886232267 5.221754847846283 0.5703971863766178 1 0 0
341 2 3 0.053 12.980897421027189 0.5755790573852718 0.03274945163643039 1 0 0
1860 10 3 0.053 3.147732299538062 8.012545441272833 5.535090619782872 0 0 1
1861 10 3 0.053 2.9394148258939494 8.935373100681558 3.9633542833812743 0 0 1
1859 10 1 -0.041 3.340193068795928 8.989096363846441 4.980158269960242 0 0 1
1865 10 3 0.053 5.126069333480287 7.654293531929902 3.6483927937263236 0 0 1
1866 10 3 0.053 4.737896525456305 9.09419540128881 2.747918398754275 0 0 1
1862 10 2 0.012 4.820583647549926 9.327755635822626 4.88930327293498 0 0 1
1864 10 1 -0.159 5.283803194202697 8.720706144141694 3.5657766248509297 0 0 1
1863 10 3 0.053 5.043033041863416 10.435586602387257 5.043539357916509 0 0 1
272 2 6 -0.13 0.32318143784776365 6.036037695119401 2.1761379932771736 1 0 0
1852 10 2 0.012 0.5398240654900592 9.545151380220275 5.630715594168428 0 0 1
1857 10 3 0.053 0.7822892199475249 9.061774615145223 3.5025819214226277 0 0 1
503 3 3 0.053 5.600715171199563 11.39780452359893 2.792425590267172 0 0 0
1854 10 1 -0.159 0.11899634753287333 9.518554740248108 4.166842998126146 0 0 1
274 2 3 0.053 2.6425693293958092 6.120945899973237 1.5520539988399429 1 0 0
275 2 3 0.053 1.7254235743360897 6.271453146322583 0.23800519049587412 1 0 0
307 2 3 0.053 10.020349958174565 7.560767175842126 0.5442853387226211 1 0 0
501 3 3 0.053 6.953430252925008 11.367937560774543 3.9020450485411176 0 0 0
304 2 3 0.053 8.384498804347169 6.153270285753243 1.9745440032457329 1 0 0
303 2 1 -0.041 8.194511849086627 6.348277659595858 0.9250543407593755 1 0 0
1269 7 3 0.053 9.60139297409713 8.640482566175198 4.776180759249339 0 0 1
1867 10 3 0.053 6.369318663239863 8.983989875084033 3.313922941265321 0 0 1
305 2 3 0.053 7.658794064088032 7.2352382452269595 0.8750196046132491 1 0 0
499 3 3 0.053 7.89535850897576 10.87521108256768 1.5755798556659488 0 0 0
306 2 2 0.012 9.541074350829815 6.48963539072914 0.16372430004989838 1 0 0
1264 7 3 0.053 12.032648975001967 8.053452914547684 4.843547602169152 0 0 1
1247 7 3 0.053 13.250635546075268 11.497688090525246 3.805121599696591 0 0 1
314 2 3 0.053 12.580896225612287 7.1522970255243115 0.5455446835631936 1 0 0
1257 7 3 0.053 14.567790604100265 7.879589658196901 4.799075864842018 0 0 1
1256 7 2 0.012 14.855495120286367 8.68395299033304 5.5452518866935865 0 0 1
313 2 1 -0.041 12.456493245457532 6.0907824403854 0.197803090819956 1 0 0
318 2 1 -0.159 14.860168339319404 5.902941827052562 0.14843165580829074 1 0 0
319 2 3 0.053 15.008914088018898 6.766907769511235 0.785459393189923 1 0 0
747 4 1 -0.041 1.316025362696659 14.023074135308507 1.1733754830984278 1 0 1
748 4 3 0.053 1.8320579558326902 13.708125619506179 2.0206315841831617 1 0 1
749 4 3 0.053 1.8392199169308527 14.893474473734859 0.7037397306623725 1 0 1
1916 10 3 0.053 3.2426116771227065 14.289448532605011 3.0403975532786087 0 0 1
1910 10 3 0.053 3.2564424363471884 14.51097518092021 5.505550249567229 0 0 1
1917 10 3 0.053 4.795920080100624 14.73887445099404 3.6319769120118477 0 0 1
500 3 1 -0.159 6.556659437506325 11.877387654575266 3.003900093937869 0 0 0
502 3 3 0.053 6.366721857112834 12.911509407074801 3.336280387796029 0 0 0
504 3 6 -0.13 6.662911272673357 12.51932746146262 0.4553919210304317 0 0 0
498 3 2 0.012 7.6419091279147855 11.901358563728023 1.9176972564985582 0 0 0
497 3 3 0.053 9.409367663511489 12.151863916610496 3.1328316753583154 0 0 0
495 3 1 -0.041 8.95385584562344 12.660109111954373 2.2532857875648538 0 0 0
496 3 3 0.053 9.694786451448351 12.641668558605184 1.4555751039039337 0 0 0
494 3 6 -0.13 8.790242593944937 14.413986235177642 2.843560634914272 0 0 0
490 3 1 -0.159 10.775670148217692 14.23734623719672 4.924840188534312 0 0 0
491 3 3 0.053 10.855260413264267 13.155093061984742 5.031682111798661 0 0 0
488 3 2 0.012 9.415270452069576 14.755891715423255 4.59566843950539 0 0 0
489 3 3 0.053 8.831431639693802 14.097356812991276 5.207668203030264 0 0 0
1246 7 2 0.012 14.243917686682463 11.947263378950137 3.5111054038434637 0 0 1
1245 7 3 0.053 14.530287338262102 12.09984834300244 1.441156195369723 0 0 1
1243 7 1 -0.041 14.025913202291928 12.757837580676052 2.2026532246132655 0 0 1
1236 7 2 0.012 12.83783154400868 14.15430448715788 0.2476121116739362 0 0 1
1242 7 6 -0.13 12.345675960887807 13.11700812183192 1.7549612745409127 0 0 1
1250 7 3 0.053 13.882168300560563 13.340673381054877 4.916597887078431 0 0 1
1248 7 1 -0.159 14.804720738098329 12.812905294122862 4.717502272988603 0 0 1
1244 7 3 0.053 14.656752568314662 13.597942555958408 2.096718125902241 0 0 1
493 3 3 0.053 11.647661987550048 14.48410411885121 4.347990908029277 0 0 0
289 2 3 0.053 3.9318101692143586 3.84009245674315 5.759614339636093 1 0 0
15 1 3 0.053 0.996739759071476 3.02291659102197 11.352913384952135 0 1 0
291 2 3 0.053 5.518140686946753 4.525076853195835 6.186668776312082 1 0 0
24 1 2 0.012 0.27933226130405875 4.975172139418782 8.847856509619305 0 1 0
33 1 3 0.053 1.5951072659035632 2.2561372073494415 7.950617509400328 0 1 0
32 1 3 0.053 0.3894429100791792 1.147938931064093 8.604879571503682 0 1 0
21 1 1 -0.041 1.5151824278714863 5.128205151533132 9.764053407584205 0 1 0
22 1 3 0.053 2.2187268548704306 4.405088299561146 9.418422790278155 0 1 0
26 1 1 -0.159 0.66930689098275 5.515361339887899 7.457821422672431 0 1 0
31 1 1 -0.041 0.417107987002443 2.0811195306136385 8.024076363573528 0 1 0
28 1 3 0.053 1.4741603595587491 4.995228794580251 7.123883725890268 0 1 0
1734 9 3 0.053 3.6307682511966095 1.5234141076385355 10.145602361650388 0 1 -1
1739 9 3 0.053 4.305045648808422 1.0010861111132685 7.111860251347821 0 1 -1
1732 9 1 -0.159 4.086980770365669 0.5262667513596598 10.510085392433478 0 1 -1
1737 9 1 -0.041 5.349656503580143 1.3411708542518805 6.928088134126217 0 1 -1
1738 9 3 0.053 5.3462781496198 2.2930276762796353 6.3908183795557365 0 1 -1
1733 9 3 0.053 4.615742408879164 0.6562239000242817 11.471341405678944 0 1 -1
1744 9 3 0.053 7.807082717195811 1.6125944193202928 6.241682249670419 0 1 -1
1720 9 2 0.012 8.706608707420038 0.19867222750166996 11.311505844792112 0 1 -1
1736 9 6 -0.13 5.916447324912332 1.5150150150734145 8.663085196279006 0 1 -1
1723 9 3 0.053 8.092877533499166 2.3644273058597007 11.323096121943797 0 1 -1
1725 9 3 0.053 9.725873126825611 2.1816181728415445 10.46157226777619 0 1 -1
1722 9 1 -0.159 8.766481717177996 1.6364747710125476 10.729925112136504 0 1 -1
1724 9 3 0.053 8.29872582723814 1.5835668310596647 9.813419658829345 0 1 -1
1714 9 3 0.053 10.322066017927265 1.0822808635101109 7.914969849038157 0 1 -1
1281 7 3 0.053 9.054756422543935 5.060664011299976 9.17683208333706 0 0 1
1280 7 3 0.053 10.572350407947571 3.964998785939282 9.195492232186806 0 0 1
1278 7 1 -0.159 10.175744789426194 4.999608742158595 9.488757298643584 0 0 1
1279 7 3 0.053 10.273664450852827 5.037094385066927 10.586333861919194 0 0 1
1742 9 1 -0.159 7.674623258932742 0.5261259691443486 6.455042949108958 0 1 -1
1745 9 3 0.053 8.06577865963084 0.17694402946559296 7.440160240690641 0 1 -1
1712 9 1 -0.159 11.432813028903539 0.8144828675986491 8.134883270343174 0 1 -1
1740 9 2 0.012 6.178017824483014 0.33204941622236644 6.205282538627495 0 1 -1
1713 9 3 0.053 12.043382203361308 0.949734602326726 7.278073564514374 0 1 -1
193 1 3 0.053 13.699393974982888 5.261356371297648 5.872088404197241 -1 1 0
1715 9 3 0.053 11.863585817655537 1.5443018816172684 8.81087086316063 0 1 -1
192 1 3 0.053 13.638072262762318 3.5550141429914146 6.295466405502641 -1 1 0
1285 7 3 0.053 12.37007735588799 5.650526332747504 10.641403101245329 0 0 1
1282 7 6 -0.13 12.597023439548982 5.739741751104629 8.341334729667093 0 0 1
1284 7 3 0.053 12.611484210245662 3.980625613314496 10.181498176566244 0 0 1
1283 7 1 -0.041 12.980890750937887 5.016442555666141 10.071560127397513 0 0 1
1286 7 2 0.012 14.431023716612541 5.023377451474347 10.75299523962746 0 0 1
1858 10 6 -0.13 2.29583698815886 10.257327084268383 5.969178810746202 0 0 1
1853 10 3 0.053 0.7356550422547542 8.48669949821858 5.914024298915287 0 0 1
29 1 3 0.053 0.9495301629053979 6.715088009597387 7.663850527512048 0 1 0
23 1 3 0.053 2.028079270786093 6.12302917156299 9.612109555395351 0 1 0
1877 10 3 0.053 4.28825718832807 7.077954369145847 9.57031948932661 0 0 1
1868 10 6 -0.13 5.713921831031029 8.27601832388538 6.070559632544048 0 0 1
1873 10 3 0.053 4.870047217382334 9.240515777487376 9.75055680677583 0 0 1
1872 10 2 0.012 5.506835948927958 8.666603391429637 9.016845629348968 0 0 1
1869 10 1 -0.041 4.792789045360106 8.763154439602676 7.588494892386881 0 0 1
1871 10 3 0.053 4.420963971034456 9.859346926452707 7.455010902121714 0 0 1
1870 10 3 0.053 3.9032860256185984 8.121994642657265 7.695150169298282 0 0 1
1874 10 1 -0.159 5.4241695823540566 7.304289931316775 9.639820663333868 0 0 1
1875 10 3 0.053 5.682132154144692 7.230840927770804 10.69475788217982 0 0 1
1890 10 3 0.053 4.141629301469767 11.105218479062955 10.609793677438951 0 0 1
1267 7 3 0.053 10.741579162813414 10.033296169841837 6.4045539355546035 0 0 1
1876 10 3 0.053 6.055696479092736 6.590933553630283 9.214526856161093 0 0 1
1878 10 6 -0.13 7.2179752885024495 9.295739192028115 8.924871058032942 0 0 1
1271 7 3 0.053 9.316615620120709 7.527762373967273 6.008898220114693 0 0 1
1277 7 3 0.053 10.424093659435137 6.222165089322663 7.8151311514602915 0 0 1
1268 7 1 -0.159 9.461583143874854 8.5698185522351 5.835715087950086 0 0 1
1270 7 3 0.053 8.500716790279236 8.907603420118782 6.283136112068358 0 0 1
1266 7 2 0.012 10.735313713947098 8.95799396601784 6.596642551240478 0 0 1
1272 7 6 -0.13 10.610389870910547 9.124076416339607 8.444297114800705 0 0 1
1275 7 3 0.053 9.690928287684644 7.648917340914053 9.996203198233932 0 0 1
1274 7 3 0.053 11.464764147769571 7.772387104901168 10.174796610117582 0 0 1
1273 7 1 -0.041 10.666067467232875 7.508069761956113 9.468815020286934 0 0 1
1276 7 2 0.012 10.885269807276714 6.0776443987176805 8.733202880406798 0 0 1
1881 10 3 0.053 6.98534221642135 11.083194315088187 7.0689836914735995 0 0 1
1879 10 1 -0.041 7.090037457375433 10.901984440677861 8.22853154734212 0 0 1
1880 10 3 0.053 8.12316175602532 11.198906811529184 8.272048093450215 0 0 1
885 5 3 0.053 8.372227881989035 9.703426569981842 11.394189807636215 0 1 0
888 5 6 -0.13 10.683649188149872 11.072397525988805 10.86406048237285 0 1 0
1263 7 1 -0.041 12.12476504064084 8.210227437520604 5.961325917665146 0 0 1
1265 7 3 0.053 12.455159454453774 7.378876913253306 6.545497196016716 0 0 1
1262 7 6 -0.13 13.299745061221131 9.52440434042774 6.099617021342348 0 0 1
1259 7 3 0.053 15.004022645594619 7.5103168158232485 7.552786370512368 0 0 1
1892 10 2 0.012 4.1147619636352575 13.402826924561158 10.951238044526367 0 0 1
1901 10 3 0.053 3.078783737567221 13.399314457760664 8.171472986466942 0 0 1
1900 10 3 0.053 1.2239098003377213 13.73316678782771 8.55264308774441 0 0 1
1898 10 6 -0.13 2.30622051006234 13.65822588653539 10.547326034950467 0 0 1
1899 10 1 -0.041 2.2680069197584167 14.064499679380774 8.686507316166947 0 0 1
1889 10 1 -0.041 4.6689720561569 11.95835828627485 11.270150254457551 0 0 1
1883 10 3 0.053 5.2197667919262285 11.70562782176277 8.848203422472197 0 0 1
1893 10 3 0.053 4.512287499254504 13.889998593604945 10.131367845515776 0 0 1
492 3 3 0.053 10.964905745786446 14.694802562737028 5.857218179435551 0 0 0
889 5 1 -0.041 11.391109121805576 12.929010682625682 10.673723804495896 0 1 0
1882 10 2 0.012 6.291307370287272 11.859608514445322 9.116890874309746 0 0 1
1887 10 3 0.053 6.132429632353318 14.041994177120552 9.110744234845352 0 0 1
1888 10 6 -0.13 6.43416416993255 11.805226488156014 10.919334549034325 0 0 1
891 5 3 0.053 10.617860745619826 13.737666010194186 10.46745690736891 0 1 0
1885 10 3 0.053 6.637529614702832 13.428696566342113 7.5215599105375235 0 0 1
1886 10 3 0.053 7.82052207310464 13.458385320992493 8.8613645595059 0 0 1
1884 10 1 -0.159 6.681052986430245 13.287864768129985 8.623968566556757 0 0 1
893 5 3 0.053 11.807467172956354 12.368390548384596 8.611607170642763 0 1 0
897 5 3 0.053 11.901057855988157 14.956195301822744 8.50404196786689 0 1 0
894 5 1 -0.159 12.72791064253854 14.419793092100354 8.901761941735499 0 1 0
901 5 3 0.053 14.36137455862791 13.467432978013653 11.31118775846176 0 1 0
899 5 1 -0.041 14.707529643376034 12.451703430028271 11.067652891709605 0 1 0
898 5 6 -0.13 13.726600429640595 11.868121904130993 9.636858346933609 0 1 0
895 5 3 0.053 13.67174553995667 14.459795849248337 8.27920849024422 0 1 0
892 5 2 0.012 12.304039424552261 12.991859140519978 9.433185790265297 0 1 0
896 5 3 0.053 13.061185113188468 15.037260073291357 9.812535061786605 0 1 0
5 1 3 0.053 1.1391144990025364 5.366906843037283 14.819736091832194 0 1 0
14 1 2 0.012 0.9871898616767414 3.589330191034866 12.326187259624232 0 1 0
18 1 3 0.053 2.992623221983379 2.705918395569284 12.583675822812221 0 1 0
16 1 1 -0.159 2.1118664393648547 2.9879150448290344 13.140757496214915 0 1 0
19 1 3 0.053 1.647211013245469 2.0923150053779485 13.522138746165417 0 1 0
17 1 3 0.053 2.543737355606259 3.639776690563977 13.963236691421567 0 1 0
20 1 6 -0.13 1.3371864601348533 5.272259680921812 11.618809347008838 0 1 0
1571 8 3 0.053 5.081207397976628 2.639558664194534 13.531158599123055 1 0 0
4 1 2 0.012 0.022328823227886214 5.496315915580217 15.006429798881106 0 1 0
1586 8 3 0.053 11.257838925063906 5.2951368335625695 12.68621047672171 1 0 0
1574 8 6 -0.13 8.328980014330863 4.094810747699834 14.695450107345978 1 0 0
1569 8 3 0.053 7.156181287511916 2.046857132279954 15.037577665259727 1 0 0
1568 8 2 0.012 6.8998011863165924 3.0682343675462866 14.703388690989165 1 0 0
1584 8 6 -0.13 11.439057878065851 3.4665667942686 14.21266732337999 1 0 0
1721 9 3 0.053 8.871281811232379 0.42855790646240716 12.387834066546224 0 1 -1
1570 8 1 -0.159 6.041410428113527 3.0209710152083065 13.31640452654714 1 0 0
1573 8 3 0.053 6.412550244259881 2.220716611057436 12.674083140594929 1 0 0
1587 8 3 0.053 10.324996906750604 5.538166651472047 14.287284132334355 1 0 0
1572 8 3 0.053 6.165625495036013 4.090098726918613 12.882578840000942 1 0 0
1585 8 1 -0.041 11.250178086087328 5.320787660196647 13.77605945038209 1 0 0
1290 7 3 0.053 13.588486423534484 4.32355823172758 12.788680224189356 0 0 1
1288 7 1 -0.159 14.353952615018459 4.183768287736126 11.980781192933604 0 0 1
1291 7 3 0.053 14.209724817648528 3.0458816225286176 11.979463469383148 0 0 1
422 3 3 0.053 0.32699025844079366 10.955237074411238 12.901226655484331 0 0 0
1592 8 3 0.053 11.134593665440503 7.900340926023027 14.23877923050939 1 0 0
886 5 3 0.053 9.415607701770078 8.73758289293275 12.32000448362815 0 1 0
887 5 3 0.053 8.027433879920773 9.63800894981445 13.142205791610063 0 1 0
879 5 1 -0.041 10.402547366318023 11.101742938008623 13.706175149377962 0 1 0
884 5 1 -0.159 8.836850384787505 9.686551029946122 12.348617731979182 0 1 0
882 5 2 0.012 9.57944512516159 11.036322679743447 12.422664967774042 0 1 0
880 5 3 0.053 11.154711025384538 10.22300586281031 13.940537817647483 0 1 0
1307 7 3 0.053 14.878287320478446 9.920194307700877 14.047361897606173 0 0 1
1588 8 2 0.012 12.515481204423397 6.179671386310302 14.363732895796677 1 0 0
1590 8 1 -0.159 11.876937541905185 7.3506910591871435 14.99360216461644 1 0 0
1589 8 3 0.053 13.02086211534156 6.657837304944335 13.544090613164892 1 0 0
1896 10 3 0.053 3.970721612878541 13.711763551873819 13.132384805794205 0 0 1
423 3 3 0.053 0.21852049900620085 12.487300030949744 12.22118753231991 0 0 0
420 3 1 -0.159 0.18942013363797167 11.955678270414904 13.176033800105593 0 0 0
424 3 6 -0.13 1.401940985324532 13.943306340823442 14.744128235551404 0 0 0
1897 10 3 0.053 5.343423204827165 14.695204947529579 12.203112400612243 0 0 1
1891 10 3 0.053 4.5339803741484115 11.686730782366146 12.271877277143169 0 0 1
419 3 3 0.053 2.260053254074216 12.068442893365752 14.085836827385036 0 0 0
418 3 2 0.012 1.206320449530093 12.241668207427969 14.298446155972425 0 0 0
1894 10 1 -0.159 4.373299483281085 14.225632653442824 12.210238540479695 0 0 1
883 5 3 0.053 8.96142729788987 12.009863155985716 12.375203303391624 0 1 0
881 5 3 0.053 11.028544025780423 12.029031637238683 13.619469307022648 0 1 0
878 5 6 -0.13 9.495163818258959 11.840540539047792 15.065626625823635 0 1 0
890 5 3 0.053 11.945436770072888 13.224840285351691 11.688338410716966 0 1 0
900 5 3 0.053 14.37470325510357 11.855572014589152 11.982996490068174 0 1 0
1556 8 3 0.053 4.630012991973174 3.3485672678951723 19.512330708275922 1 0 0
1555 8 1 -0.041 3.755608480081989 3.7111115347320793 18.926467547094237 1 0 0
1558 8 2 0.012 3.80267360404637 3.482735898512952 17.41431915353281 1 0 0
1559 8 3 0.053 3.7063677328727973 4.378592811170242 16.827473752503703 1 0 0
1560 8 1 -0.159 2.766253152463432 2.4451738380420727 16.77297637924113 1 0 0
1561 8 3 0.053 3.0660556723523467 1.5076005458071065 17.069329205449563 1 0 0
1564 8 6 -0.13 5.600735844090355 2.7678589144220163 17.19484250472542 1 0 0
1563 8 3 0.053 2.7139591887265024 2.5158540481532197 15.701761082728769 1 0 0
1557 8 3 0.053 2.896036178513106 3.2164423211490187 19.426450629963124 1 0 0
1562 8 3 0.053 1.8052041299682813 2.5917715122136666 17.173072666025483 1 0 0
1567 8 3 0.053 4.910402782995436 3.7730707532707335 15.229725337358405 1 0 0
1554 8 6 -0.13 3.4061965243735 5.51117100314971 19.310801602610457 1 0 0
3 1 3 0.053 0.5441105125506209 4.691541092069859 16.948066060480414 0 1 0
1481 8 3 0.053 3.225759028228372 1.7160473951835857 20.724205581812587 1 0 0
1489 8 3 0.053 4.652978872534171 0.035125838293565664 19.383676289205187 1 0 0
1 1 1 -0.159 0.2108493670215561 5.588055283493784 16.615679981471384 0 1 0
573 3 3 0.053 0.33472320908800607 0.8064181027205644 19.176196742316282 0 0 -1
1549 8 3 0.053 5.771674477944306 5.376935629825294 19.718530866286027 1 0 0
1566 8 3 0.053 6.1537120739404765 4.7327216955729945 15.92351556160474 1 0 0
1579 8 3 0.053 10.62458325942338 4.39118947194575 16.357028745095786 1 0 0
1503 8 3 0.053 8.673904574650471 1.129765371568798 19.51849693020173 1 0 0
1582 8 3 0.053 11.174258152687152 2.7030744971580662 17.99139999292343 1 0 0
1500 8 1 -0.159 9.394049741262107 0.441828399827798 19.25009691521875 1 0 0
1497 8 3 0.053 6.770786871841678 0.31103609706892354 19.20642901275535 1 0 0
1578 8 2 0.012 10.760336890429317 3.3691184835065275 15.955085733522187 1 0 0
1575 8 1 -0.041 9.225045357139257 2.9927841709138336 15.871377446308264 1 0 0
1577 8 3 0.053 9.203776429134827 1.9855556875177125 15.462195526009205 1 0 0
1502 8 3 0.053 9.561032611337207 0.5064077154787655 18.216938677751887 1 0 0
1565 8 1 -0.041 5.8423288482270515 3.7087836238205742 15.638074298876873 1 0 0
1576 8 3 0.053 8.841690728099033 2.9749863559299072 16.926902191028834 1 0 0
1501 8 3 0.053 10.437063501207176 0.6145321514656169 19.598311668688332 1 0 0
1598 8 2 0.012 14.778674580529705 5.536652422651443 18.031818214551926 1 0 0
1614 8 5 -0.2042 13.152209987377416 1.6934082961462777 20.525480884203013 1 0 0
1608 8 2 0.012 15.040013179608364 1.7988736098468467 20.19508508765918 1 0 0
1580 8 1 -0.159 11.663064661630601 2.5831686535705614 16.92569574185135 1 0 0
1594 8 6 -0.13 13.757252324867242 5.305243886498609 15.344449057956426 1 0 0
1581 8 3 0.053 12.70340183025979 2.9665630737900215 16.94106203369327 1 0 0
1606 8 3 0.053 15.012283900784 3.7648212933150256 20.738139594658666 1 0 0
1583 8 3 0.053 11.645495123979092 1.4848134971681297 16.701335992099224 1 0 0
1604 8 6 -0.13 14.56404212419321 3.739231771404354 18.423413531377875 1 0 0
1548 8 2 0.012 4.996818363017318 6.045916270782148 20.156439382609523 1 0 0
413 3 3 0.053 2.0316456599871353 7.443687461666221 18.337702759795157 0 0 0
411 3 3 0.053 3.1428266704380996 8.957153702921753 18.792351828561184 0 0 0
412 3 3 0.053 1.321382563813924 9.167903122655389 18.785549882850948 0 0 0
410 3 1 -0.159 2.2096566713054933 8.689291815299717 18.320635771664193 0 0 0
1553 8 3 0.053 4.454333950055146 8.087147261473621 20.239213298948393 1 0 0
408 3 2 0.012 2.3413819485590133 9.117772535947399 16.762516299353287 0 0 0
605 3 3 0.053 4.51304919184229 8.945316764597402 16.82767888568858 0 0 0
407 3 3 0.053 3.679664705481616 7.449044953086989 16.72573153547062 0 0 0
1550 8 1 -0.159 5.306791127502661 7.463572064375791 19.89469196660278 1 0 0
1552 8 3 0.053 5.529066692652599 7.731550330336622 18.905473845659984 1 0 0
414 3 6 -0.13 2.3760062561696187 10.96797700111577 16.558648236466638 0 0 0
415 3 1 -0.041 0.8631567773999479 11.192364710428075 15.491216640820749 0 0 0
406 3 3 0.053 3.9043912016461295 8.454025692291323 15.146069039145084 0 0 0
409 3 3 0.053 1.474150843223468 8.723474471996138 16.147637950950656 0 0 0
543 3 3 0.053 0.6332561680309575 6.648516361039378 20.77354983339035 0 0 -1
405 3 1 -0.159 3.7220064756217335 8.453141796952014 16.254246263860757 0 0 0
201 1 3 0.053 0.8457533550899263 6.48464253374762 16.86195918915823 0 1 0
417 3 3 0.053 0.4895896734289215 10.130767603486005 15.13458951348483 0 0 0
1593 8 3 0.053 11.255863320941227 7.189287734464417 15.907119319387144 1 0 0
1551 8 3 0.053 6.1359280518145916 7.876184597128666 20.40897905673213 1 0 0
868 5 6 -0.13 9.857698551867323 9.256093081884902 18.00888059025934 0 1 0
862 5 2 0.012 8.096018070174889 9.553523548545206 18.368487867220832 0 1 0
867 5 3 0.053 7.538809334481955 9.730892821670722 16.19341317219924 0 1 0
864 5 1 -0.159 7.20427191753621 10.154946332119396 17.171889236826598 0 1 0
866 5 3 0.053 7.45218630584988 11.304324124835517 17.10613972081545 0 1 0