units real
atom_style full
boundary p p p

# --- Force Field Styles ---
pair_style lj/class2/coul/long 9.5 9.5
kspace_style pppm 1e-6
dielectric 1.000000
bond_style class2
angle_style class2
dihedral_style class2
improper_style class2
special_bonds lj/coul 0 0 1
pair_modify mix sixthpower tail yes
neighbor 2.0 bin
neigh_modify delay 0 every 1 check yes
neigh_modify one 4000
# KOKKOS: package loaded via -pk kokkos on the command line

read_data /home/arz2/PolyJarvis/data/PLA2/lammps/equil/npt_production/npt_production_out.data
Reading data file ...
  orthogonal box = (3.8715642 3.8715642 3.8715642) to (41.761559 41.761559 41.761559)
  1 by 1 by 1 MPI processor grid
  reading atoms ...
  4520 atoms
  reading velocities ...
  4520 velocities
  scanning bonds ...
  4 = max bonds/atom
  scanning angles ...
  12 = max angles/atom
  scanning dihedrals ...
  21 = max dihedrals/atom
  scanning impropers ...
  8 = max impropers/atom
  orthogonal box = (3.8715642 3.8715642 3.8715642) to (41.761559 41.761559 41.761559)
  1 by 1 by 1 MPI processor grid
  reading bonds ...
  4510 bonds
  reading angles ...
  8000 angles
  reading dihedrals ...
  9970 dihedrals
  reading impropers ...
  4500 impropers
Finding 1-2 1-3 1-4 neighbors ...
  special bond factors lj:    0        0        1       
  special bond factors coul:  0        0        1       
     4 = max # of 1-2 neighbors
     6 = max # of 1-3 neighbors
    10 = max # of special neighbors
  special bonds CPU = 0.003 seconds
  read_data CPU = 0.287 seconds
include /home/arz2/PolyJarvis/data/PLA2/lammps/equil/emc_build.params
# LAMMPS parameters created by EMC v9.4.4, build Jul 31 2025 20:33:44

# Variables

variable	seed		index	472913
variable	ntotal		index	4520
variable	fshape		index	1
variable	output		index	emc_build
variable	field		index	pcff/pcff
variable	location1	index	/home/arz2/emc/field/
variable	nav		index	0.6022141179
variable	temperature	index	300
variable	radius		index	5
variable	nrelax		index	100
variable	weight_nonbond	index	0.0001
variable	weight_bond	index	0.0001
variable	weight_focus	index	1
variable	cutoff		index	9.5
variable	charge_cutoff	index	9.5
variable	kappa		index	4
variable	density1	index	0.63
variable	lprevious	index	0
variable	lphase		index	45.6331234262
variable	f_poly		index	10
variable	chem_repeat	index	*C(C)C(=O)O*
variable	chem_cap	index	*[H]
variable	lg_repeat	index	9
variable	lg_cap		index	1
variable	norm_poly	index	100
variable	l_poly		index	452
variable	mg_repeat	index	44.05358
variable	mg_cap		index	0
variable	m_poly		index	2202.679
variable	n_poly		index	10
variable	mtotal		index	36052.2247
variable	nphase1		index	4520
variable	mphase1		index	36052.2247
variable	vphase1		index	95025.5927105
variable	lbox		index	45.6331234262
variable	lphase1		index	45.6331234262
variable	lxx		index	45.6331234262
variable	lyy		index	45.6331234262
variable	lzz		index	45.6331234262
variable	lzy		index	0
variable	lzx		index	0
variable	lyx		index	0
variable	vtotal		index	95025.5927105
variable	nl_poly		index	10

# Types

variable	type_c		index	1
variable	type_c1		index	2
variable	type_c_1	index	3
variable	type_hc		index	4
variable	type_ho2	index	5
variable	type_o_1	index	6
variable	type_o_2	index	7

variable	type_bond_c_c	index	1
variable	type_bond_c_c1	index	2
variable	type_bond_c_c_1	index	3
variable	type_bond_c_hc	index	4
variable	type_bond_c1_c_1 index	5
variable	type_bond_c1_hc	index	6
variable	type_bond_c1_o_2 index	7
variable	type_bond_c_1_o_1 index	8
variable	type_bond_c_1_o_2 index	9
variable	type_bond_ho2_o_2 index	10

variable	type_angle_c_c_c_1 index	1
variable	type_angle_c_c_hc index	2
variable	type_angle_c_c1_c_1 index	3
variable	type_angle_c_c1_hc index	4
variable	type_angle_c_c1_o_2 index	5
variable	type_angle_c_c_1_o_1 index	6
variable	type_angle_c_c_1_o_2 index	7
variable	type_angle_c1_c_hc index	8
variable	type_angle_c1_c_1_o_1 index	9
variable	type_angle_c1_c_1_o_2 index	10
variable	type_angle_c1_o_2_c_1 index	11
variable	type_angle_c_1_c_hc index	12
variable	type_angle_c_1_c1_hc index	13
variable	type_angle_c_1_c1_o_2 index	14
variable	type_angle_c_1_o_2_ho2 index	15
variable	type_angle_hc_c_hc index	16
variable	type_angle_hc_c1_o_2 index	17
variable	type_angle_o_1_c_1_o_2 index	18

# Clusters

variable	n0_poly		index	1
variable	n1_poly		index	10
variable	nl_poly		index	10

# Flags

variable	flag_charged	index	1

# Masses

mass		1    12.01115  # c
mass		2    12.01115  # c1
mass		3    12.01115  # c_1
mass		4     1.00797  # hc
mass		5     1.00800  # ho2
mass		6    15.99940  # o_1
mass		7    15.99940  # o_2

# Potentials

pair_modify	mix sixthpower tail yes
special_bonds	lj/coul 0 0 1

# Pair Coeffs

pair_coeff	 1  1    0.05400    4.01000  # c,c
pair_coeff	 2  2    0.05400    4.01000  # c1,c1
pair_coeff	 3  3    0.12000    3.81000  # c_1,c_1
pair_coeff	 4  4    0.02000    2.99500  # hc,hc
pair_coeff	 5  5    0.01300    1.11000  # ho2,ho2
pair_coeff	 6  6    0.26700    3.30000  # o_1,o_1
pair_coeff	 7  7    0.24000    3.42000  # o_2,o_2

# Bond Coeffs

bond_coeff	 1    1.53000  299.67000 -501.77000  679.81000  # c,c
bond_coeff	 2    1.53000  299.67000 -501.77000  679.81000  # c,c1
bond_coeff	 3    1.52020  253.70670 -423.03700  396.90000  # c,c_1
bond_coeff	 4    1.10100  345.00000 -691.89000  844.60000  # c,hc
bond_coeff	 5    1.52020  253.70670 -423.03700  396.90000  # c1,c_1
bond_coeff	 6    1.10100  345.00000 -691.89000  844.60000  # c1,hc
bond_coeff	 7    1.43000  326.72730 -608.53060  689.03330  # c1,o_2
bond_coeff	 8    1.20200  851.14030 -1918.48820 2160.76590  # c_1,o_1
bond_coeff	 9    1.36830  367.14810 -794.79080 1055.23190  # c_1,o_2
bond_coeff	10    0.95200  534.29940 -1287.19370 1889.13960  # ho2,o_2

# Angle Coeffs

angle_coeff	 1  108.52950   51.97470   -9.48510  -10.99850  # c,c,c_1
angle_coeff	 2  110.77000   41.45300  -10.60400    5.12900  # c,c,hc
angle_coeff	 3  108.52950   51.97470   -9.48510  -10.99850  # c,c1,c_1
angle_coeff	 4  110.77000   41.45300  -10.60400    5.12900  # c,c1,hc
angle_coeff	 5  107.41000   63.39070  -13.45130    1.66500  # c,c1,o_2
angle_coeff	 6  123.14510   55.54310  -17.21230    0.13480  # c,c_1,o_1
angle_coeff	 7  100.31820   38.86310   -3.83230   -7.98020  # c,c_1,o_2
angle_coeff	 8  110.77000   41.45300  -10.60400    5.12900  # c1,c,hc
angle_coeff	 9  123.14510   55.54310  -17.21230    0.13480  # c1,c_1,o_1
angle_coeff	10  100.31820   38.86310   -3.83230   -7.98020  # c1,c_1,o_2
angle_coeff	11  113.28800   61.28680  -28.97860    7.99290  # c1,o_2,c_1
angle_coeff	12  107.73360   40.60990  -28.81210    0.00000  # c_1,c,hc
angle_coeff	13  107.73360   40.60990  -28.81210    0.00000  # c_1,c1,hc
angle_coeff	14  109.50000   60.00000    0.00000    0.00000  # c_1,c1,o_2
angle_coeff	15  112.87400   53.25120  -14.99790    2.46400  # c_1,o_2,ho2
angle_coeff	16  107.66000   39.64100  -12.92100   -2.43180  # hc,c,hc
angle_coeff	17  107.68800   65.48010  -10.34980    5.88660  # hc,c1,o_2
angle_coeff	18  120.79700   95.34460  -32.28690    6.37780  # o_1,c_1,o_2

# BondBond Coeffs

angle_coeff	 1 bb    5.41990    1.53000    1.52020  # c,c,c_1
angle_coeff	 2 bb    3.38720    1.53000    1.10100  # c,c,hc
angle_coeff	 3 bb    5.41990    1.53000    1.52020  # c,c1,c_1
angle_coeff	 4 bb    3.38720    1.53000    1.10100  # c,c1,hc
angle_coeff	 5 bb   23.26470    1.53000    1.43000  # c,c1,o_2
angle_coeff	 6 bb   46.06850    1.52020    1.20200  # c,c_1,o_1
angle_coeff	 7 bb   19.10690    1.52020    1.36830  # c,c_1,o_2
angle_coeff	 8 bb    3.38720    1.53000    1.10100  # c1,c,hc
angle_coeff	 9 bb   46.06850    1.52020    1.20200  # c1,c_1,o_1
angle_coeff	10 bb   19.10690    1.52020    1.36830  # c1,c_1,o_2
angle_coeff	11 bb   45.45030    1.43000    1.36830  # c1,o_2,c_1
angle_coeff	12 bb    0.71150    1.52020    1.10100  # c_1,c,hc
angle_coeff	13 bb    0.71150    1.52020    1.10100  # c_1,c1,hc
angle_coeff	14 bb    0.00000    1.52020    1.43000  # c_1,c1,o_2
angle_coeff	15 bb    9.56710    1.36830    0.95200  # c_1,o_2,ho2
angle_coeff	16 bb    5.33160    1.10100    1.10100  # hc,c,hc
angle_coeff	17 bb    5.64540    1.10100    1.43000  # hc,c1,o_2
angle_coeff	18 bb  121.48800    1.20200    1.36830  # o_1,c_1,o_2

# BondAngle Coeffs

angle_coeff	 1 ba   18.16780   15.87580    1.53000    1.52020  # c,c,c_1
angle_coeff	 2 ba   20.75400   11.42100    1.53000    1.10100  # c,c,hc
angle_coeff	 3 ba   18.16780   15.87580    1.53000    1.52020  # c,c1,c_1
angle_coeff	 4 ba   20.75400   11.42100    1.53000    1.10100  # c,c1,hc
angle_coeff	 5 ba   23.39200   47.94870    1.53000    1.43000  # c,c1,o_2
angle_coeff	 6 ba   34.99820   37.12980    1.52020    1.20200  # c,c_1,o_1
angle_coeff	 7 ba    1.34350    4.69780    1.52020    1.36830  # c,c_1,o_2
angle_coeff	 8 ba   20.75400   11.42100    1.53000    1.10100  # c1,c,hc
angle_coeff	 9 ba   34.99820   37.12980    1.52020    1.20200  # c1,c_1,o_1
angle_coeff	10 ba    1.34350    4.69780    1.52020    1.36830  # c1,c_1,o_2
angle_coeff	11 ba   41.91160   46.46080    1.43000    1.36830  # c1,o_2,c_1
angle_coeff	12 ba   12.46320    9.17650    1.52020    1.10100  # c_1,c,hc
angle_coeff	13 ba   12.46320    9.17650    1.52020    1.10100  # c_1,c1,hc
angle_coeff	14 ba    0.00000    0.00000    1.52020    1.43000  # c_1,c1,o_2
angle_coeff	15 ba   37.91630   21.43640    1.36830    0.95200  # c_1,o_2,ho2
angle_coeff	16 ba   18.10300   18.10300    1.10100    1.10100  # hc,c,hc
angle_coeff	17 ba    8.68640   57.49750    1.10100    1.43000  # hc,c1,o_2
angle_coeff	18 ba   76.26140   71.87610    1.20200    1.36830  # o_1,c_1,o_2

# Dihedral Coeffs

dihedral_coeff	 1    0.04420    0.00000    0.02920    0.00000    0.05620    0.00000  # c,c,c_1,o_1
dihedral_coeff	 2    1.83410    0.00000    2.06030    0.00000   -0.01950    0.00000  # c,c,c_1,o_2
dihedral_coeff	 3    0.04420    0.00000    0.02920    0.00000    0.05620    0.00000  # c,c1,c_1,o_1
dihedral_coeff	 4    1.83410    0.00000    2.06030    0.00000   -0.01950    0.00000  # c,c1,c_1,o_2
dihedral_coeff	 5    0.00000    0.00000    0.00000    0.00000   -0.19320    0.00000  # c,c1,o_2,c_1
dihedral_coeff	 6   -2.55940    0.00000    2.20130    0.00000    0.03250    0.00000  # c,c_1,o_2,c1
dihedral_coeff	 7   -2.55940    0.00000    2.20130    0.00000    0.03250    0.00000  # c1,c_1,o_2,c1
dihedral_coeff	 8   -2.91260    0.00000    1.01990    0.00000   -0.20770    0.00000  # c1,c_1,o_2,ho2
dihedral_coeff	 9    0.00000    0.00000    2.20890    0.00000    0.00000    0.00000  # c1,o_2,c_1,o_1
dihedral_coeff	10   -0.02280    0.00000    0.02800    0.00000   -0.18630    0.00000  # c_1,c,c,hc
dihedral_coeff	11   -0.02280    0.00000    0.02800    0.00000   -0.18630    0.00000  # c_1,c1,c,hc
dihedral_coeff	12    0.00000    0.00000    0.00000    0.00000   -0.19320    0.00000  # c_1,c1,o_2,c_1
dihedral_coeff	13    0.00000    0.00000    0.00000    0.00000   -0.19320    0.00000  # c_1,o_2,c1,hc
dihedral_coeff	14   -0.14320    0.00000    0.06170    0.00000   -0.10830    0.00000  # hc,c,c,hc
dihedral_coeff	15   -0.14320    0.00000    0.06170    0.00000   -0.10830    0.00000  # hc,c,c1,hc
dihedral_coeff	16    0.00000    0.00000    0.00000    0.00000   -0.25000    0.00000  # hc,c,c1,o_2
dihedral_coeff	17   -0.18040    0.00000    0.00120    0.00000    0.03710    0.00000  # hc,c,c_1,o_1
dihedral_coeff	18   -0.63590    0.00000    1.48070    0.00000   -0.04380    0.00000  # hc,c,c_1,o_2
dihedral_coeff	19   -0.18040    0.00000    0.00120    0.00000    0.03710    0.00000  # hc,c1,c_1,o_1
dihedral_coeff	20   -0.63590    0.00000    1.48070    0.00000   -0.04380    0.00000  # hc,c1,c_1,o_2
dihedral_coeff	21    0.00000    0.00000    2.20890    0.00000    0.00000    0.00000  # ho2,o_2,c_1,o_1
dihedral_coeff	22    0.00000  180.00000    0.00000    0.00000    0.00000    0.00000  # o_1,c_1,c1,o_2
dihedral_coeff	23    0.00000  180.00000    0.00000    0.00000    0.00000    0.00000  # o_2,c1,c_1,o_2

# MiddleBondTorsion Coeffs

dihedral_coeff	 1 mbt    0.33880   -0.10960    0.12190    1.52020  # c,c,c_1,o_1
dihedral_coeff	 2 mbt  -17.32800   -5.79000   -3.21140    1.52020  # c,c,c_1,o_2
dihedral_coeff	 3 mbt    0.33880   -0.10960    0.12190    1.52020  # c,c1,c_1,o_1
dihedral_coeff	 4 mbt  -17.32800   -5.79000   -3.21140    1.52020  # c,c1,c_1,o_2
dihedral_coeff	 5 mbt   -5.43500    0.00000    0.00000    1.43000  # c,c1,o_2,c_1
dihedral_coeff	 6 mbt    1.34450    3.55150   -4.92020    1.36830  # c,c_1,o_2,c1
dihedral_coeff	 7 mbt    1.34450    3.55150   -4.92020    1.36830  # c1,c_1,o_2,c1
dihedral_coeff	 8 mbt    2.14520    0.54820   -2.36930    1.36830  # c1,c_1,o_2,ho2
dihedral_coeff	 9 mbt    4.26000    0.00000    0.00000    1.36830  # c1,o_2,c_1,o_1
dihedral_coeff	10 mbt   -3.50390    1.24580   -0.76100    1.53000  # c_1,c,c,hc
dihedral_coeff	11 mbt   -3.50390    1.24580   -0.76100    1.53000  # c_1,c1,c,hc
dihedral_coeff	12 mbt    0.00000    0.00000    0.00000    1.43000  # c_1,c1,o_2,c_1
dihedral_coeff	13 mbt    0.00000    0.00000    0.00000    1.43000  # c_1,o_2,c1,hc
dihedral_coeff	14 mbt  -14.26100   -0.53220   -0.48640    1.53000  # hc,c,c,hc
dihedral_coeff	15 mbt  -14.26100   -0.53220   -0.48640    1.53000  # hc,c,c1,hc
dihedral_coeff	16 mbt    0.00000    0.00000    0.00000    1.53000  # hc,c,c1,o_2
dihedral_coeff	17 mbt    0.23590    0.91390    0.95940    1.52020  # hc,c,c_1,o_1
dihedral_coeff	18 mbt  -13.76860   -2.59590    1.19340    1.52020  # hc,c,c_1,o_2
dihedral_coeff	19 mbt    0.23590    0.91390    0.95940    1.52020  # hc,c1,c_1,o_1
dihedral_coeff	20 mbt  -13.76860   -2.59590    1.19340    1.52020  # hc,c1,c_1,o_2
dihedral_coeff	21 mbt    4.26000    0.00000    0.00000    1.36830  # ho2,o_2,c_1,o_1
dihedral_coeff	22 mbt    0.00000    0.00000    0.00000    1.52020  # o_1,c_1,c1,o_2
dihedral_coeff	23 mbt    0.00000    0.00000    0.00000    1.52020  # o_2,c1,c_1,o_2

# EndBondTorsion Coeffs

dihedral_coeff	 1 ebt    0.26540    0.05030    0.10460   -0.28100    0.08160   -0.15220    1.53000    1.20200  # c,c,c_1,o_1
dihedral_coeff	 2 ebt    0.00000    0.00000    0.00000    0.00000    0.00000    0.00000    1.53000    1.36830  # c,c,c_1,o_2
dihedral_coeff	 3 ebt    0.26540    0.05030    0.10460   -0.28100    0.08160   -0.15220    1.53000    1.20200  # c,c1,c_1,o_1
dihedral_coeff	 4 ebt    0.00000    0.00000    0.00000    0.00000    0.00000    0.00000    1.53000    1.36830  # c,c1,c_1,o_2
dihedral_coeff	 5 ebt    0.00000    0.00000    0.00000    0.00000    0.00000    0.00000    1.53000    1.36830  # c,c1,o_2,c_1
dihedral_coeff	 6 ebt    0.00000    0.00000    0.00000    0.00000    0.00000    0.00000    1.52020    1.43000  # c,c_1,o_2,c1
dihedral_coeff	 7 ebt    0.00000    0.00000    0.00000    0.00000    0.00000    0.00000    1.52020    1.43000  # c1,c_1,o_2,c1
dihedral_coeff	 8 ebt    0.00000    0.00000    0.00000    0.00000    0.00000    0.00000    1.52020    0.95200  # c1,c_1,o_2,ho2
dihedral_coeff	 9 ebt    0.00000    0.00000    0.00000    0.00000    0.00000    0.00000    1.43000    1.20200  # c1,o_2,c_1,o_1
dihedral_coeff	10 ebt   -0.02040    0.36280   -0.44260   -0.00970   -0.03150   -0.07550    1.52020    1.10100  # c_1,c,c,hc
dihedral_coeff	11 ebt   -0.02040    0.36280   -0.44260   -0.00970   -0.03150   -0.07550    1.52020    1.10100  # c_1,c1,c,hc
dihedral_coeff	12 ebt    0.00000    0.00000    0.00000    0.00000    0.00000    0.00000    1.52020    1.36830  # c_1,c1,o_2,c_1
dihedral_coeff	13 ebt    0.00000    0.00000    0.00000    0.00000    0.00000    0.00000    1.36830    1.10100  # c_1,o_2,c1,hc
dihedral_coeff	14 ebt    0.21300    0.31200    0.07770    0.21300    0.31200    0.07770    1.10100    1.10100  # hc,c,c,hc
dihedral_coeff	15 ebt    0.21300    0.31200    0.07770    0.21300    0.31200    0.07770    1.10100    1.10100  # hc,c,c1,hc
dihedral_coeff	16 ebt    0.00000    0.00000    0.00000    0.00000    0.00000    0.00000    1.10100    1.43000  # hc,c,c1,o_2
dihedral_coeff	17 ebt    1.21430    0.28310    0.39160   -0.22980    0.03540    0.38530    1.10100    1.20200  # hc,c,c_1,o_1
dihedral_coeff	18 ebt    0.00000    0.00000    0.00000    0.00000    0.00000    0.00000    1.10100    1.36830  # hc,c,c_1,o_2
dihedral_coeff	19 ebt    1.21430    0.28310    0.39160   -0.22980    0.03540    0.38530    1.10100    1.20200  # hc,c1,c_1,o_1
dihedral_coeff	20 ebt    0.00000    0.00000    0.00000    0.00000    0.00000    0.00000    1.10100    1.36830  # hc,c1,c_1,o_2
dihedral_coeff	21 ebt    0.00000    0.00000    0.00000    0.00000    0.00000    0.00000    0.95200    1.20200  # ho2,o_2,c_1,o_1
dihedral_coeff	22 ebt    0.00000    0.00000    0.00000    0.00000    0.00000    0.00000    1.20200    1.43000  # o_1,c_1,c1,o_2
dihedral_coeff	23 ebt    0.00000    0.00000    0.00000    0.00000    0.00000    0.00000    1.43000    1.36830  # o_2,c1,c_1,o_2

# AngleTorsion Coeffs

dihedral_coeff	 1 at    0.08850   -1.37030   -0.54520    0.67500    0.59650    0.67250  108.52950  123.14510  # c,c,c_1,o_1
dihedral_coeff	 2 at    0.00000    0.00000    0.00000    0.00000    0.00000    0.00000  108.52950  100.31820  # c,c,c_1,o_2
dihedral_coeff	 3 at    0.08850   -1.37030   -0.54520    0.67500    0.59650    0.67250  108.52950  123.14510  # c,c1,c_1,o_1
dihedral_coeff	 4 at    0.00000    0.00000    0.00000    0.00000    0.00000    0.00000  108.52950  100.31820  # c,c1,c_1,o_2
dihedral_coeff	 5 at    0.00000    0.00000    0.00000    0.00000    0.00000    0.00000  107.41000  113.28800  # c,c1,o_2,c_1
dihedral_coeff	 6 at    0.00000    0.00000    0.00000    0.00000    0.00000    0.00000  100.31820  113.28800  # c,c_1,o_2,c1
dihedral_coeff	 7 at    0.00000    0.00000    0.00000    0.00000    0.00000    0.00000  100.31820  113.28800  # c1,c_1,o_2,c1
dihedral_coeff	 8 at    0.00000    0.00000    0.00000    0.00000    0.00000    0.00000  100.31820  112.87400  # c1,c_1,o_2,ho2
dihedral_coeff	 9 at    0.00000    0.00000    0.00000    0.00000    0.00000    0.00000  113.28800  120.79700  # c1,o_2,c_1,o_1
dihedral_coeff	10 at   -0.74660   -0.94480   -0.63210    0.01620    1.42110   -1.40920  108.52950  110.77000  # c_1,c,c,hc
dihedral_coeff	11 at   -0.74660   -0.94480   -0.63210    0.01620    1.42110   -1.40920  108.52950  110.77000  # c_1,c1,c,hc
dihedral_coeff	12 at    0.00000    0.00000    0.00000    0.00000    0.00000    0.00000  109.50000  113.28800  # c_1,c1,o_2,c_1
dihedral_coeff	13 at    0.00000    0.00000    0.00000    0.00000    0.00000    0.00000  113.28800  107.68800  # c_1,o_2,c1,hc
dihedral_coeff	14 at   -0.80850    0.55690   -0.24660   -0.80850    0.55690   -0.24660  110.77000  110.77000  # hc,c,c,hc
dihedral_coeff	15 at   -0.80850    0.55690   -0.24660   -0.80850    0.55690   -0.24660  110.77000  110.77000  # hc,c,c1,hc
dihedral_coeff	16 at    0.00000    0.00000    0.00000    0.00000    0.00000    0.00000  110.77000  107.41000  # hc,c,c1,o_2
dihedral_coeff	17 at    9.12990   -0.48470    0.35820   -1.49460    0.73080   -0.20830  107.73360  123.14510  # hc,c,c_1,o_1
dihedral_coeff	18 at    0.00000    0.00000    0.00000    0.00000    0.00000    0.00000  107.73360  100.31820  # hc,c,c_1,o_2
dihedral_coeff	19 at    9.12990   -0.48470    0.35820   -1.49460    0.73080   -0.20830  107.73360  123.14510  # hc,c1,c_1,o_1
dihedral_coeff	20 at    0.00000    0.00000    0.00000    0.00000    0.00000    0.00000  107.73360  100.31820  # hc,c1,c_1,o_2
dihedral_coeff	21 at    0.00000    0.00000    0.00000    0.00000    0.00000    0.00000  112.87400  120.79700  # ho2,o_2,c_1,o_1
dihedral_coeff	22 at    0.00000    0.00000    0.00000    0.00000    0.00000    0.00000  123.14510  109.50000  # o_1,c_1,c1,o_2
dihedral_coeff	23 at    0.00000    0.00000    0.00000    0.00000    0.00000    0.00000  109.50000  100.31820  # o_2,c1,c_1,o_2

# AngleAngleTorsion Coeffs

dihedral_coeff	 1 aat   -8.01900  108.52950  123.14510  # c,c,c_1,o_1
dihedral_coeff	 2 aat    0.00000  108.52950  100.31820  # c,c,c_1,o_2
dihedral_coeff	 3 aat   -8.01900  108.52950  123.14510  # c,c1,c_1,o_1
dihedral_coeff	 4 aat    0.00000  108.52950  100.31820  # c,c1,c_1,o_2
dihedral_coeff	 5 aat    0.00000  107.41000  113.28800  # c,c1,o_2,c_1
dihedral_coeff	 6 aat    0.00000  100.31820  113.28800  # c,c_1,o_2,c1
dihedral_coeff	 7 aat    0.00000  100.31820  113.28800  # c1,c_1,o_2,c1
dihedral_coeff	 8 aat    0.00000  100.31820  112.87400  # c1,c_1,o_2,ho2
dihedral_coeff	 9 aat    0.00000  113.28800  120.79700  # c1,o_2,c_1,o_1
dihedral_coeff	10 aat   -5.36240  108.52950  110.77000  # c_1,c,c,hc
dihedral_coeff	11 aat   -5.36240  108.52950  110.77000  # c_1,c1,c,hc
dihedral_coeff	12 aat    0.00000  109.50000  113.28800  # c_1,c1,o_2,c_1
dihedral_coeff	13 aat    0.00000  113.28800  107.68800  # c_1,o_2,c1,hc
dihedral_coeff	14 aat  -12.56400  110.77000  110.77000  # hc,c,c,hc
dihedral_coeff	15 aat  -12.56400  110.77000  110.77000  # hc,c,c1,hc
dihedral_coeff	16 aat    0.00000  110.77000  107.41000  # hc,c,c1,o_2
dihedral_coeff	17 aat  -15.34960  107.73360  123.14510  # hc,c,c_1,o_1
dihedral_coeff	18 aat    0.00000  107.73360  100.31820  # hc,c,c_1,o_2
dihedral_coeff	19 aat  -15.34960  107.73360  123.14510  # hc,c1,c_1,o_1
dihedral_coeff	20 aat    0.00000  107.73360  100.31820  # hc,c1,c_1,o_2
dihedral_coeff	21 aat    0.00000  112.87400  120.79700  # ho2,o_2,c_1,o_1
dihedral_coeff	22 aat    0.00000  123.14510  109.50000  # o_1,c_1,c1,o_2
dihedral_coeff	23 aat    0.00000  109.50000  100.31820  # o_2,c1,c_1,o_2

# BondBond13 Coeffs

dihedral_coeff	 1 bb13    0.00000    1.53000    1.20200  # c,c,c_1,o_1
dihedral_coeff	 2 bb13    0.00000    1.53000    1.36830  # c,c,c_1,o_2
dihedral_coeff	 3 bb13    0.00000    1.53000    1.20200  # c,c1,c_1,o_1
dihedral_coeff	 4 bb13    0.00000    1.53000    1.36830  # c,c1,c_1,o_2
dihedral_coeff	 5 bb13    0.00000    1.53000    1.36830  # c,c1,o_2,c_1
dihedral_coeff	 6 bb13    0.00000    1.52020    1.43000  # c,c_1,o_2,c1
dihedral_coeff	 7 bb13    0.00000    1.52020    1.43000  # c1,c_1,o_2,c1
dihedral_coeff	 8 bb13    0.00000    1.52020    0.95200  # c1,c_1,o_2,ho2
dihedral_coeff	 9 bb13    0.00000    1.43000    1.20200  # c1,o_2,c_1,o_1
dihedral_coeff	10 bb13    0.00000    1.52020    1.10100  # c_1,c,c,hc
dihedral_coeff	11 bb13    0.00000    1.52020    1.10100  # c_1,c1,c,hc
dihedral_coeff	12 bb13    0.00000    1.52020    1.36830  # c_1,c1,o_2,c_1
dihedral_coeff	13 bb13    0.00000    1.36830    1.10100  # c_1,o_2,c1,hc
dihedral_coeff	14 bb13    0.00000    1.10100    1.10100  # hc,c,c,hc
dihedral_coeff	15 bb13    0.00000    1.10100    1.10100  # hc,c,c1,hc
dihedral_coeff	16 bb13    0.00000    1.10100    1.43000  # hc,c,c1,o_2
dihedral_coeff	17 bb13    0.00000    1.10100    1.20200  # hc,c,c_1,o_1
dihedral_coeff	18 bb13    0.00000    1.10100    1.36830  # hc,c,c_1,o_2
dihedral_coeff	19 bb13    0.00000    1.10100    1.20200  # hc,c1,c_1,o_1
dihedral_coeff	20 bb13    0.00000    1.10100    1.36830  # hc,c1,c_1,o_2
dihedral_coeff	21 bb13    0.00000    0.95200    1.20200  # ho2,o_2,c_1,o_1
dihedral_coeff	22 bb13    0.00000    1.20200    1.43000  # o_1,c_1,c1,o_2
dihedral_coeff	23 bb13    0.00000    1.43000    1.36830  # o_2,c1,c_1,o_2

# Improper Coeffs

improper_coeff	 1    0.00000    0.00000  # c,c,hc,c_1
improper_coeff	 2    0.00000    0.00000  # c,c,hc,hc
improper_coeff	 3    0.00000    0.00000  # c,c1,hc,hc
improper_coeff	 4    0.00000    0.00000  # c,c_1,hc,hc
improper_coeff	 5    0.00000    0.00000  # c,hc,hc,hc
improper_coeff	 6    0.00000    0.00000  # c1,c,hc,c_1
improper_coeff	 7    0.00000    0.00000  # c1,c,hc,o_2
improper_coeff	 8    0.00000    0.00000  # c1,c,o_2,c_1
improper_coeff	 9    0.00000    0.00000  # c1,c_1,hc,o_2
improper_coeff	10   46.92640    0.00000  # c_1,c,o_2,o_1
improper_coeff	11   46.92640    0.00000  # c_1,c1,o_2,o_1

# AngleAngle Coeffs

improper_coeff	 1 aa    1.08270   -1.82020    2.04030  110.77000  108.52950  107.73360  # c,c,hc,c_1
improper_coeff	 2 aa    0.27380   -0.48250    0.27380  110.77000  110.77000  107.66000  # c,c,hc,hc
improper_coeff	 3 aa    0.27380   -0.48250    0.27380  110.77000  110.77000  107.66000  # c,c1,hc,hc
improper_coeff	 4 aa   -3.38670   -3.49760   -3.38670  107.73360  107.73360  107.66000  # c,c_1,hc,hc
improper_coeff	 5 aa   -0.31570   -0.31570   -0.31570  107.66000  107.66000  107.66000  # c,hc,hc,hc
improper_coeff	 6 aa    1.08270   -1.82020    2.04030  110.77000  108.52950  107.73360  # c1,c,hc,c_1
improper_coeff	 7 aa    0.00000    0.00000    0.00000  110.77000  107.41000  107.68800  # c1,c,hc,o_2
improper_coeff	 8 aa    0.00000    0.00000    0.00000  107.41000  108.52950  109.50000  # c1,c,o_2,c_1
improper_coeff	 9 aa    0.00000    0.00000    0.00000  107.73360  109.50000  107.68800  # c1,c_1,hc,o_2
improper_coeff	10 aa    0.00000    0.00000    0.00000  100.31820  123.14510  120.79700  # c_1,c,o_2,o_1
improper_coeff	11 aa    0.00000    0.00000    0.00000  100.31820  123.14510  120.79700  # c_1,c1,o_2,o_1


# --- Thermo Output ---
thermo_style custom step time temp press enthalpy etotal ke pe ebond eangle edihed eimp evdwl ecoul elong etail vol lx ly lz density pxx pyy pzz
thermo_modify flush yes
thermo 1000

# --- Trajectory ---
dump dump_npt all custom 1000 npt_cool300.dump id type mol x y z ix iy iz vx vy vz

# --- Restart Checkpointing ---
# No restart checkpointing

# --- Initial Velocities (optional) ---
# Velocities read from data file

# --- SHAKE Constraints ---
# SHAKE disabled

# --- NPT Thermostat + Barostat (Nose-Hoover) ---
# T_damp = 100.0 fs  (heat bath coupling)
# P_damp = 1000.0 fs  (pressure bath coupling, ~10x T_damp typical)
# Ramp: T=620.0->300.0K  P=1.0->1.0atm
timestep 1.0
fix npt_fix all npt temp 620.0 300.0 100.0 iso 1.0 1.0 1000.0

run 1000000
PPPM Kokkos initialization ...
  using 12-bit tables for long-range coulomb
  G vector (1/distance) = 0.34052642
  grid = 45 45 45
  stencil order = 5
  estimated absolute RMS force accuracy = 0.00027793182
  estimated relative force accuracy = 8.3698342e-07
  using double precision cuFFT
  3d grid and FFT values/proc = 140608 91125
Generated 21 of 21 mixed pair_coeff terms from sixthpower/sixthpower mixing rule
Neighbor list info ...
  update: every = 1 steps, delay = 0 steps, check = yes
  max neighbors/atom: 4000, page size: 100000
  master list distance cutoff = 11.5
  ghost atom cutoff = 11.5
  binsize = 11.5, bins = 4 4 4
  1 neighbor lists, perpetual/occasional/extra = 1 0 0
  (1) pair lj/class2/coul/long/kk, perpetual
      attributes: full, newton off, kokkos_device
      pair build: full/bin/kk/device
      stencil: full/bin/3d
      bin: kk/device
Per MPI rank memory allocation (min/avg/max) = 36.43 | 36.43 | 36.43 Mbytes
   Step          Time           Temp          Press         Enthalpy        TotEng         KinEng         PotEng         E_bond        E_angle        E_dihed        E_impro         E_vdwl         E_coul         E_long         E_tail         Volume           Lx             Ly             Lz          Density          Pxx            Pyy            Pzz      
         0   0              617.79375     -219.86206      25572.734      25747.155      8321.8552      17425.3        3923.7863      5478.8795     -3607.0855      289.19325     -1644.3185      44705.08      -31720.236     -347.67359      54396.837      37.889995      37.889995      37.889995      1.1005442      1323.9705     -1019.1233     -964.43342    
      1000   1000           633.0124       209.72268      26306.686      26142.68       8526.8547      17615.825      3937.0533      5544.4277     -3531.0814      305.48449     -1724.2749      44797.542     -31713.326     -352.70126      53621.423      37.709095      37.709095      37.709095      1.116459       1229.8718     -1372.9097      772.20591    
      2000   2000           639.97854      1656.1666      27187.885      25864.668      8620.6906      17243.978      3689.6901      5545.5146     -3597.123       302.96026     -1713.3404      44739.764     -31723.489     -345.21852      54783.688      37.979603      37.979603      37.979603      1.0927728      2825.1689      535.8186       1607.5122    
      3000   3000           621.18575      112.07704      25779.949      25690.9        8367.5464      17323.353      3816.0123      5616.2698     -3602.9759      249.02424     -1759.1033      44725.501     -31721.375     -347.14258      54480.045      37.909305      37.909305      37.909305      1.0988633     -2411.894       1614.5951      1133.5301    
      4000   4000           618.35663     -635.55314      25208.235      25710.888      8329.4373      17381.45       3785.9603      5656.6058     -3576.8313      295.6232      -1786.9579      44723.143     -31716.093     -348.74243      54230.119      37.851247      37.851247      37.851247      1.1039275     -1321.3286      826.2906      -1411.6214    
      5000   5000           614.48791     -1263.1978      24844.766      25846.475      8277.3246      17569.151      3928.9098      5672.4108     -3641.0846      308.41137     -1685.5832      44697.74      -31711.653     -347.81722      54374.374      37.884779      37.884779      37.884779      1.1009988     -2729.0144      1083.8821     -2144.4611    
      6000   6000           624.94893      414.78253      26238.074      25908.304      8418.2374      17490.067      3901.1414      5656.3337     -3634.3946      301.73511     -1690.8991      44669.924     -31713.774     -346.92095      54514.849      37.917376      37.917376      37.917376      1.0981617     -104.64702      1174.1239      174.87075    
      7000   7000           619.54159      1364.7046      26918.094      25813.352      8345.3991      17467.953      3772.889       5506.469      -3610.3148      331.21408     -1634.453       44815.732     -31713.584     -340.72098      55506.835      38.145984      38.145984      38.145984      1.078536       1663.4861      1044.2429      1386.3848    
      8000   8000           614.28538      1212.734       26772.05       25812.669      8274.5964      17538.072      3822.4937      5636.2398     -3606.7673      301.58044     -1681.355       44779.604     -31713.724     -348.65497      54243.723      37.854411      37.854411      37.854411      1.1036507      760.10988     -295.64451      3173.7368    
      9000   9000           623.25335     -1984.8036      24233.209      25824.114      8395.3976      17428.716      3919.0154      5568.8237     -3718.7799      323.9594      -1668.8902      44713.521     -31708.933     -344.10792      54960.501      38.020419      38.020419      38.020419      1.0892572     -1428.7533     -3209.0544     -1316.6032    
     10000   10000          628.50537     -485.99451      25519.047      25914.287      8466.1437      17448.143      3917.1054      5517.3512     -3658.8483      283.39644     -1649.3298      44745.336     -31706.868     -339.14979      55763.983      38.2048        38.2048        38.2048        1.0735625     -994.55489     -897.25495      433.8263     
     11000   11000          615.45018      40.04795       25645.374      25614.096      8290.2866      17323.809      3929.0578      5477.4106     -3601.2532      307.33205     -1746.1978      44684.786     -31727.326     -353.15695      53552.234      37.692869      37.692869      37.692869      1.1179015     -1049.6609      700.95936      468.84539    
     12000   12000          620.60545      203.19191      25968.027      25806.166      8359.7296      17446.437      3881.6678      5562.4903     -3619.5264      324.52229     -1675.8678      44693.915     -31720.764     -346.24745      54620.889      37.941945      37.941945      37.941945      1.0960298      69.348627      1304.0508     -763.82366    
     13000   13000          611.36959      670.19499      25965.831      25437.662      8235.32        17202.342      3728.6851      5510.2779     -3622.2687      344.05993     -1766.4575      44721.286     -31713.241     -349.9845       54037.66       37.806416      37.806416      37.806416      1.1078593     -67.56073       3632.9119     -1554.7662    
     14000   14000          609.44192     -2187.6416      23987.224      25735.005      8209.3537      17525.652      3997.5278      5607.8782     -3686.342       307.2498      -1673.7953      44690.272     -31717.139     -345.23148      54781.631      37.979128      37.979128      37.979128      1.0928138     -2144.2331     -820.30457     -3598.3872    
     15000   15000          609.46241     -487.75399      25044.851      25435.227      8209.6297      17225.597      3747.0034      5533.6629     -3613.2329      268.34612     -1714.7456      44721.428     -31716.865     -344.61835      54879.096      38.001638      38.001638      38.001638      1.090873      -2637.1062      1283.2906     -109.44632    
     16000   16000          623.06791      78.101458      25693.054      25631.531      8392.8996      17238.631      3821.0149      5515.9862     -3630.5072      276.95662     -1741.1618      44714.977     -31718.635     -350.13691      54014.138      37.80093       37.80093       37.80093       1.1083417     -514.41466      534.7644       213.95463    
     17000   17000          606.16269     -672.72147      25118.744      25656.429      8165.1815      17491.247      3917.7518      5640.6309     -3681.6304      327.88352     -1707.8437      44702.36      -31707.905     -345.08723      54804.53       37.984419      37.984419      37.984419      1.0923572     -874.71437     -1735.4596      592.0096     
     18000   18000          620.28133     -1272.8558      24542.687      25547.649      8355.3635      17192.285      3664.3226      5503.1173     -3573.4065      284.88007     -1743.0952      44772.953     -31716.486     -349.34211      54137.028      37.829576      37.829576      37.829576      1.1058258     -1106.3107     -1797.9689     -914.28791    
     19000   19000          626.27528     -817.66773      25178.754      25824.573      8436.1037      17388.469      3851.5164      5571.6384     -3553.4294      316.84672     -1807.3834      44722.883     -31713.602     -349.21071      54157.397      37.83432       37.83432       37.83432       1.1054099     -1031.7469     -732.52524     -688.73102    
     20000   20000          614.43032      247.33526      25903.581      25706.464      8276.5489      17429.915      3894.4448      5520.2284     -3612.1972      288.79559     -1697.0446      44754.959     -31719.271     -346.08373      54646.727      37.947927      37.947927      37.947927      1.0955116      311.69718      1045.3876     -615.07895    
     21000   21000          600.73868     -1056.0678      24506.295      25345.341      8092.1185      17253.222      3785.1437      5556.6348     -3576.0068      281.40035     -1773.7304      44702.291     -31722.51      -347.15813      54477.605      37.908739      37.908739      37.908739      1.0989125     -2119.5681      8.8401086     -1057.4754    
     22000   22000          612.17676     -445.32624      25403.935      25757.844      8246.1928      17511.652      3848.0823      5634.6499     -3507.3492      302.90312     -1765.8633      44717.018     -31717.789     -347.06187      54492.715      37.912243      37.912243      37.912243      1.0986078     -1755.0612      1114.6924     -695.60993    
     23000   23000          605.7692      -16.900554      25487.363      25500.839      8159.8811      17340.958      3874.4023      5463.0209     -3609.0315      312.61851     -1689.8559      44724.464     -31734.661     -345.90633      54674.754      37.954413      37.954413      37.954413      1.09495        1256.4722     -759.03488     -548.13899    
     24000   24000          605.48851      29.896603      25528.884      25505.092      8156.1001      17348.991      3746.0716      5515.317      -3554.4199      331.40148     -1690.413       44735.633     -31734.599     -346.58417      54567.822      37.929653      37.929653      37.929653      1.0970957     -1496.8545     -1363.6182      2950.1625    
     25000   25000          611.39784      6.5893165      25642.742      25637.494      8235.7004      17401.793      3853.4883      5488.7375     -3579.1923      303.0148      -1716.1547      44770.417     -31718.517     -346.28853      54614.409      37.940444      37.940444      37.940444      1.0961598     -1845.1881      1588.5153      276.44068    
     26000   26000          609.56259     -2914.279       23175.261      25519.113      8210.9792      17308.134      3819.9674      5541.0907     -3661.5303      320.7115      -1736.921       44728.721     -31703.906     -342.94315      55147.169      38.063414      38.063414      38.063414      1.0855702     -3583.5343     -2991.1374     -2168.1653    
     27000   27000          609.45103      322.30852      25589.465      25330.956      8209.4765      17121.48       3753.5667      5465.2119     -3613.4605      287.8469      -1700.733       44663.65      -31734.602     -343.88904      54995.481      38.028483      38.028483      38.028483      1.0885644      458.58701      1116.9957     -608.6572     
     28000   28000          606.69785      1189.8129      26261.172      25310.62       8172.3903      17138.23       3709.4628      5441.1438     -3621.3531      294.11942     -1615.3373      44659.103     -31728.908     -345.24214      54779.938      37.978737      37.978737      37.978737      1.0928476     -818.42755      2396.8645      1991.0016    
     29000   29000          616.18417     -707.87276      25026.87       25594.929      8300.1737      17294.755      3824.9142      5493.8046     -3645.3303      299.98056     -1664.9261      44716.566     -31730.254     -343.70264      55025.307      38.035357      38.035357      38.035357      1.0879743     -627.73154      1060.6419     -2556.5287    
     30000   30000          619.63794     -342.46215      25481.932      25757.709      8346.6969      17411.012      3797.3778      5519.1078     -3612.3416      321.92047     -1647.4098      44761.191     -31728.834     -342.51205      55216.579      38.079377      38.079377      38.079377      1.0842056     -959.59014     -955.13141      887.33509    
     31000   31000          601.38463      946.54022      26164.123      25407.905      8100.8198      17307.085      3746.2766      5586.8138     -3617.3255      299.41216     -1712.4273      44730.872     -31726.536     -345.23379      54781.264      37.979043      37.979043      37.979043      1.0928211      2078.1288      2060.5358     -1299.0439    
     32000   32000          620.15063      2050.5309      27341.018      25687.24       8353.603       17333.637      3827.4154      5393.2628     -3613.2494      303.31261     -1554.2051      44708.857     -31731.757     -341.9875       55301.271      38.098836      38.098836      38.098836      1.0825451      2400.415       1077.8672      2673.3104    
     33000   33000          614.62999      541.41225      25842.7        25411.02       8279.2385      17131.782      3739.2666      5609.2781     -3675.7678      269.01741     -1751.1043      44673.858     -31732.766     -345.92934      54671.117      37.953571      37.953571      37.953571      1.0950228      327.57867      85.613212      1211.0449    
     34000   34000          594.72141      1404.0101      26413.502      25311.076      8011.0643      17300.012      3841.2103      5504.8393     -3618.5751      301.09873     -1751.7865      44744.498     -31721.273     -351.27084      53839.776      37.760211      37.760211      37.760211      1.1119311     -1458.3427      2760.7648      2909.6081    
     35000   35000          595.27165      1053.477       26308.952      25460.515      8018.4762      17442.039      3852.8215      5565.6646     -3577.9803      282.02622     -1642.733       44676.969     -31714.729     -342.47341      55222.807      38.080809      38.080809      38.080809      1.0840833     -18.676248      732.79143      2446.3158    
     36000   36000          602.4627       2091.7151      26914.982      25272.243      8115.3417      17156.901      3721.939       5532.4469     -3605.017       259.99702     -1795.1878      44758.303     -31715.58      -351.20056      53850.55       37.76273       37.76273       37.76273       1.1117087      1716.0806     -1134.8571      5693.9217    
     37000   37000          610.493       -1339.0035      24511.554      25566.11       8223.512       17342.598      3881.1918      5631.5364     -3618.8513      293.0887      -1832.1164      44710.352     -31722.604     -350.21394      54002.258      37.798158      37.798158      37.798158      1.1085855     -2832.3507     -1140.8087     -43.851074    
     38000   38000          614.11095     -148.9402       25529.726      25647.069      8272.2468      17374.823      3797.5404      5687.2281     -3643.6054      325.52745     -1784.8462      44719.021     -31726.043     -350.0851       54022.132      37.802795      37.802795      37.802795      1.1081777      1986.3936     -353.5889      -2079.6253    
     39000   39000          618.33006     -1130.1962      24587.504      25479.111      8329.0794      17150.032      3868.3493      5431.5058     -3623.1406      283.39383     -1801.7772      44696.989     -31705.288     -349.62418      54093.351      37.8194        37.8194        37.8194        1.1067187     -3441.6238      320.90405     -269.8688     
     40000   40000          607.38867     -1039.3267      24567.992      25385.099      8181.6958      17203.403      3754.9739      5528.4533     -3673.8805      300.08705     -1738.0567      44736.391     -31704.565     -350.82833      53907.687      37.776081      37.776081      37.776081      1.1105304      845.14653     -2182.8295     -1780.2972    
     41000   41000          608.87137     -1419.4326      24533.735      25648.8        8201.6683      17447.132      3960.7654      5631.6816     -3661.1103      270.68612     -1741.3323      44711.429     -31724.988     -351.10395      53865.369      37.766193      37.766193      37.766193      1.1114028     -1911.9288     -597.71809     -1748.651     
     42000   42000          613.43876      737.64871      26009.693      25437.875      8263.1922      17174.683      3764.6663      5557.7011     -3639.0348      310.90069     -1760.7101      44669.893     -31728.733     -355.80579      53153.557      37.5991        37.5991        37.5991        1.1262863     -2388.7868      3538.3461      1063.3868    
     43000   43000          620.81855     -1509.9668      24394.11       25597.479      8362.6001      17234.879      3753.3182      5514.0727     -3599.3498      313.32274     -1700.9584      44667.86      -31713.386     -346.0907       54645.628      37.947672      37.947672      37.947672      1.0955336     -257.64933     -1434.1811     -2838.0701    
     44000   44000          604.14396     -1853.1448      23776.601      25231.557      8137.9887      17093.568      3673.9104      5567.8907     -3638.1962      315.47079     -1777.1349      44679.188     -31727.56      -351.30221      53834.968      37.759087      37.759087      37.759087      1.1120304     -250.04604     -2104.0907     -3205.2978    
     45000   45000          602.92312     -566.54741      24900.805      25346.6        8121.5436      17225.057      3593.5069      5674.6181     -3597.2864      308.57535     -1808.5316      44763.369     -31709.195     -350.52744      53953.96       37.786886      37.786886      37.786886      1.1095779      1419.7972     -2338.1643     -781.27519    
     46000   46000          612.9001      -869.97979      24713.837      25394.874      8255.9364      17138.938      3704.2499      5489.9817     -3552.6203      277.04855     -1776.5366      44721.811     -31724.996     -352.33824      53676.67       37.722041      37.722041      37.722041      1.1153099     -764.42187     -1107.0079     -738.50962    
     47000   47000          625.61708     -149.03182      25414.83       25532.349      8427.2376      17105.112      3743.0078      5399.8475     -3529.0314      308.49559     -1783.0846      44687.575     -31721.698     -349.77843      54069.496      37.813839      37.813839      37.813839      1.107207       769.23944      449.4112      -1665.7461    
     48000   48000          594.29765     -86.454848      25130.555      25197.39       8005.3561      17192.033      3854.4947      5502.9366     -3648.3304      295.06375     -1816.0744      44729.712     -31725.769     -356.78846      53007.161      37.564549      37.564549      37.564549      1.1293969     -270.59564      650.20558     -638.97449    
     49000   49000          608.66147     -875.52482      24698.688      25385.178      8198.8408      17186.337      3822.4601      5504.3346     -3634.8526      323.16359     -1819.0674      44713.966     -31723.667     -351.76716      53763.812      37.742444      37.742444      37.742444      1.1135022     -310.98469     -727.52738     -1588.0624    
     50000   50000          594.3493       510.41436      25551.661      25156.488      8006.0519      17150.437      3885.5729      5516.0848     -3640.8718      274.90515     -1856.9664      44700.174     -31728.462     -356.25193      53086.993      37.583398      37.583398      37.583398      1.1276985      1280.864       290.98427     -40.605182    
     51000   51000          585.47707     -1702.6002      23718.561      25045.694      7886.5405      17159.153      3902.1193      5478.5193     -3648.1656      283.56344     -1814.5018      44679.446     -31721.827     -353.85037      53447.29       37.668232      37.668232      37.668232      1.1200965     -1761.9213     -2231.6683     -1114.2112    
     52000   52000          606.83495     -452.01206      24986.27       25341.931      8174.237       17167.694      3799.092       5406.3351     -3607.0796      303.78256     -1784.6496      44774.898     -31724.684     -350.53729      53952.443      37.786532      37.786532      37.786532      1.1096091      2090.4526     -1004.0317     -2442.4571    
     53000   53000          603.88685     -722.89528      24543.244      25109.474      8134.5253      16974.949      3781.1514      5456.6074     -3673.4799      280.30338     -1832.8664      44698.12      -31734.887     -352.13066      53708.312      37.729452      37.729452      37.729452      1.1146528      186.71226      1340.1758     -3695.5739    
     54000   54000          596.80742     -902.3084       24325.376      25029.809      8039.1635      16990.645      3718.7754      5359.0257     -3631.5491      281.81787     -1680.7609      44681.863     -31738.527     -353.29427      53531.418      37.687985      37.687985      37.687985      1.1183362      1183.7998     -2513.0677     -1377.6573    
     55000   55000          605.22715     -791.70584      24600.047      25221.407      8152.5796      17068.827      3807.2076      5634.8341     -3744.826       260.40562     -1783.3585      44627.796     -31733.231     -351.43261      53814.993      37.754416      37.754416      37.754416      1.1124432     -2091.8542      659.88649     -943.14982    
     56000   56000          595.87397     -465.30652      24705.588      25070.541      8026.5895      17043.951      3681.2205      5499.0124     -3583.1739      269.80759     -1808.4371      44703.958     -31718.436     -351.66048      53780.122      37.74626       37.74626       37.74626       1.1131645     -521.19579     -379.68532     -495.03844    
     57000   57000          597.1116       137.64753      25289.036      25180.96       8043.2608      17137.699      3900.0045      5431.8534     -3675.263       301.00131     -1805.5793      44705.056     -31719.374     -351.28322      53837.879      37.759768      37.759768      37.759768      1.1119703      120.36237      1089.6334     -797.05319    
     58000   58000          598.83774      679.65349      25495.992      24958.65       8066.5124      16892.137      3645.6214      5483.677      -3672.1721      278.07877     -1812.6607      44703.981     -31734.388     -348.86486      54211.087      37.846818      37.846818      37.846818      1.1043151      1292.1401     -170.30361      917.12397    
     59000   59000          606.75865      1093.1331      26002.473      25153.863      8173.2092      16980.654      3641.5559      5412.3161     -3602.8737      291.94447     -1795.5293      44736.945     -31703.704     -355.29272      53230.314      37.617189      37.617189      37.617189      1.1246622      2602.5669     -607.61406      1284.4464    
     60000   60000          598.17376     -987.35256      24159.055      24937.423      8057.5684      16879.854      3727.291       5405.0671     -3700.2112      280.09856     -1820.1066      44713.84      -31726.124     -349.87175      54055.074      37.810477      37.810477      37.810477      1.1075024     -913.20759     -973.75693     -1075.0931    
     61000   61000          602.57531      403.64286      25374.074      25056.819      8116.8585      16939.961      3571.7512      5497.6658     -3602.9586      319.29951     -1826.8202      44703.22      -31722.197     -350.92203      53893.292      37.772718      37.772718      37.772718      1.110827      -726.58931      664.75292      1272.765     
     62000   62000          616.49419      585.31401      25888.426      25431.312      8304.3498      17126.962      3689.08        5496.7146     -3519.4082      305.14834     -1877.0112      44764.483     -31732.045     -353.17137      53550.047      37.692356      37.692356      37.692356      1.1179471      2690.3234      91.595612     -1025.977     
     63000   63000          602.10044      937.3584       25895.308      25153.441      8110.4618      17042.98       3650.4591      5560.4978     -3605.8787      281.72808     -1760.0314      44643.907     -31727.702     -348.49853      54268.073      37.860075      37.860075      37.860075      1.1031555      2862.4663      3397.1698     -3447.5609    
     64000   64000          601.85658      737.14904      25614.924      25041.847      8107.177       16934.67       3591.7528      5516.1347     -3676.2674      275.38814     -1824.5222      44775.935     -31723.751     -354.78381      53306.67       37.635167      37.635167      37.635167      1.1230512     -212.03283      3101.0957     -677.61575    
     65000   65000          608.90477     -1776.4902      23831.028      25251.739      8202.1181      17049.621      3719.3426      5495.9885     -3613.1289      261.39202     -1777.2242      44682.53      -31719.279     -344.88796      54836.195      37.991733      37.991733      37.991733      1.0917264     -1480.3492     -912.94148     -2936.1799    
     66000   66000          604.18487     -1043.7019      24308.335      25128.17       8138.5398      16989.631      3733.0954      5302.9522     -3551.9818      291.86639     -1756.847       44701.564     -31731.018     -351.13272      53860.954      37.765162      37.765162      37.765162      1.1114939     -2309.0673      415.42565     -1237.4639    
     67000   67000          596.31359      1573.1212      26550.317      25315.722      8032.5114      17283.211      3771.5841      5623.3973     -3657.845       310.63809     -1783.2993      44731.041     -31712.305     -351.44634      53812.891      37.753925      37.753925      37.753925      1.1124866      2559.3261      1679.384       480.65352    
     68000   68000          592.30055      1044.5501      25898.939      25066.464      7978.4546      17088.01       3691.3708      5478.8844     -3683.8504      297.27438     -1756.3203      44773.953     -31713.302     -346.08217      54646.975      37.947984      37.947984      37.947984      1.0955066      470.77458      1864.4648      798.41081    
     69000   69000          600.98725     -1247.559       24246.906      25233.639      8095.4669      17138.172      3789.6778      5505.9923     -3619.4515      278.81831     -1750.3264      44650.122     -31716.661     -348.72468      54232.879      37.851889      37.851889      37.851889      1.1038714     -2713.772      -237.96253     -790.9424     
     70000   70000          594.91265     -1415.065       23880.204      25004.077      8013.6404      16990.436      3798.062       5400.8197     -3651.3545      281.42798     -1759.049       44640.081     -31719.551     -347.28052      54458.406      37.904285      37.904285      37.904285      1.0992999     -332.57139     -2179.1201     -1733.5036    
     71000   71000          603.61093     -1921.9464      23553.378      25053.778      8130.8086      16922.97       3841.8513      5356.6568     -3633.8578      286.93125     -1820.1468      44624.494     -31732.959     -353.30951      53529.11       37.687443      37.687443      37.687443      1.1183844     -1619.2226     -1690.2156     -2456.401     
     72000   72000          595.6607       208.51461      25371.149      25205.622      8023.7168      17181.905      3642.6844      5570.2504     -3567.8596      313.85208     -1784.3285      44732.631     -31725.324     -347.44691      54432.326      37.898233      37.898233      37.898233      1.0998266      261.18526      33.816627      330.54196    
     73000   73000          581.31019     -204.97344      24746.99       24907.503      7830.4114      17077.091      3676.8499      5350.7291     -3554.1492      307.88609     -1756.8414      44776.182     -31723.565     -352.21727      53695.105      37.726359      37.726359      37.726359      1.114927      -1626.8272      2743.5964     -1731.6895    
     74000   74000          592.69575     -1388.8087      23981.981      25080.029      7983.7781      17096.251      3734.0253      5494.8014     -3659.7481      305.16643     -1727.5879      44675.805     -31726.211     -348.85286      54212.952      37.847252      37.847252      37.847252      1.1042771     -2076.586      -382.26107     -1707.579     
     75000   75000          600.69348      3984.8225      27959.424      24843.254      8091.5098      16751.744      3603.3071      5287.0917     -3641.2728      252.43822     -1819.9412      44798.336     -31728.215     -352.70289      53621.176      37.709037      37.709037      37.709037      1.1164642      4967.635       3416.3392      3570.4933    
     76000   76000          615.35173     -2520.4145      23461.293      25449.347      8288.9605      17160.387      3715.8703      5638.3736     -3608.9789      292.6351      -1839.7059      44685.408     -31723.215     -349.67525      54085.45       37.817558      37.817558      37.817558      1.1068804     -1997.3477     -1940.135      -3623.7608    
     77000   77000          603.52197     -1140.0384      24057.89       24951.93       8129.6102      16822.32       3665.9857      5388.0684     -3689.5529      318.99298     -1839.6788      44708.495     -31729.99      -351.70895      53772.71       37.744526      37.744526      37.744526      1.1133179     -2124.7764     -2541.2366      1245.8979    
     78000   78000          590.31513     -249.66729      24871.233      25067.387      7951.7105      17115.676      3725.9609      5538.2416     -3622.1174      296.02188     -1779.6187      44685.439     -31728.251     -351.06458      53871.409      37.767605      37.767605      37.767605      1.1112782     -2849.987       936.51385      1164.4713    
     79000   79000          589.21648      496.35236      25184.012      24791.869      7936.9113      16854.958      3497.5402      5361.1952     -3568.8748      295.6956      -1697.6296      44695.577     -31728.546     -349.11353      54172.473      37.83783       37.83783       37.83783       1.1051023      689.14789     -594.04238      1393.9516    
     80000   80000          595.95875     -487.53951      24664.692      25049.518      8027.7316      17021.786      3688.7577      5428.9073     -3618.2622      303.9656      -1790.4369      44721.008     -31712.154     -349.43556      54122.55       37.826203      37.826203      37.826203      1.1061216      2134.4634     -2243.3722     -1353.7098    
     81000   81000          592.1837      -526.14878      24463.079      24875.789      7976.8807      16898.909      3764.994       5409.724      -3741.1516      297.03016     -1786.1911      44674.039     -31719.536     -351.62854      53785.007      37.747403      37.747403      37.747403      1.1130634     -850.72925     -686.67518     -41.041913    
     82000   82000          593.94123      1185.1965      25861.454      24943.822      8000.555       16943.267      3612.0918      5600.9307     -3683.5762      305.2831      -1846.1607      44679.503     -31724.805     -356.24013      53088.75       37.583813      37.583813      37.583813      1.1276612     -67.429335      839.1964       2783.8223    
     83000   83000          579.51028      270.61875      24953.265      24743.377      7806.1661      16937.211      3828.6295      5312.1844     -3673.9849      285.55027     -1791.1248      44703.334     -31727.377     -355.62503      53180.575      37.605469      37.605469      37.605469      1.1257141      34.729626      107.99932      669.1273     
     84000   84000          599.96056      68.985365      25034.232      24979.693      8081.6371      16898.056      3721.4758      5303.008      -3664.0393      289.55344     -1727.4955      44688.294     -31712.741     -348.87697      54209.206      37.84638       37.84638       37.84638       1.1043534      424.25457      84.810141     -302.10861    
     85000   85000          587.30377      908.73169      25520.48       24813.022      7911.1465      16901.876      3651.0515      5368.6631     -3642.779       299.23787     -1788.5032      44745.33      -31731.124     -354.2881       53381.255      37.652712      37.652712      37.652712      1.1214821     -894.4843       2837.6868      782.99254    
     86000   86000          593.04244      2438.8237      26866.419      24949.208      7988.4481      16960.76       3713.6805      5429.5974     -3655.6326      319.8402      -1827.5373      44706.55      -31725.738     -350.8584       53903.066      37.775001      37.775001      37.775001      1.1106255      1866.7726      3383.44        2066.2585    
     87000   87000          583.72602     -238.07586      24665.211      24852.773      7862.9534      16989.82       3734.8976      5420.4898     -3653.4773      305.24409     -1797.1399      44701.017     -31721.212     -350.0982       54020.11       37.802323      37.802323      37.802323      1.1082192     -1122.0786     -1801.8227      2209.6737    
     88000   88000          588.80736     -788.97454      24370.905      24990.321      7931.4003      17058.921      3833.3305      5446.7999     -3640.4955      297.50016     -1809.3561      44661.631     -31730.489     -351.31882      53832.423      37.758492      37.758492      37.758492      1.112083      -2817.1508      580.70397     -130.47678    
     89000   89000          589.47052     -410.982        24391.291      24715.584      7940.3333      16775.251      3690.4633      5347.7841     -3693.7693      300.93824     -1843.9666      44700.32      -31726.519     -349.5472       54105.263      37.822175      37.822175      37.822175      1.106475      -1350.4154     -384.69088      502.16024    
     90000   90000          584.56709     -1390.8834      23724.563      24822.386      7874.2827      16948.103      3692.1018      5384.7302     -3608.3777      302.53987     -1818.4123      44724.168     -31728.647     -349.44577      54120.968      37.825835      37.825835      37.825835      1.1061539      683.38717     -1651.9627     -3204.0746    
     91000   91000          584.24991     -237.53776      24740.779      24929.152      7870.0103      17059.142      3695.1169      5518.6625     -3659.4804      321.6939      -1805.3888      44716.326     -31727.788     -347.80442      54376.374      37.885243      37.885243      37.885243      1.1009583     -566.53453     -283.29935      137.22061    
     92000   92000          582.87287     -475.88688      24365.227      24743.793      7851.4611      16892.332      3534.2947      5467.5769     -3597.1413      287.14542     -1738.1678      44659.519     -31720.896     -346.72395      54545.823      37.924556      37.924556      37.924556      1.0975382     -289.93053     -1612.3123      474.58224    
     93000   93000          601.83438      1271.2835      25946.895      24944.042      8106.878       16837.164      3629.1676      5285.3225     -3597.7773      301.7092      -1763.0897      44706.769     -31724.937     -349.64423      54090.249      37.818677      37.818677      37.818677      1.1067821      48.972724      1459.6908      2305.1868    
     94000   94000          577.34455      331.13415      24747.382      24484.166      7776.9932      16707.173      3643.5984      5200.6233     -3685.2422      295.33764     -1711.3777      44689.052     -31724.818     -346.98645      54504.559      37.91499       37.91499       37.91499       1.0983691     -467.09222      741.88485      718.60984    
     95000   95000          592.3351       1937.2505      26469.622      24928.216      7978.9201      16949.296      3607.4292      5395.983      -3692.7235      297.55874     -1744.1071      44804.64      -31719.485     -346.64893      54557.628      37.927291      37.927291      37.927291      1.0973007      1228.9131      887.18336      3695.6551    
     96000   96000          577.3594       2010.2763      26321.299      24739.755      7777.1932      16962.562      3595.4799      5466.6621     -3666.6685      276.29788     -1749.7695      44760.806     -31720.246     -350.58701      53944.792      37.784746      37.784746      37.784746      1.1097665      1375.7297      3092.4871      1562.6121    
     97000   97000          601.29995     -144.67603      24911.068      25023.602      8099.679       16923.923      3639.1798      5368.364      -3617.7203      328.56933     -1829.736       44749.567     -31714.301     -354.59737      53334.698      37.641762      37.641762      37.641762      1.1224611      1205.7285     -82.179674     -1557.5769    
     98000   98000          581.88105     -788.69182      24058.336      24682.108      7838.101       16844.007      3645.2616      5289.5802     -3621.3862      296.41655     -1768.3445      44720.688     -31718.209     -348.74069      54230.389      37.851309      37.851309      37.851309      1.1039221     -99.827911     -1019.9421     -1246.3055    
     99000   99000          584.27017     -84.650787      24561.273      24627.99       7870.2832      16757.707      3658.8989      5330.8987     -3747.9797      285.07325     -1766.5682      44719.893     -31722.509     -349.95707      54041.895      37.807404      37.807404      37.807404      1.1077724     -237.95109      92.054098     -108.05537    
    100000   100000         588.94321      287.3667       25116.971      24893.964      7933.2303      16960.733      3804.9299      5492.7525     -3722.9535      315.61803     -1888.4283      44686.999     -31728.184     -355.41788      53211.57       37.612773      37.612773      37.612773      1.1250584      3032.4672     -641.65038     -1528.7167    
    101000   101000         600.35631     -2236.0934      23190.068      24954.802      8086.968       16867.834      3739.9409      5447.1158     -3682.5289      270.19766     -1833.5692      44658.696     -31732.018     -349.48761      54114.489      37.824325      37.824325      37.824325      1.1062864     -2488.1271      195.73525     -4415.8882    
    102000   102000         573.61794     -1958.3583      23158.322      24688.37       7726.7946      16961.575      3848.2123      5473.8461     -3724.1211      299.19742     -1847.7388      44646.42      -31734.24      -353.02732      53571.897      37.697482      37.697482      37.697482      1.1174912     -978.5158      -3257.8681     -1638.691     
    103000   103000         584.61612      1200.0492      25755.125      24813.844      7874.9431      16938.901      3666.641       5476.4242     -3668.4687      276.88632     -1824.4765      44728.17      -31716.275     -351.64213      53782.928      37.746917      37.746917      37.746917      1.1131064      2343.0918      520.00198      737.05371    
    104000   104000         594.05317      1808.3977      26070.268      24627.216      8002.063       16625.153      3604.7018      5231.5537     -3761.6865      287.5433      -1728.087       44709.528     -31718.4       -345.64733      54715.722      37.96389       37.96389       37.96389       1.0941302      1689.4024      1297.4259      2438.3649    
    105000   105000         574.55611     -1164.3002      23753.982      24671.275      7739.432       16931.843      3734.6601      5377.8001     -3679.9183      268.17176     -1773.1669      44718.125     -31713.829     -350.08885      54021.552      37.802659      37.802659      37.802659      1.1081896     -1755.7035     -997.41957     -739.77755    
    106000   106000         590.46432      1147.1318      25877.732      24971.749      7953.72        17018.029      3695.9504      5457.9698     -3636.1376      266.92134     -1747.416       44703.484     -31722.743     -349.23227      54154.054      37.833541      37.833541      37.833541      1.1054781      2252.3217      1853.7933     -664.71951    
    107000   107000         588.22849      1622.1382      26083.985      24810.192      7923.6028      16886.589      3678.7437      5369.0613     -3707.4511      266.24924     -1722.9109      44708.226     -31705.329     -351.24512      53843.719      37.761133      37.761133      37.761133      1.1118497      2340.2427      1700.994       825.17788    
    108000   108000         587.77465     -430.84014      24360.785      24697.682      7917.4894      16780.193      3644.0963      5363.4631     -3762.3407      303.96755     -1788.68        44736.019     -31716.333     -352.72784      53617.383      37.708148      37.708148      37.708148      1.1165432     -2210.8345      268.49327      649.82084    
    109000   109000         593.70125      402.37691      25057.952      24741.874      7997.3225      16744.551      3472.764       5408.1741     -3654.3736      285.23897     -1792.414       44743.367     -31718.205     -351.1232       53862.415      37.765503      37.765503      37.765503      1.1114638      1124.121       324.39038     -241.38064    
    110000   110000         591.08609      1067.2945      25663.08       24828.344      7962.0955      16866.248      3599.1419      5429.4636     -3653.7503      298.54249     -1754.493       44673.337     -31725.994     -352.66009      53627.684      37.710563      37.710563      37.710563      1.1163287      832.94598     -629.8753       2998.8127    
    111000   111000         580.25616     -720.19797      24065.494      24631.712      7816.2133      16815.499      3581.9959      5405.7842     -3642.2136      284.48113     -1833.5343      44728.428     -31709.443     -350.82392      53908.363      37.776239      37.776239      37.776239      1.1105164      1406.5325     -419.66536     -3147.461     
    112000   112000         596.83174      565.05143      25309.285      24859.523      8039.491       16820.032      3625.524       5316.619      -3659.3399      295.63157     -1751.0629      44707.198     -31714.538     -346.51833      54578.19       37.932055      37.932055      37.932055      1.0968873     -513.77063      1834.68        374.24494    
    113000   113000         585.51387     -396.84359      24505.318      24814.031      7887.0362      16926.995      3661.7933      5424.2209     -3660.3081      278.82703     -1797.315       44733.258     -31713.481     -354.55659      53340.832      37.643205      37.643205      37.643205      1.122332       36.569298     -914.354       -312.74607    
    114000   114000         571.91516      1025.8434      25296.987      24496.588      7703.8576      16792.73       3655.7142      5400.0285     -3694.5297      288.69086     -1830.0278      44683.716     -31710.862     -353.50524      53499.471      37.680486      37.680486      37.680486      1.119004      -1798.8627      3214.8788      1661.5141    
    115000   115000         587.63947      134.62485      24731.416      24626.189      7915.6686      16710.52       3597.1085      5367.0561     -3653.6974      278.93362     -1907.6721      44747.551     -31718.76      -352.87415      53595.151      37.702935      37.702935      37.702935      1.1170063      238.40038      2371.1041     -2205.63      
    116000   116000         578.34336      1249.1867      25648.663      24660.898      7790.4473      16870.45       3690.2831      5358.9817     -3670.5743      318.34493     -1793.3246      44678.54      -31711.801     -348.81489      54218.853      37.848625      37.848625      37.848625      1.1041569      3473.9469      86.525687      187.08747    
    117000   117000         588.09676     -1451.9833      23488.534      24631.817      7921.8283      16709.988      3695.8673      5350.9904     -3722.8184      257.63424     -1831.6217      44689.741     -31729.805     -350.29121      53990.346      37.795379      37.795379      37.795379      1.1088301      527.97924     -3305.2931     -1578.6361    
    118000   118000         598.19735     -261.8636       24568.381      24773.888      8057.8862      16716.002      3524.8918      5387.883      -3673.9033      303.15099     -1816.9102      44714.13      -31723.241     -351.45553      53811.484      37.753596      37.753596      37.753596      1.1125157     -1371.3404     -1108.3517      1694.1013    
    119000   119000         583.55475      741.87482      25251.828      24668.265      7860.6463      16807.619      3538.6397      5474.7419     -3693.288       292.58129     -1767.5965      44687.324     -31724.783     -350.64214      53936.311      37.782766      37.782766      37.782766      1.109941       1042.4184      1648.3364     -465.1303     
    120000   120000         581.37507     -1303.0177      23441.99       24459.868      7831.2853      16628.583      3669.6234      5283.9906     -3709.1032      276.93489     -1882.7596      44704.793     -31714.897     -353.08207      53563.59       37.695533      37.695533      37.695533      1.1176645     -2014.3963      427.96823     -2322.625     
    121000   121000         579.94705     -371.97999      24311.391      24604.203      7812.0495      16792.153      3637.4235      5342.0894     -3642.8587      294.6798      -1846.0602      44737.256     -31730.376     -350.38998      53975.127      37.791827      37.791827      37.791827      1.1091428      1707.8445     -2755.8164     -67.968144    
    122000   122000         572.5909      -1535.0283      23183.948      24402.003      7712.9602      16689.043      3610.5644      5308.2671     -3736.4642      301.2312      -1780.2098      44707.765     -31722.11      -347.59265      54409.504      37.892936      37.892936      37.892936      1.100288      -2208.8156     -3072.2406      675.97146    
    123000   123000         589.57388      1112.7825      25507.206      24642.287      7941.7257      16700.562      3570.1272      5323.2866     -3636.185       313.57496     -1819.3759      44669.939     -31720.805     -354.8594       53295.315      37.632495      37.632495      37.632495      1.1232905     -1375.3508      1298.2339      3415.4643    
    124000   124000         574.59628     -971.52744      23539.807      24305.093      7739.9731      16565.12       3563.6253      5254.8202     -3705.1493      278.0639      -1776.0847      44683.399     -31733.555     -350.14886      54012.294      37.8005        37.8005        37.8005        1.1083795     -1477.8396     -963.04738     -473.69532    
    125000   125000         589.02541      301.06641      24956.682      24721.393      7934.3375      16787.055      3615.4121      5376.4124     -3678.2213      304.73685     -1785.1832      44671.331     -31717.432     -352.92506      53587.42       37.701123      37.701123      37.701123      1.1171675     -62.351403      1160.9426     -195.39198    
    126000   126000         568.95538      419.00258      24777.236      24444.841      7663.9886      16780.852      3661.5227      5369.8842     -3682.7808      300.88687     -1821.6126      44669.969     -31717.017     -347.68343      54395.297      37.889637      37.889637      37.889637      1.1005753     -919.20503      925.17028      1251.0425    
    127000   127000         577.14639      1539.1493      25672.157      24458.924      7774.3239      16684.6        3681.2635      5299.5124     -3767.0235      295.4332      -1814.1433      44712.828     -31723.27      -349.91127      54048.968      37.809053      37.809053      37.809053      1.1076275      473.95205      783.35203      3360.1438    
    128000   128000         581.60484     -1940.1821      23237.073      24772.64       7834.3804      16938.26       3780.6094      5365.5595     -3681.1664      328.51567     -1831.8969      44709.573     -31732.935     -348.4937       54268.825      37.86025       37.86025       37.86025       1.1031402     -1539.3309     -2383.6802     -1897.5351    
    129000   129000         571.77578      206.20788      24591.644      24430.229      7701.9802      16728.249      3564.6445      5374.8858     -3671.1039      307.62105     -1773.9562      44668.551     -31742.393     -352.35784      53673.684      37.721342      37.721342      37.721342      1.115372      -1600.3151      508.4147       1710.524     
    130000   130000         586.29101     -1076.8988      23862.985      24713.652      7897.5045      16816.148      3557.5858      5294.9614     -3614.9954      316.28986     -1742.2669      44725.016     -31720.443     -349.16963      54163.77       37.835804      37.835804      37.835804      1.1052798      272.99233     -2463.9457     -1039.743     
    131000   131000         592.05088      1179.7844      25471.271      24556.386      7975.0915      16581.294      3620.0439      5286.4157     -3666.4133      269.36212     -1868.3841      44682.199     -31741.929     -355.67851      53172.579      37.603584      37.603584      37.603584      1.1258834      414.95551      2704.0095      420.38825    
    132000   132000         566.55302     -825.07858      23675.697      24324.684      7631.6281      16693.056      3540.6653      5302.7369     -3671.3724      304.08939     -1814.7045      44746.368     -31714.726     -350.65508      53934.321      37.782301      37.782301      37.782301      1.1099819     -1296.2375     -2075.8722      896.87395    
    133000   133000         570.29987     -505.1118       24026.133      24425.117      7682.0993      16743.018      3642.0847      5325.1626     -3691.8128      276.06168     -1719.9419      44633.237     -31721.774     -349.18322      54161.662      37.835313      37.835313      37.835313      1.1053228      1612.9451     -1680.839      -1447.4414    
    134000   134000         590.13357     -1067.1037      23937.554      24778.02       7949.2647      16828.755      3696.9881      5264.6166     -3647.6737      277.39719     -1740.302       44695.915     -31718.187     -350.19335      54005.433      37.798899      37.798899      37.798899      1.1085204      170.74606     -1266.533      -2105.5243    
    135000   135000         586.46964      703.01335      25122.461      24570.437      7899.9106      16670.526      3670.0201      5238.6917     -3727.1458      271.663       -1748.3827      44694.999     -31729.318     -351.25829      53841.7        37.760661      37.760661      37.760661      1.1118914      1879.0857     -1409.9618      1639.9161    
    136000   136000         572.94097      2621.9652      26324.932      24257.31       7717.6757      16539.635      3530.7961      5328.3746     -3753.6669      282.40979     -1789.3956      44679.294     -31738.177     -349.76555      54071.488      37.814304      37.814304      37.814304      1.1071662      1179.7949      3244.3927      3441.708     
    137000   137000         564.2122      -718.20037      23609.577      24169.065      7600.0967      16568.969      3535.8373      5301.5553     -3698.7342      271.43026     -1866.5662      44737.995     -31712.548     -354.05902      53415.794      37.660831      37.660831      37.660831      1.1207569     -1381.6859     -2375.4883      1602.5731    
    138000   138000         574.30254     -669.41888      24017.081      24548.133      7736.0163      16812.117      3548.9472      5459.8209     -3630.9334      281.13241     -1741.3527      44628.241     -31733.738     -347.68156      54395.589      37.889705      37.889705      37.889705      1.1005694      1498.1157     -872.08962     -2634.2827    
    139000   139000         574.2035      -1492.6983      23135.725      24303.918      7734.6822      16569.236      3624.2721      5289.4779     -3684.641       293.41819     -1864.6606      44637.219     -31725.85      -352.43468      53661.982      37.718601      37.718601      37.718601      1.1156152      175.22597     -1556.262      -3097.0588    
    140000   140000         579.0711      -757.13199      23895.165      24489.277      7800.2503      16689.027      3652.7033      5317.9208     -3658.0143      291.78365     -1853.2582      44661.476     -31723.585     -351.49906      53804.819      37.752037      37.752037      37.752037      1.1126535      117.7097      -3331.0694      941.96376    
    141000   141000         568.37902     -919.28897      23533.914      24262.405      7656.2249      16606.181      3554.0034      5272.7785     -3668.0277      291.58001     -1809.5291      44699.832     -31734.457     -348.05576      54337.108      37.876122      37.876122      37.876122      1.1017539     -1041.4648     -591.74933     -1124.6528    
    142000   142000         568.93064     -165.22636      24268.956      24397.354      7663.6553      16733.698      3702.7722      5384.0379     -3656.1988      284.79475     -1908.0898      44647.053     -31720.671     -354.93182      53284.441      37.629935      37.629935      37.629935      1.1235198      520.51892     -389.2686      -626.92939    
    143000   143000         581.13157      144.00277      24604.02       24491.36       7828.0053      16663.355      3570.0818      5291.3945     -3675.8658      312.00007     -1811.1279      44700.321     -31723.448     -352.55252      53644.046      37.714398      37.714398      37.714398      1.1159882      1500.1256     -190.79102     -877.32632    
    144000   144000         565.7995      -1382.5003      23176.152      24253.712      7621.478       16632.234      3606.3151      5466.3683     -3671.1327      276.34273     -1956.7465      44646.256     -31735.169     -353.87085      53444.196      37.667505      37.667505      37.667505      1.1201613     -231.81019     -1664.3151     -2251.3756    
    145000   145000         581.47988      869.0594       25317.42       24638.202      7832.6972      16805.504      3759.7021      5331.9754     -3680.8611      272.54072     -1820.6484      44670.971     -31728.176     -352.90764      53590.066      37.701743      37.701743      37.701743      1.1171123     -3239.4091      4291.3937      1555.1936    
    146000   146000         564.56568     -287.21913      24094.438      24318.136      7604.8582      16713.278      3693.6196      5369.0274     -3708.726       261.64903     -1828.6378      44661.95      -31735.604     -354.13727      53403.99       37.658057      37.658057      37.658057      1.1210047     -2618.4634      2097.7734     -340.96744    
    147000   147000         566.2344      -428.50939      23949.628      24283.567      7627.3363      16656.23       3631.1439      5351.068      -3763.3712      291.50202     -1835.7214      44708.225     -31726.616     -353.92753      53435.638      37.665494      37.665494      37.665494      1.1203408     -414.81853      1096.4657     -1967.1753    
[...]
    955000   955000         318.26192     -274.51811      16594.637      16792.026      4287.0773      12504.949      2149.6253      3795.5581     -3961.4668      155.38611     -2494.4202      44630.216     -31769.95      -383.59109      49303.396      36.668427      36.668427      36.668427      1.2142393     -961.95633      1204.1817     -1065.7797    
    956000   956000         318.49078      42.156803      16888.505      16858.253      4290.1602      12568.093      2215.1393      3871.4059     -4051.0518      152.54266     -2507.114       44659.668     -31772.497     -384.36205      49204.503      36.643894      36.643894      36.643894      1.2166797     -340.26499      110.58359      356.15181    
    957000   957000         306.3338      -128.57198      16604.646      16697.097      4126.4022      12570.695      2216.4576      3786.0799     -3956.2475      135.81716     -2473.46        44636.782     -31774.734     -383.581        49304.692      36.668748      36.668748      36.668748      1.2142074     -87.130416      835.30826     -1133.8938    
    958000   958000         309.51481     -2817.7173      14755.151      16777.589      4169.2514      12608.338      2183.3308      3846.2524     -3963.9746      148.86961     -2461.2578      44623.9       -31768.783     -384.27624      49215.49       36.646621      36.646621      36.646621      1.2164081     -4820.9368     -2050.455      -1581.7601    
    959000   959000         317.01346      93.959333      16892.686      16825.115      4270.2603      12554.855      2237.9226      3794.8973     -4055.879       150.54005     -2426.2767      44625.744     -31772.094     -383.53255      49310.921      36.670292      36.670292      36.670292      1.214054      -267.23866     -1186.9361      1736.0528    
    960000   960000         309.41261      1466.8376      17750.181      16705.01       4167.8747      12537.136      2159.4424      3833.4566     -4017.8705      152.17813     -2450.5318      44637.107     -31776.646     -387.0936       48857.288      36.557497      36.557497      36.557497      1.2253263      1162.5474      1102.1419      2135.8237    
    961000   961000         314.11539      123.72547      16825.05       16736.515      4231.2225      12505.293      2202.934       3811.0572     -4045.768       179.81285     -2495.2378      44624.882     -31772.387     -385.44874      49065.781      36.609425      36.609425      36.609425      1.2201196     -1266.8982      337.53003      1300.5446    
    962000   962000         314.04987      340.0185       17028.104      16784.63       4230.3398      12554.29       2216.5508      3859.646      -4004.9156      155.55335     -2520.5863      44619.947     -31771.905     -385.18681      49099.146      36.617721      36.617721      36.617721      1.2192905      435.03759      1719.3226     -1134.3047    
    963000   963000         310.00107      1438.6493      17745.139      16713.035      4175.8014      12537.233      2166.4848      3811.6234     -4022.2807      151.42523     -2458.8438      44662.526     -31773.702     -384.46138      49191.79       36.640738      36.640738      36.640738      1.2169942      2434.8282      1140.8987      740.221      
    964000   964000         313.08392      64.319953      16758.814      16712.837      4217.3283      12495.509      2204.1752      3754.4879     -4005.735       162.39571     -2470.8627      44622.054     -31771.007     -385.86182      49013.254      36.596356      36.596356      36.596356      1.2214272     -1641.6618      516.80098      1317.8207    
    965000   965000         305.43622     -583.01475      16261.698      16680.119      4114.3116      12565.808      2199.2252      3866.889      -4039.5411      162.91154     -2484.9357      44639.41      -31778.152     -384.31459      49210.579      36.645402      36.645402      36.645402      1.2165295     -1346.1083     -418.40394      15.468022    
    966000   966000         310.16326     -464.18078      16404.365      16738.411      4177.9861      12560.425      2163.6197      3863.0993     -4000.5235      157.12235     -2477.724       44630.894     -31776.064     -383.26833      49344.915      36.678717      36.678717      36.678717      1.2132177     -1789.4409     -70.907209      467.80575    
    967000   967000         314.41283     -226.46373      16672.704      16836.316      4235.229       12601.087      2263.0881      3809.2578     -4004.6198      165.47845     -2463.7242      44609.248     -31777.642     -381.77219      49538.295      36.726568      36.726568      36.726568      1.2084817      202.82892     -372.24687     -509.97325    
    968000   968000         308.70516      730.6192       17174.885      16654.593      4158.3452      12496.248      2160.0029      3814.9161     -3977.9016      145.86158     -2507.3606      44638.568     -31777.838     -387.31617      48829.213      36.550493      36.550493      36.550493      1.2260309      1261.6791      902.07224      28.106283    
    969000   969000         308.17141     -2176.2537      15184.316      16732.095      4151.1554      12580.939      2226.2825      3908.0155     -3966.7478      133.02652     -2589.9848      44645.307     -31774.959     -387.81266      48766.699      36.534889      36.534889      36.534889      1.2276025     -1308.4946     -2656.6454     -2563.6211    
    970000   970000         303.19771      8.6103201      16610.851      16604.642      4084.1582      12520.484      2173.1347      3776.231      -4030.1037      164.4808      -2471.3026      44676.101     -31768.057     -382.53975      49438.897      36.701988      36.701988      36.701988      1.2109114      1486.7225     -1138.9527     -321.93884    
    971000   971000         310.34253      1454.7611      17728.739      16687.229      4180.401       12506.828      2195.3134      3794.3995     -4080.1996      152.98333     -2436.1283      44649.931     -31769.472     -385.25589      49090.342      36.615532      36.615532      36.615532      1.2195092      343.73881      2797.4354      1223.1091    
    972000   972000         308.96066     -214.58345      16456.008      16609.282      4161.7868      12447.495      2107.7309      3792.5935     -4006.8534      155.5603      -2469.6773      44643.934     -31775.793     -386.1431       48977.551      36.587468      36.587468      36.587468      1.2223176     -605.59713     -333.0664       294.91318    
    973000   973000         312.92971     -1463.4159      15772.012      16824.46       4215.2509      12609.209      2247.8249      3868.2459     -4035.2468      157.98143     -2444.9747      44592.459     -31777.081     -383.5205       49312.471      36.670676      36.670676      36.670676      1.2140159     -1777.7536     -1290.6335     -1321.8606    
    974000   974000         314.71096     -522.62589      16348.959      16725.471      4239.2449      12486.226      2115.6759      3863.8704     -4022.1482      162.86684     -2467.9053      44608.211     -31774.344     -382.85385      49398.337      36.691949      36.691949      36.691949      1.2119056     -1203.5919      433.24437     -797.53018    
    975000   975000         302.08618      69.397757      16698.804      16649.293      4069.1856      12580.107      2155.153       3936.5774     -4023.0227      153.04047     -2464.3877      44597.984     -31775.237     -386.60448      48919.1        36.572907      36.572907      36.572907      1.2237781     -2721.9284      935.11824      1995.0034    
    976000   976000         302.37357      175.32805      16650.75       16525.046      4073.0568      12451.99       2229.9428      3753.7551     -4083.5112      136.25175     -2460.2169      44639.133     -31763.365     -384.70301      49160.893      36.633065      36.633065      36.633065      1.217759      -183.50209     -1712.9249      2422.4111    
    977000   977000         311.19191     -465.09608      16355.848      16690.259      4191.8423      12498.416      2283.6074      3758.8026     -4061.3587      161.43322     -2475.834       44600.805     -31769.039     -383.60415      49301.717      36.668011      36.668011      36.668011      1.2142807     -2189.6812      238.9655       555.42745    
    978000   978000         305.77381      1592.5685      17666.407      16530.385      4118.859       12411.526      2132.325       3747.0618     -4022.6345      158.3052      -2468.8281      44639.309     -31774.012     -386.66288      48911.712      36.571066      36.571066      36.571066      1.2239629      979.22536      2557.7455      1240.7347    
    979000   979000         305.23035     -393.55821      16335.685      16617.111      4111.5384      12505.572      2247.9296      3802.2005     -4075.4304      149.25897     -2448.9873      44605.022     -31774.422     -385.71469      49031.951      36.601009      36.601009      36.601009      1.2209615     -757.8616       247.07094     -669.88396    
    980000   980000         306.3996       245.12509      16725.851      16549.264      4127.2886      12421.975      2116.4766      3781.7253     -4017.4595      155.72301     -2486.3306      44639.361     -31767.521     -382.86724      49396.609      36.691521      36.691521      36.691521      1.211948       891.03483     -693.58357      537.92402    
    981000   981000         303.2596       153.24057      16728.442      16618.734      4084.9918      12533.742      2178.7295      3755.185      -4040.595       152.39735     -2399.913       44652.258     -31764.32      -385.2631       49089.423      36.615304      36.615304      36.615304      1.219532      -848.51398      829.75419      478.4815     
    982000   982000         306.93614     -1336.5941      15606.849      16568.929      4134.516       12434.413      2132.6051      3788.0138     -4061.2434      165.52532     -2471.8442      44650.744     -31769.388     -383.18613      49355.501      36.68134       36.68134       36.68134       1.2129574     -291.20669     -3083.8051     -634.77049    
    983000   983000         301.78216      273.21047      16743.126      16546.711      4065.0904      12481.621      2136.6908      3816.8341     -4026.4913      150.39047     -2460.461       44626.077     -31761.419     -383.65929      49294.632      36.666254      36.666254      36.666254      1.2144552      267.51677     -931.37686      1483.4915    
    984000   984000         304.93242     -288.363        16367.042      16573.708      4107.5253      12466.183      2175.4481      3763.0971     -4053.8082      154.33431     -2417.6253      44611.169     -31766.432     -384.85003      49142.113      36.628399      36.628399      36.628399      1.2182244      64.869535     -1297.0324      367.07389    
    985000   985000         306.58199     -1183.2366      15812.328      16659.439      4129.7454      12529.693      2132.2685      3837.3692     -3995.5142      147.43418     -2465.8656      44643.161     -31769.16      -385.25889      49089.959      36.615437      36.615437      36.615437      1.2195187     -2034.2966     -1484.5683     -30.844893    
    986000   986000         303.13524      939.97563      17231.215      16559.066      4083.3168      12475.749      2183.4115      3837.3421     -4087.8421      131.56514     -2407.7979      44592.64      -31773.57      -385.72009      49031.264      36.600838      36.600838      36.600838      1.2209786     -69.319436      967.57986      1921.6665    
    987000   987000         306.03759     -87.223875      16509.538      16572.256      4122.4123      12449.843      2131.6892      3792.3199     -4072.1026      150.05581     -2458.4623      44679.089     -31772.745     -383.59256      49303.208      36.66838       36.66838       36.66838       1.214244       872.7318       392.90944     -1527.3129    
    988000   988000         299.88776      104.56449      16541.908      16466.548      4039.5722      12426.976      2158.4799      3832.8835     -4078.7674      150.00696     -2511.7824      44645.575     -31769.42      -382.70563      49417.468      36.696685      36.696685      36.696685      1.2114364     -455.20271      149.63461      619.26157    
    989000   989000         301.79488      80.865698      16591.329      16533.251      4065.2618      12467.989      2140.8164      3789.3764     -4016.3634      161.12667     -2472.1953      44632.529     -31767.3       -384.03754      49246.081      36.654212      36.654212      36.654212      1.2156525      980.71549     -1915.9807      1177.8623    
    990000   990000         306.55505     -1765.5782      15327.507      16598.099      4129.3826      12468.717      2224.9686      3797.1927     -4067.019       155.42583     -2511.2824      44631.204     -31761.773     -383.26742      49345.033      36.678746      36.678746      36.678746      1.2132148     -2756.9974     -604.256       -1935.4812    
    991000   991000         302.90135     -199.51569      16410.003      16552.649      4080.1662      12472.483      2139.228       3714.6963     -3996.8233      167.4457      -2471.3243      44689.106     -31769.846     -385.77897      49023.78       36.598976      36.598976      36.598976      1.221165      -1568.8415      43.139243      927.15517    
    992000   992000         299.78924     -313.77737      16289.038      16514.125      4038.2452      12475.879      2152.1026      3841.0219     -4040.7881      153.62905     -2462.8083      44615.502     -31782.78      -384.49774      49187.137      36.639582      36.639582      36.639582      1.2171093      62.511137     -1316.6666      312.82332    
    993000   993000         302.46525     -95.252802      16407.203      16475.63       4074.2918      12401.339      2173.4298      3787.3548     -4043.4107      158.45414     -2498.6742      44598.715     -31774.53      -383.94514      49257.932      36.657152      36.657152      36.657152      1.2153601     -1709.6273      1084.6461      339.22285    
    994000   994000         304.45858     -244.29438      16431.641      16607.401      4101.1425      12506.259      2163.1774      3749.6404     -3969.5326      162.7468      -2478.4289      44655.939     -31777.283     -383.36677      49332.245      36.675577      36.675577      36.675577      1.2135293     -1100.1981     -634.04914      1001.3641    
    995000   995000         304.26603     -1031.4616      15682.772      16422.572      4098.5488      12324.023      2033.3136      3747.9852     -3995.4991      150.62035     -2489.0981      44650.632     -31773.931     -384.55662      49179.606      36.637712      36.637712      36.637712      1.2172957     -919.50127     -2457.4865      282.60291    
    996000   996000         305.70996      1414.1413      17520.497      16510.344      4117.9989      12392.345      2156.7669      3747.0111     -4026.0636      136.41237     -2457.7809      44607.888     -31771.889     -386.124        48979.974      36.588071      36.588071      36.588071      1.2222571      940.72389      1587.3812      1714.3188    
    997000   997000         301.03974     -893.57745      15787.028      16430          4055.0898      12374.91       2119.5117      3806.1244     -4044.413       158.49415     -2485.114       44598.53      -31778.223     -383.31996      49338.269      36.67707       36.67707       36.67707       1.2133811     -95.29364      -1211.965      -1373.4737    
    998000   998000         294.53097     -469.32453      15993.211      16330.926      3967.4148      12363.511      2105.579       3732.907      -3998.396       142.57567     -2452.9644      44617.913     -31784.102     -383.30502      49340.192      36.677547      36.677547      36.677547      1.2133338     -1573.6278      750.40318     -584.74898    
    999000   999000         297.79012     -1246.8335      15521.636      16417.921      4011.3165      12406.605      2209.961       3791.4478     -4061.363       152.1011      -2483.3516      44579.86      -31782.051     -383.69259      49290.354      36.665193      36.665193      36.665193      1.2145606     -1454.9431     -3124.6906      839.13318    
   1000000   1000000        295.93979      940.99958      17040.154      16366.187      3986.392       12379.795      2072.168       3794.0059     -4038.91        142.8779      -2444.0233      44618.717     -31765.04      -385.09916      49110.321      36.620499      36.620499      36.620499      1.219013       2256.6375     -204.93978      771.30106    
Loop time of 3704.7 on 1 procs for 1000000 steps with 4520 atoms

Performance: 23.322 ns/day, 1.029 hours/ns, 269.927 timesteps/s, 1.220 Matom-step/s
100.0% CPU use with 1 MPI tasks x 1 OpenMP threads

MPI task timing breakdown:
Section |  min time  |  avg time  |  max time  |%varavg| %total
---------------------------------------------------------------
Pair    | 1042.8     | 1042.8     | 1042.8     |   0.0 | 28.15
Bond    | 610.46     | 610.46     | 610.46     |   0.0 | 16.48
Kspace  | 1247.4     | 1247.4     | 1247.4     |   0.0 | 33.67
Neigh   | 263.36     | 263.36     | 263.36     |   0.0 |  7.11
Comm    | 40.806     | 40.806     | 40.806     |   0.0 |  1.10
Output  | 8.9586     | 8.9586     | 8.9586     |   0.0 |  0.24
Modify  | 293.23     | 293.23     | 293.23     |   0.0 |  7.92
Other   |            | 197.7      |            |       |  5.34

Nlocal:           4520 ave        4520 max        4520 min
Histogram: 1 0 0 0 0 0 0 0 0 0
Nghost:          15130 ave       15130 max       15130 min
Histogram: 1 0 0 0 0 0 0 0 0 0
Neighs:              0 ave           0 max           0 min
Histogram: 1 0 0 0 0 0 0 0 0 0
FullNghs:  2.64711e+06 ave 2.64711e+06 max 2.64711e+06 min
Histogram: 1 0 0 0 0 0 0 0 0 0

Total # of neighbors = 2647112
Ave neighs/atom = 585.64425
Ave special neighs/atom = 5.5353982
Neighbor list builds = 44765
Dangerous builds = 0

# --- Cleanup ---
unfix npt_fix

undump dump_npt

# --- Write Output ---
write_dump all custom npt_cool300_last.dump id type mol x y z xu yu zu vx vy vz modify sort id
write_data /home/arz2/PolyJarvis/data/PLA2/lammps/equil/npt_cool300/npt_cool300_out.data
System init for write_data ...
PPPM Kokkos initialization ...
  using 12-bit tables for long-range coulomb
  G vector (1/distance) = 0.34293742
  grid = 45 45 45
  stencil order = 5
  estimated absolute RMS force accuracy = 0.00025164231
  estimated relative force accuracy = 7.5781333e-07
  using double precision cuFFT
  3d grid and FFT values/proc = 140608 91125
Generated 21 of 21 mixed pair_coeff terms from sixthpower/sixthpower mixing rule

print "STAGE COMPLETE: NPT T=620.0->300.0K P=1.0->1.0atm steps=1000000"
STAGE COMPLETE: NPT T=620.0->300.0K P=1.0->1.0atm steps=1000000
quit
      |  5.34

Nlocal:           4520 ave        4520 max        4520 min
Histogram: 1 0 0 0 0 0 0 0 0 0
Nghost:          15130 ave       15130 max       15130 min
Histogram: 1 0 0 0 0 0 0 0 0 0
Neighs:              0 ave           0 max           0 min
Histogram: 1 0 0 0 0 0 0 0 0 0
FullNghs:  2.64711e+06 ave 2.64711e+06 max 2.64711e+06 min
Histogram: 1 0 0 0 0 0 0 0 0 0

Total # of neighbors = 2647112
Ave neighs/atom = 585.64425
Ave special neighs/atom = 5.5353982
Neighbor list builds = 44765
Dangerous builds = 0
System init for write_data ...
PPPM Kokkos initialization ...
  using 12-bit tables for long-range coulomb
  G vector (1/distance) = 0.34293742
  grid = 45 45 45
  stencil order = 5
  estimated absolute RMS force accuracy = 0.00025164231
  estimated relative force accuracy = 7.5781333e-07
  using double precision cuFFT
  3d grid and FFT values/proc = 140608 91125
Generated 21 of 21 mixed pair_coeff terms from sixthpower/sixthpower mixing rule
STAGE COMPLETE: NPT T=620.0->300.0K P=1.0->1.0atm steps=1000000
