units real
atom_style full
boundary p p p

# --- Force Field Styles ---
pair_style lj/class2/coul/long 9.5 9.5
kspace_style pppm 1e-6
dielectric 1.000000
bond_style class2
angle_style class2
dihedral_style class2
improper_style class2
special_bonds lj/coul 0 0 1
pair_modify mix sixthpower tail yes
neighbor 2.0 bin
neigh_modify delay 0 every 1 check yes
neigh_modify one 4000
# KOKKOS: package loaded via -pk kokkos on the command line

read_data /home/arz2/PolyJarvis/data/PEG2/lammps/equil/npt_production/npt_production_out.data
Reading data file ...
  orthogonal box = (4.1412663 4.1412663 4.1412663) to (45.179867 45.179867 45.179867)
  1 by 1 by 1 MPI processor grid
  reading atoms ...
  7020 atoms
  reading velocities ...
  7020 velocities
  scanning bonds ...
  4 = max bonds/atom
  scanning angles ...
  10 = max angles/atom
  scanning dihedrals ...
  16 = max dihedrals/atom
  scanning impropers ...
  7 = max impropers/atom
  orthogonal box = (4.1412663 4.1412663 4.1412663) to (45.179867 45.179867 45.179867)
  1 by 1 by 1 MPI processor grid
  reading bonds ...
  7010 bonds
  reading angles ...
  13000 angles
  reading dihedrals ...
  14970 dihedrals
  reading impropers ...
  8000 impropers
Finding 1-2 1-3 1-4 neighbors ...
  special bond factors lj:    0        0        1       
  special bond factors coul:  0        0        1       
     4 = max # of 1-2 neighbors
     6 = max # of 1-3 neighbors
     8 = max # of special neighbors
  special bonds CPU = 0.004 seconds
  read_data CPU = 0.235 seconds


# --- Thermo Output ---
thermo_style custom step time temp press enthalpy etotal ke pe ebond eangle edihed eimp evdwl ecoul elong etail vol lx ly lz density pxx pyy pzz
thermo_modify flush yes
thermo 100

# --- Trajectory ---
dump dump_npt all custom 1000 /home/arz2/PolyJarvis/data/PEG2/lammps/mechanical/bm_series/bm_P7000/bm_P7000.dump id type mol x y z ix iy iz vx vy vz

# --- Restart Checkpointing ---
restart 10000 npt_1.rst npt_2.rst

# --- Initial Velocities (optional) ---
# Velocities read from data file

# --- SHAKE Constraints ---
fix shake_fix all shake 1e-4 1000 0 m 1.008
Finding SHAKE clusters ...
      10 = # of size 2 clusters
    1990 = # of size 3 clusters
      10 = # of size 4 clusters
       0 = # of frozen angles
  find clusters CPU = 0.002 seconds

# --- NPT Thermostat + Barostat (Nose-Hoover) ---
# T_damp = 100.0 fs  (heat bath coupling)
# P_damp = 1000.0 fs  (pressure bath coupling, ~10x T_damp typical)
# Ramp: T=300.0->300.0K  P=7000.0->7000.0atm
timestep 1.0
fix npt_fix all npt temp 300.0 300.0 100.0 iso 7000.0 7000.0 1000.0

run 500000
PPPM Kokkos initialization ...
  using 12-bit tables for long-range coulomb
  G vector (1/distance) = 0.30306459
  grid = 30 30 30
  stencil order = 5
  estimated absolute RMS force accuracy = 0.00030533163
  estimated relative force accuracy = 9.1949715e-07
  using double precision cuFFT
  3d grid and FFT values/proc = 50653 27000
Generated 10 of 10 mixed pair_coeff terms from sixthpower/sixthpower mixing rule
Neighbor list info ...
  update: every = 1 steps, delay = 0 steps, check = yes
  max neighbors/atom: 4000, page size: 100000
  master list distance cutoff = 11.5
  ghost atom cutoff = 11.5
  binsize = 11.5, bins = 4 4 4
  1 neighbor lists, perpetual/occasional/extra = 1 0 0
  (1) pair lj/class2/coul/long/kk, perpetual
      attributes: full, newton off, kokkos_device
      pair build: full/bin/kk/device
      stencil: full/bin/3d
      bin: kk/device
Per MPI rank memory allocation (min/avg/max) = 34.19 | 34.19 | 34.19 Mbytes
   Step          Time           Temp          Press         Enthalpy        TotEng         KinEng         PotEng         E_bond        E_angle        E_dihed        E_impro         E_vdwl         E_coul         E_long         E_tail         Volume           Lx             Ly             Lz          Density          Pxx            Pyy            Pzz      
         0   0              365.33856      3579.5647      6284.783       2676.6402      6184.4586     -3507.8185      1006.5503      4958.0101     -8527.3678     -54.192999     -2974.8356      6966.6817     -4882.6642     -464.47691      69115.844      41.0386        41.0386        41.0386        1.0588912      3864.1541      3343.8188      3530.7212    
       100   100            300.44007      2393.8342      4044.1774      1676.3573      5085.8556     -3409.4983      974.89647      4991.3028     -8560.0378     -51.534072     -2840.3159      6960.541      -4884.3507     -473.32887      67823.274      40.781161      40.781161      40.781161      1.0790715      1639.3204      2387.1002      3155.082     
       200   200            305.51839      4342.3418      5820.6547      1632.8812      5171.8216     -3538.9403      1050.7514      4792.9923     -8470.0565     -51.039172     -2942.2596      6967.8965     -4887.2253     -485.46559      66127.681      40.438443      40.438443      40.438443      1.1067402      4504.6352      3593.311       4929.0792    
       300   300            303.96062      5153.9258      6476.164       1600.8618      5145.4515     -3544.5898      1004.7266      4871.5981     -8502.1718     -51.564246     -2941.8626      6960.4619     -4885.7777     -494.94193      64861.575      40.178695      40.178695      40.178695      1.1283438      4784.7786      5339.2023      5337.7964    
       400   400            300.83901      6509.0176      7615.2168      1542.9044      5092.6088     -3549.7044      972.35825      4879.1098     -8483.589      -55.232242     -2928.14        6953.012      -4887.2232     -501.85583      63968          39.993332      39.993332      39.993332      1.1441058      8031.8111      4695.3178      6799.9239    
       500   500            301.33481      7073.0285      8029.8501      1484.197       5101.0017     -3616.8047      913.38888      4816.5139     -8432.0333     -51.01319      -2930.9639      6953.7203     -4886.4175     -505.90626      63455.853      39.886313      39.886313      39.886313      1.1533398      7542.6963      6468.8209      7207.5683    
       600   600            299.13647      7486.441       8321.8094      1413.1799      5063.7883     -3650.6084      948.60407      4825.0209     -8467.6689     -54.247178     -2961.9917      6950.0241     -4890.3497     -507.34238      63276.231      39.848643      39.848643      39.848643      1.1566138      8891.86        6031.2384      7536.2247    
       700   700            297.62246      6761.6041      7609.3729      1386.9223      5038.1591     -3651.2368      932.54332      4824.6087     -8503.3166     -51.136091     -2916.4473      6950.7227     -4888.2115     -508.75175      63100.94       39.811812      39.811812      39.811812      1.1598268      7350.4122      5527.2701      7407.1301    
       800   800            298.18043      6820.0036      7706.2526      1432.971       5047.6043     -3614.6334      966.20071      4810.5685     -8431.757      -50.677824     -2992.6686      6968.9425     -4885.2417     -508.9879       63071.664      39.805654      39.805654      39.805654      1.1603651      8172.4341      6334.4307      5953.146     
       900   900            304.6096       6624.7971      7663.5133      1571.0636      5156.4375     -3585.3739      956.15639      4824.0242     -8425.0821     -53.118706     -2961.5996      6957.6891     -4883.4432     -509.09434      63058.477      39.80288       39.80288       39.80288       1.1606078      6193.6869      7541.3739      6139.3306    
      1000   1000           304.30457      7437.8417      8391.4767      1554.3129      5151.274      -3596.9611      969.39598      4828.3994     -8460.5491     -52.808348     -2951.2045      6955.5721     -4885.7665     -509.31748      63030.849      39.797066      39.797066      39.797066      1.1611165      8740.0379      6345.1595      7228.3277    
      1100   1100           301.91012      7000.815       7914.0763      1476.2385      5110.7407     -3634.5022      930.18023      4864.6768     -8418.4445     -49.763578     -3035.105       6961.7592     -4887.8055     -509.12709      63054.42       39.802026      39.802026      39.802026      1.1606825      6404.4906      8031.4632      6566.4912    
      1200   1200           301.45074      5937.7855      6890.5243      1434.5376      5102.9643     -3668.4267      952.56608      4797.3023     -8450.712      -51.549178     -2977.4585      6944.6799     -4883.2553     -509.52892      63004.694      39.79156       39.79156       39.79156       1.1615985      4832.0925      6106.2694      6874.9945    
      1300   1300           299.38387      6996.5458      7816.4825      1398.2486      5067.9763     -3669.7277      975.37089      4857.0575     -8501.9532     -50.098614     -3020.4176      6954.4313     -4884.118      -510.37075      62900.771      39.76967       39.76967       39.76967       1.1635177      7155.1475      6548.109       7286.381     
      1400   1400           295.31751      7299.4158      8083.5172      1404.7934      4999.1409     -3594.3475      974.68115      4896.1784     -8494.6337     -51.444631     -2981.0275      6948.8956     -4886.9968     -511.69627      62737.83       39.7353        39.7353        39.7353        1.1665396      7291.9107      7310.7309      7295.6059    
      1500   1500           298.84107      6662.4224      7509.0521      1411.5995      5058.7878     -3647.1883      943.28539      4866.095      -8478.7419     -51.871728     -2992.9996      6951.9918     -4884.9472     -511.56563      62753.851      39.738682      39.738682      39.738682      1.1662417      7087.9059      5169.7638      7729.5974    
      1600   1600           300.6299       7332.307       8130.3645      1410.2315      5089.069      -3678.8375      925.49671      4825.2412     -8414.3144     -49.082081     -3030.5499      6949.9085     -4885.5376     -510.83473      62843.64       39.757626      39.757626      39.757626      1.1645754      8049.9851      7156.4708      6790.4652    
      1700   1700           300.79683      6662.9772      7536.8979      1428.8517      5091.8948     -3663.043       975.04326      4836.0726     -8448.9035     -53.293827     -3038.049       6955.3387     -4889.2513     -510.72092      62857.644      39.760579      39.760579      39.760579      1.164316       6696.6916      7297.178       5995.062     
      1800   1800           302.43084      6614.483       7493.9174      1440.3648      5119.5554     -3679.1905      949.73344      4814.2519     -8460.1382     -50.860845     -2988.4244      6944.5394     -4888.2918     -511.56782      62753.582      39.738625      39.738625      39.738625      1.1662467      5882.1035      7616.0274      6345.3181    
      1900   1900           297.59262      8170.9409      8867.2486      1394.3807      5037.6539     -3643.2733      955.01543      4804.583      -8418.9772     -51.671881     -2992.2824      6951.8642     -4891.8044     -511.92035      62710.368      39.729502      39.729502      39.729502      1.1670504      8151.4863      8282.6018      8078.7347    
      2000   2000           297.39263      6749.9206      7485.6707      1306.2295      5034.2684     -3728.039       921.9262       4828.8116     -8490.3942     -55.128448     -2996.8572      6950.195      -4886.5919     -511.4075       62773.256      39.742778      39.742778      39.742778      1.1658812      6272.731       7116.3467      6860.6843    
      2100   2100           301.44654      7162.9992      7878.4967      1315.2658      5102.8931     -3787.6273      889.9095       4767.7559     -8440.1945     -48.244739     -3024.981       6955.8176     -4887.69       -510.96936      62827.082      39.754134      39.754134      39.754134      1.1648824      6358.354       8727.4816      6403.162     
      2200   2200           302.33383      7300.2669      8150.4503      1450.2577      5117.9132     -3667.6554      930.35405      4875.3878     -8497.4888     -51.828527     -2974.94        6940.877      -4890.017      -510.11616      62932.163      39.776285      39.776285      39.776285      1.1629373      7507.5306      7071.3542      7321.9157    
      2300   2300           298.0051       6343.462       7303.3321      1465.9554      5044.6364     -3578.681       971.72443      4859.6329     -8426.8937     -50.511618     -3000.7175      6954.4815     -4886.397      -508.77557      63097.985      39.81119       39.81119       39.81119       1.1598811      5737.1638      7458.9723      5834.2499    
      2400   2400           304.94053      7288.2544      8161.9736      1462.0493      5162.0396     -3699.9903      985.63388      4821.6352     -8458.5796     -48.699519     -3065.4488      6952.3871     -4886.9185     -509.29717      63033.363      39.797595      39.797595      39.797595      1.1610702      7947.4837      6795.0511      7122.2285    
      2500   2500           297.72797      7002.3911      7798.8561      1373.5587      5039.945      -3666.3863      951.03432      4849.1072     -8493.3505     -54.242083     -2985.8327      6956.639      -4889.7415     -510.23561      62917.431      39.773181      39.773181      39.773181      1.1632096      6393.3898      6588.1882      8025.5953    
      2600   2600           295.93316      7426.6874      8116.6861      1308.3825      5009.5626     -3701.1801      929.28058      4766.1951     -8416.8536     -49.716693     -3001.5061      6958.1216     -4886.7011     -510.70941      62859.06       39.760878      39.760878      39.760878      1.1642898      7792.7538      8165.3571      6321.9513    
      2700   2700           303.68055      6957.746       7754.4101      1387.085       5140.7106     -3753.6256      922.91601      4873.1941     -8513.5098     -50.053626     -3055.9244      6954.7261     -4884.9739     -511.5984       62749.832      39.737834      39.737834      39.737834      1.1663164      5047.388       6509.2787      9316.5713    
      2800   2800           302.15705      7473.7355      8366.3664      1531.1937      5114.9207     -3583.727       966.62322      4854.8747     -8452.2158     -51.233814     -2969.2009      6953.3578     -4885.9322     -511.92444      62709.867      39.729396      39.729396      39.729396      1.1670597      6804.1622      6166.2288      9450.8156    
      2900   2900           307.16326      6327.9921      7420.9195      1635.7279      5199.6658     -3563.9379      989.28382      4881.7859     -8400.2436     -52.035246     -3058.4917      6962.7731     -4887.0103     -512.11302      62686.775      39.724519      39.724519      39.724519      1.1674896      6414.5624      6853.7718      5715.6422    
      3000   3000           301.89358      7471.879       8380.6457      1552.8801      5110.4606     -3557.5804      959.61817      4884.0923     -8420.2714     -51.906474     -2983.2937      6942.778      -4888.5973     -512.35251      62657.473      39.718328      39.718328      39.718328      1.1680356      7364.6377      7682.8014      7368.198     
      3100   3100           299.52324      7498.0038      8289.8153      1422.5178      5070.3354     -3647.8176      982.77591      4903.1568     -8436.3167     -52.463335     -3099.5613      6945.7626     -4891.1716     -511.18421      62800.675      39.748563      39.748563      39.748563      1.1653722      8148.5373      6947.1254      7398.3487    
      3200   3200           299.4357       6175.1076      7020.3367      1365.6599      5068.8537     -3703.1937      987.0961       4843.342      -8485.2913     -50.666126     -3051.932       6941.1262     -4886.8686     -511.27479      62789.55       39.746216      39.746216      39.746216      1.1655787      5053.2322      6526.2155      6945.8751    
      3300   3300           300.81995      6852.0988      7671.2708      1391.5115      5092.2862     -3700.7747      963.89347      4789.3291     -8441.0129     -49.264916     -3026.6763      6950.3661     -4887.4093     -510.85571      62841.059      39.757082      39.757082      39.757082      1.1646233      7464.1419      6811.2927      6280.8619    
      3400   3400           303.23424      6701.5543      7629.0805      1485.192       5133.1553     -3647.9634      1026.6287      4885.1231     -8477.4319     -51.487196     -3083.9277      6943.181      -4890.0494     -510.68117      62862.536      39.761611      39.761611      39.761611      1.1642254      6491.8035      6801.8142      6811.0452    
      3500   3500           306.29738      6692.3327      7641.1616      1509.9174      5185.0082     -3675.0908      985.45676      4807.4793     -8420.5347     -48.736806     -3057.4542      6948.4004     -4889.7015     -511.03017      62819.605      39.752557      39.752557      39.752557      1.165021       5774.1549      6208.4117      8094.4314    
      3600   3600           298.12464      6242.108       7107.8279      1396.6931      5046.66       -3649.9669      972.3069       4845.4488     -8422.7268     -52.693744     -3069.8311      6964.3826     -4886.8535     -511.71307      62735.771      39.734865      39.734865      39.734865      1.1665778      7199.7339      6514.6477      5011.9424    
      3700   3700           299.20705      7116.2768      7813.5515      1320.2255      5064.9831     -3744.7576      955.08906      4851.9866     -8497.4619     -49.008743     -3071.9704      6955.2888     -4888.681      -513.10147      62566.014      39.698994      39.698994      39.698994      1.169743       6674.8127      6990.3572      7683.6605    
      3800   3800           294.81585      7298.8802      7999.8835      1352.9621      4990.6486     -3637.6866      959.90976      4849.5769     -8389.8402     -51.806939     -3060.805       6944.5598     -4889.2808     -514.10677      62443.67       39.6731        39.6731        39.6731        1.1720349      6690.0397      7543.0439      7663.557     
      3900   3900           302.14563      8420.7309      9131.2593      1472.1094      5114.7274     -3642.618       942.34914      4854.4525     -8442.8987     -52.261336     -3008.0356      6950.0219     -4886.2459     -514.73873      62367.006      39.656858      39.656858      39.656858      1.1734756      8734.9434      7937.8227      8589.4266    
      4000   4000           302.45729      6454.8302      7406.7947      1515.1333      5120.0031     -3604.8698      957.68248      4968.0165     -8450.7378     -52.934415     -3095.081       6953.8553     -4885.6708     -512.93776      62585.982      39.703216      39.703216      39.703216      1.1693698      5358.8448      6902.8288      7102.817     
      4100   4100           298.53836      5785.0466      6775.3336      1487.7922      5053.6633     -3565.8712      991.95393      4943.6766     -8417.4354     -54.725058     -3092.8112      6949.8153     -4886.3453     -512.23672      62671.637      39.721321      39.721321      39.721321      1.1677716      6333.0599      5933.8233      5088.2565    
      4200   4200           295.13853      7163.5295      7964.0953      1437.7085      4996.1111     -3558.4026      998.01461      5014.5372     -8513.6726     -56.042603     -3057.9349      6943.8417     -4887.1461     -513.89202      62469.764      39.678626      39.678626      39.678626      1.1715453      8548.4659      5683.0188      7259.1039    
      4300   4300           300.75184      7361.2214      8086.6309      1389.498       5091.1332     -3701.6352      937.96293      4842.0011     -8443.1208     -48.143987     -3045.7519      6948.3322     -4892.9147     -514.61045      62382.553      39.660153      39.660153      39.660153      1.1731832      6904.8478      6811.0807      8367.7358    
      4400   4400           297.16968      8002.2192      8695.2639      1411.9496      5030.4944     -3618.5448      978.55045      4907.9208     -8430.2185     -55.323295     -3078.9178      6948          -4888.5565     -514.3977       62408.353      39.665619      39.665619      39.665619      1.1726981      7710.8709      7893.3564      8402.4302    
      4500   4500           300.02821      7190.9605      8069.1923      1512.3988      5078.8836     -3566.4848      983.73416      4972.0974     -8455.121      -53.476876     -3066.5696      6946.5196     -4893.6684     -513.46758      62521.403      39.689556      39.689556      39.689556      1.1705777      6907.3919      6475.5         8189.9895    
      4600   4600           310.26302      7201.6823      8218.959       1641.3718      5252.1387     -3610.7668      969.14218      4901.9948     -8398.294      -55.622624     -3079.3974      6942.1553     -4890.745      -512.60753      62626.301      39.71174       39.71174       39.71174       1.168617       5647.4261      8372.2481      7585.3728    
      4700   4700           308.77971      7293.6024      8191.1671      1528.3918      5227.0291     -3698.6373      954.86785      4798.4127     -8368.0563     -53.17024      -3072.9878      6932.8354     -4890.5388     -512.51261      62637.9        39.714192      39.714192      39.714192      1.1684006      8074.2465      6440.3787      7366.1821    
      4800   4800           300.37294      6480.4766      7332.8836      1421.1704      5084.7192     -3663.5488      979.60823      4877.8212     -8442.3464     -51.828684     -3073.9029      6938.5402     -4891.4405     -513.22905      62550.461      39.695704      39.695704      39.695704      1.1700339      6445.7579      6765.3177      6230.3542    
      4900   4900           304.19328      7240.8681      7963.901       1361.1242      5149.39       -3788.2658      971.17237      4793.8902     -8440.5229     -53.727198     -3107.7619      6939.6414     -4890.9579     -513.43049      62525.92       39.690512      39.690512      39.690512      1.1704931      6436.9401      7252.2299      8033.4344    
      5000   5000           295.88183      5704.9835      6546.4807      1351.4115      5008.6937     -3657.2822      1016.434       4799.1913     -8402.7956     -48.263655     -3070.9354      6941.2579     -4892.1707     -514.13916      62439.736      39.672267      39.672267      39.672267      1.1721087      5280.2589      5974.6177      5860.0741    
      5100   5100           296.81507      6848.3972      7670.3089      1442.7726      5024.4915     -3581.7189      978.18932      4904.7771     -8389.1372     -54.030022     -3066.3006      6936.7884     -4892.0059     -514.86137      62352.151      39.653709      39.653709      39.653709      1.1737552      4966.6035      8058.6957      7519.8923    
      5200   5200           308.44111      7301.661       8197.5415      1557.999       5221.2974     -3663.2984      985.86004      4938.6643     -8468.5879     -52.134854     -3124.0976      6944.2822     -4887.2845     -514.87422      62350.594      39.653379      39.653379      39.653379      1.1737845      7481.1398      7345.9549      7077.8882    
      5300   5300           302.61595      5766.8352      6763.6146      1512.303       5122.6889     -3610.3859      1008.1348      4830.09       -8397.383      -51.870469     -3037.9399      6928.4198     -4889.8373     -514.14709      62438.773      39.672063      39.672063      39.672063      1.1721268      5581.764       5042.6352      6676.1063    
      5400   5400           301.48949      7379.8809      8177.3082      1454.0707      5103.6201     -3649.5495      971.90058      4820.1217     -8393.9837     -49.454569     -3061.5355      6949.2135     -4885.8115     -513.91173      62467.368      39.678119      39.678119      39.678119      1.1715902      7222.8294      6964.162       7952.6514    
      5500   5500           299.29479      6239.3517      7099.5485      1415.1949      5066.4683     -3651.2734      957.76021      4913.7608     -8381.0513     -50.505457     -3135.4079      6933.674      -4889.5037     -513.89692      62469.169      39.6785        39.6785        39.6785        1.1715565      7166.2302      5946.9067      5604.9184    
      5600   5600           300.72274      6746.6674      7550.3043      1425.6502      5090.6406     -3664.9904      961.4053       4945.0441     -8424.1092     -51.601214     -3128.3105      6923.2946     -4890.7136     -515.73353      62246.706      39.631343      39.631343      39.631343      1.1757435      6868.1481      5466.5497      7905.3046    
      5700   5700           299.50903      8388.109       9056.6394      1461.6022      5070.0949     -3608.4927      963.15045      4896.8124     -8428.3392     -51.321723     -3034.7831      6935.1239     -4889.1355     -517.07292      62085.467      39.597094      39.597094      39.597094      1.178797       8115.8236      9407.9196      7640.5838    
      5800   5800           296.56689      7358.3762      8107.8017      1430.5991      5020.2903     -3589.6912      990.99424      4957.4178     -8463.619      -56.466824     -3073.9074      6946.5734     -4890.6834     -515.94697      62220.956      39.625878      39.625878      39.625878      1.1762301      6658.7562      8135.234       7281.1383    
      5900   5900           296.96832      6716.232       7486.8335      1369.0546      5027.0858     -3658.0312      921.8216       4999.3792     -8457.5965     -53.296668     -3125.3483      6944.0871     -4887.0775     -513.98393      62458.593      39.676261      39.676261      39.676261      1.1717548      6181.3333      6666.2885      7301.074     
      6000   6000           298.01385      6394.2539      7251.4091      1412.4167      5044.7846     -3632.3678      974.07903      5000.2692     -8477.8615     -53.753619     -3130.2322      6942.4848     -4887.3536     -512.70742      62614.1        39.709161      39.709161      39.709161      1.1688447      5971.5377      7066.8013      6144.4226    
      6100   6100           301.75204      7289.9917      8200.5273      1557.7549      5108.0646     -3550.3097      985.15374      5032.166      -8467.4744     -53.37943      -3100.257       6942.6156     -4889.1343     -513.80141      62480.781      39.680958      39.680958      39.680958      1.1713387      7606.8734      6166.7883      8096.3134    
      6200   6200           302.45346      6920.8019      7840.6922      1555.3537      5119.9384     -3564.5846      1013.6844      4892.3023     -8447.7128     -56.229211     -3011.1699      6934.275      -4889.7345     -515.51984      62272.509      39.636818      39.636818      39.636818      1.1752563      7845.5695      6237.4973      6679.3389    
      6300   6300           302.84889      7205.655       8010.8505      1475.1952      5126.6322     -3651.437       978.7138       4973.195      -8460.5255     -54.153187     -3132.4779      6931.9854     -4888.1746     -516.18094      62192.753      39.61989       39.61989       39.61989       1.1767635      5927.5994      7460.5813      8228.7844    
      6400   6400           296.98018      7127.256       7903.9866      1436.2288      5027.2865     -3591.0577      1019.3248      4896.8034     -8426.0447     -52.505644     -3085.5016      6944.2444     -4887.3783     -515.92461      62223.653      39.62645       39.62645       39.62645       1.1761791      8721.3705      6038.6775      6621.7198    
      6500   6500           299.08011      7073.0406      7845.6121      1418.6093      5062.8341     -3644.2248      981.62436      4874.2357     -8366.7113     -50.994413     -3128.7045      6933.835      -4887.5096     -515.24679      62305.509      39.643819      39.643819      39.643819      1.1746338      4998.046       8166.5736      8054.5022    
      6600   6600           302.22189      6437.1149      7285.2593      1434.7647      5116.0184     -3681.2536      986.83721      4917.205      -8436.192      -55.807051     -3134.0642      6928.0084     -4887.241      -515.12938      62319.71       39.646831      39.646831      39.646831      1.1743662      5114.4685      7080.7498      7116.1264    
      6700   6700           301.85285      7101.2928      7930.5465      1473.8919      5109.7711     -3635.8792      995.68598      4946.7821     -8404.4655     -54.118723     -3156.876       6928.545      -4891.4321     -514.92917      62343.941      39.651968      39.651968      39.651968      1.1739097      5022.6564      8514.3582      7766.8639    
      6800   6800           299.91684      7714.6548      8536.2498      1530.5007      5076.9983     -3546.4976      993.57481      5005.858      -8455.7148     -51.588086     -3079.514       6932.9218     -4892.0354     -515.5604       62267.609      39.635779      39.635779      39.635779      1.1753488      6463.8158      7456.838       9223.3105    
      6900   6900           300.32747      5971.6835      6914.3349      1491.4558      5083.9494     -3592.4937      992.13599      4920.5026     -8379.7186     -52.309436     -3117.7082      6934.1296     -4889.5256     -515.56626      62266.901      39.635629      39.635629      39.635629      1.1753622      6099.2152      5930.1989      5885.6362    
      7000   7000           300.37871      6928.0293      7663.728       1380.8856      5084.8168     -3703.9312      915.80693      4992.612      -8483.3656     -53.219737     -3123.4723      6935.1505     -4887.4432     -516.26321      62182.841      39.617785      39.617785      39.617785      1.176951       5832.519       6637.1969      8314.3718    
      7100   7100           302.43353      6895.6107      7602.1864      1345.2338      5119.6009     -3774.3671      947.69577      4784.0454     -8406.3128     -48.798287     -3102.7099      6940.8776     -4889.165      -515.97362      62217.742      39.625195      39.625195      39.625195      1.1762908      8642.1219      6131.0877      5913.6225    
      7200   7200           297.15396      6434.017       7221.2988      1376.3126      5030.2283     -3653.9157      967.4858       4908.7335     -8394.537      -50.184978     -3134.0123      6936.4501     -4887.8508     -515.36669      62291.014      39.640744      39.640744      39.640744      1.1749072      6624.0977      6408.3834      6269.5698    
      7300   7300           302.41094      7003.6753      7864.2356      1502.6744      5119.2186     -3616.5441      962.20361      4978.185      -8455.1719     -54.507717     -3092.2163      6933.1221     -4888.1589     -515.44215      62281.894      39.63881       39.63881       39.63881       1.1750792      6693.9294      6541.8945      7775.2021    
      7400   7400           299.97577      6524.0419      7463.2025      1545.4174      5077.9959     -3532.5785      999.24594      4895.5872     -8360.4636     -48.059162     -3061.2111      6933.9686     -4891.6464     -516.14912      62196.587      39.620704      39.620704      39.620704      1.1766909      6758.0992      7144.1163      5669.9104    
      7500   7500           303.1789       6992.994       7852.7296      1510.041       5132.2186     -3622.1776      946.36873      4962.1431     -8412.7077     -54.824151     -3097.2239      6926.0704     -4892.0042     -516.1874       62191.975      39.619724      39.619724      39.619724      1.1767782      6842.6027      7526.1188      6610.2607    
      7600   7600           299.54035      7128.3882      7908.6672      1439.1697      5070.6252     -3631.4555      988.7112       4908.8245     -8443.205      -54.557282     -3084.4343      6942.9013     -4889.6958     -515.86781      62230.504      39.627904      39.627904      39.627904      1.1760496      8215.2449      5561.2675      7608.6522    
      7700   7700           300.52662      6278.4002      7079.7768      1378.1653      5087.3207     -3709.1555      967.70491      4945.2041     -8451.1214     -50.442908     -3174.6076      6939.1831     -4885.0757     -515.54787      62269.122      39.6361        39.6361        39.6361        1.1753202      5802.9005      6133.1612      6899.139     
      7800   7800           296.8344       6060.9226      6855.6842      1353.0704      5024.8188     -3671.7484      991.03614      4865.2994     -8364.2579     -51.785363     -3168.2488      6944.0506     -4887.8425     -515.68838      62252.156      39.6325        39.6325        39.6325        1.1756406      6959.3189      6523.2015      4700.2474    
      7900   7900           301.03417      7149.373       7837.4148      1360.1751      5095.9125     -3735.7374      967.50146      4919.4645     -8491.4648     -49.635475     -3139.6231      6946.3976     -4888.3775     -516.76801      62122.099      39.60488       39.60488       39.60488       1.1781019      6883.9683      6954.8923      7609.2583    
      8000   8000           297.17082      7320.3797      8059.7614      1432.7571      5030.5137     -3597.7566      971.41216      4939.5228     -8396.1894     -51.60657      -3120.6735      6949.1929     -4889.4151     -517.1708       62073.716      39.594596      39.594596      39.594596      1.1790201      8207.8551      9106.5321      4646.7519    
      8100   8100           304.48775      6941.1443      7802.6161      1516.1245      5154.3749     -3638.2504      972.98017      4928.7323     -8402.0655     -54.12098      -3141.5171      6943.857      -4886.1163     -516.94028      62101.398      39.600481      39.600481      39.600481      1.1784946      6834.8701      6748.5236      7240.0393    
      8200   8200           299.94105      7393.6623      8182.7866      1478.1518      5077.4082     -3599.2564      991.12458      4878.7061     -8403.2578     -51.514496     -3068.4938      6946.74       -4892.561      -516.29999      62178.413      39.616844      39.616844      39.616844      1.1770349      5816.8879      8940.5663      7423.5327    
      8300   8300           296.85879      7054.9782      7767.3624      1346.9786      5025.2316     -3678.253       996.49274      4904.8308     -8418.6904     -54.431069     -3151.3305      6935.1003     -4890.2248     -514.46084      62400.694      39.663997      39.663997      39.663997      1.1728421      6723.3541      7685.3706      6756.2098    
      8400   8400           296.54169      6842.0499      7505.564       1279.3779      5019.8638     -3740.4859      951.49052      4902.0517     -8458.0605     -48.880803     -3142.2341      6943.0652     -4887.9179     -514.49573      62396.463      39.6631        39.6631        39.6631        1.1729216      7303.6225      6154.1585      7068.3687    
      8500   8500           295.90207      6895.6906      7610.2884      1349.9201      5009.0363     -3659.1161      999.37269      4909.1407     -8430.8571     -55.158752     -3102.4904      6914.1126     -4893.2359     -515.69809      62250.984      39.632251      39.632251      39.632251      1.1756627      7539.5164      6835.8711      6311.6844    
      8600   8600           306.82515      5733.2585      6725.4846      1536.7811      5193.9423     -3657.1613      981.38735      4934.4976     -8415.151      -49.264631     -3150.4075      6932.7179     -4890.9409     -517.32123      62055.666      39.590758      39.590758      39.590758      1.179363       5938.7882      6383.8522      4877.1351    
      8700   8700           301.63357      7559.4677      8344.7618      1512.0451      5106.0591     -3594.014       969.94076      4886.5896     -8353.8637     -49.298589     -3100.9679      6943.6917     -4890.1059     -517.98291      61976.395      39.573893      39.573893      39.573893      1.1808715      8404.3817      6829.8559      7444.1656    
      8800   8800           301.25141      7548.5801      8233.191       1400.8557      5099.59       -3698.7343      945.68973      4912.8234     -8448.7271     -53.465147     -3095.8618      6931.211      -4890.4045     -517.26576      62062.321      39.592173      39.592173      39.592173      1.1792366      7977.8597      8278.4158      6389.465     
      8900   8900           301.98957      6272.3524      7019.4342      1319.2526      5112.0856     -3792.833       971.00635      4857.9903     -8466.7318     -54.576799     -3141.8372      6932.4954     -4891.1792     -515.18047      62313.53       39.64552       39.64552       39.64552       1.1744827      5415.5407      7409.6564      5991.8603    
      9000   9000           298.92232      6717.0231      7424.1486      1315.1385      5060.1631     -3745.0246      975.18637      4846.1297     -8409.2049     -49.948908     -3157.7758      6945.0394     -4894.4505     -514.78233      62361.724      39.655738      39.655738      39.655738      1.173575       7842.1612      7847.235       4461.673     
      9100   9100           304.67166      5997.5972      6934.0232      1488.8054      5157.488      -3668.6826      992.00068      4857.9198     -8403.9406     -50.327329     -3107.269       6933.3082     -4890.3744     -515.67927      62253.256      39.632733      39.632733      39.632733      1.1756198      5031.5911      7291.6705      5669.5299    
      9200   9200           306.37858      7222.1975      8066.3938      1514.7435      5186.3829     -3671.6394      983.4868       4888.8898     -8422.0839     -54.656347     -3112.0365      6936.496      -4891.7352     -516.10288      62202.159      39.621887      39.621887      39.621887      1.1765855      7427.4856      6516.8515      7722.2553    
      9300   9300           296.84135      6656.1777      7456.2307      1421.6289      5024.9364     -3603.3075      1019.0557      4890.3818     -8404.4681     -50.377268     -3092.1314      6928.2884     -4894.0565     -516.40915      62165.269      39.614052      39.614052      39.614052      1.1772837      7928.0305      7075.9067      4964.5959    
      9400   9400           300.49365      6904.6784      7626.564       1363.9083      5086.7626     -3722.8543      1025.0621      4767.3016     -8408.589      -52.629427     -3088.8692      6926.5729     -4891.7033     -516.18164      62192.668      39.619872      39.619872      39.619872      1.1767651      6395.6703      7975.7099      6342.655     
      9500   9500           298.94814      6356.1261      7133.37        1363.8619      5060.6002     -3696.7383      995.16588      4782.2136     -8350.8901     -49.400934     -3105.502       6926.586      -4894.9109     -515.78815      62240.115      39.629944      39.629944      39.629944      1.175868       7780.1302      5945.9658      5342.2823    
      9600   9600           301.86832      7218.7595      8032.8857      1487.5807      5110.0331     -3622.4524      1063.3489      4893.0278     -8442.9703     -53.749166     -3126.9218      6934.3671     -4889.5548     -516.3573       62171.512      39.615378      39.615378      39.615378      1.1771655      7855.255       6688.6272      7112.3962    
      9700   9700           304.07177      7778.1345      8617.9645      1561.1605      5147.333      -3586.1726      1022.7284      4915.9852     -8434.3429     -49.950355     -3079.1473      6932.8772     -4894.3228     -516.04197      62209.501      39.623446      39.623446      39.623446      1.1764467      7680.0522      8694.0385      6960.3128    
      9800   9800           300.6714       6085.0014      7026.4286      1491.5219      5089.7715     -3598.2496      990.53911      4989.5596     -8387.0129     -54.359113     -3155.6185      6912.6474     -4894.0051     -514.71641      62369.711      39.657431      39.657431      39.657431      1.1734247      6278.0977      6087.1445      5889.7619    
      9900   9900           299.88169      7978.3814      8686.7104      1423.3041      5076.4032     -3653.0992      939.92746      4906.7923     -8380.8585     -49.734249     -3116.8629      6941.1724     -4893.5356     -514.27106      62423.722      39.668875      39.668875      39.668875      1.1724094      7966.663       7661.55        8306.9312    
     10000   10000          296.78108      6950.7941      7722.6578      1394.9538      5023.9161     -3628.9623      984.85659      4940.0588     -8453.0843     -53.124436     -3085.3537      6930.7839     -4893.0992     -514.28742      62421.736      39.668455      39.668455      39.668455      1.1724467      6484.9281      7603.3595      6764.0946    
     10100   10100          298.6891       6807.4361      7617.7293      1422.8846      5056.2152     -3633.3306      1007.3379      4924.0274     -8448.8129     -52.256092     -3101.396       6930.7056     -4892.9365     -514.48271      62398.042      39.663435      39.663435      39.663435      1.1728919      7883.9148      5823.574       6714.8195    
     10200   10200          299.16898      7569.2558      8307.6957      1426.363       5064.3386     -3637.9756      998.63444      4939.7505     -8440.685      -55.420674     -3122.0903      6935.232      -4893.3966     -514.98936      62336.654      39.650423      39.650423      39.650423      1.174047       7131.3685      8635.1895      6941.2093    
     10300   10300          298.94329      7000.6186      7724.3997      1378.8238      5060.5181     -3681.6943      991.82184      4886.024      -8439.3098     -54.145565     -3115.143       6940.6709     -4891.6127     -516.51508      62152.52       39.611344      39.611344      39.611344      1.1775252      8332.2037      4819.01        7850.642     
     10400   10400          301.8445       7068.5529      7771.1432      1380.6007      5109.6298     -3729.0291      994.29209      4853.4449     -8462.7552     -52.750494     -3111.469       6939.6565     -4889.4478     -517.85768      61991.383      39.577082      39.577082      39.577082      1.180586       7156.2749      6752.9325      7296.4513    
     10500   10500          298.15779      7469.1717      8121.8948      1359.2674      5047.221      -3687.9536      1002.3403      4955.0731     -8477.5136     -49.297466     -3166.8348      6939.8675     -4891.5887     -517.10009      62082.204      39.596401      39.596401      39.596401      1.1788589      7567.3796      7190.582       7649.5534    
     10600   10600          300.59147      5812.8043      6654.0409      1378.9627      5088.4185     -3709.4558      995.1811       4934.0011     -8482.8016     -51.931845     -3141.1525      6928.8886     -4891.6407     -515.91058      62225.344      39.626809      39.626809      39.626809      1.1761471      5943.4405      4757.9794      6736.993     
     10700   10700          302.59087      7927.26        8634.724       1438.7872      5122.2644     -3683.4772      988.29114      4897.9083     -8459.9028     -53.671861     -3107.4796      6943.6346     -4892.2571     -515.76682      62242.689      39.630491      39.630491      39.630491      1.1758194      7433.2782      8438.7186      7909.7833    
     10800   10800          303.56707      5020.3123      6032.1248      1473.2425      5138.7895     -3665.547       987.92546      4872.0572     -8372.1234     -51.986688     -3151.1801      6942.7198     -4892.9592     -515.57278      62266.114      39.635462      39.635462      39.635462      1.175377       4285.5644      4706.3104      6069.0621    
     10900   10900          297.50051      8117.2263      8796.3501      1444.1188      5036.0947     -3591.9758      971.87509      5039.0678     -8481.6336     -53.450855     -3105.7902      6931.0873     -4893.1315     -516.89952      62106.294      39.601521      39.601521      39.601521      1.1784017      6743.2772      8192.9248      9415.477     
     11000   11000          299.49431      6932.0938      7617.0767      1338.7371      5069.8457     -3731.1087      992.11647      4847.4027     -8439.2018     -50.493468     -3134.3768      6943.3235     -4889.8793     -516.93657      62101.842      39.600575      39.600575      39.600575      1.1784861      7822.1816      8076.3801      4897.7197    
     11100   11100          294.62134      6968.1545      7599.2477      1283.7433      4987.356      -3703.6127      931.87467      4953.3263     -8446.926      -53.756416     -3135.0162      6937.6317     -4890.7468     -516.56784      62146.172      39.609996      39.609996      39.609996      1.1776455      7357.482       6699.8813      6847.1001    
     11200   11200          296.66249      6863.9509      7587.5859      1357.1814      5021.9086     -3664.7272      944.06359      4887.8318     -8388.1512     -51.707648     -3105.4504      6940.3535     -4891.6668     -515.79314      62239.513      39.629817      39.629817      39.629817      1.1758794      6635.7846      7073.088       6882.9801    
     11300   11300          300.642        6889.3237      7739.9322      1483.3089      5089.274      -3605.965       990.44625      4967.2937     -8449.8909     -49.441628     -3116.505       6943.3148     -4891.1823     -515.53033      62271.242      39.63655       39.63655       39.63655       1.1752802      6254.8706      7760.216       6652.8845    
     11400   11400          303.00202      6699.7982      7554.6337      1471.377       5129.2243     -3657.8473      953.44648      4974.7132     -8458.1608     -50.165111     -3117.5711      6931.7759     -4891.8858     -515.63598      62258.482      39.633842      39.633842      39.633842      1.1755211      5911.2068      6490.5163      7697.6717    
     11500   11500          302.82915      8568.8633      9182.0574      1401.0458      5126.2979     -3725.2521      944.06838      4874.8258     -8430.569      -50.957239     -3122.7038      6953.1187     -4893.0349     -515.59036      62263.991      39.635011      39.635011      39.635011      1.1754171      8016.6799      8345.3339      9344.5761    
     11600   11600          296.69484      6333.033       7075.6527      1312.382       5022.4563     -3710.0743      991.47118      4840.9613     -8419.0264     -50.210594     -3117.2032      6935.8542     -4891.9207     -514.47037      62399.538      39.663752      39.663752      39.663752      1.1728638      4914.1181      7064.0712      7020.9098    
     11700   11700          297.12579      6717.2891      7376.3585      1267.6579      5029.7515     -3762.0936      979.75292      4823.2614     -8436.8883     -51.495368     -3137.4638      6949.8686     -4889.129      -514.8288       62356.095      39.654545      39.654545      39.654545      1.1736809      6203.2874      6944.5057      7004.0743    
     11800   11800          299.88893      7528.6757      8136.8204      1302.9669      5076.5259     -3773.5589      945.37936      4799.8283     -8386.9885     -50.064979     -3141.4962      6948.2741     -4888.4911     -515.7872       62240.229      39.629969      39.629969      39.629969      1.1758658      6872.4896      9352.0102      6361.5272    
     11900   11900          303.53312      6941.4067      7731.1061      1448.7124      5138.2148     -3689.5023      973.49887      4913.2189     -8425.4305     -51.694208     -3144.1485      6934.4865     -4889.4334     -517.29702      62058.57       39.591375      39.591375      39.591375      1.1793079      8027.3872      6399.0472      6397.7857    
     12000   12000          306.453        8528.0339      9215.4818      1507.9666      5187.6426     -3679.676       972.20153      4939.1945     -8455.3924     -48.691065     -3141.0191      6945.8385     -4891.8078     -518.02672      61971.154      39.572777      39.572777      39.572777      1.1809714      7583.7787      9141.2522      8859.0709    
     12100   12100          300.37503      6690.9211      7512.6316      1463.2634      5084.7546     -3621.4912      1006.9281      4964.6995     -8409.3595     -54.031979     -3174.2947      6936.4806     -4891.9131     -517.83754      61993.794      39.577596      39.577596      39.577596      1.1805401      6985.678       6004.624       7082.4614    
     12200   12200          300.98055      7296.411       7944.4479      1338.2587      5095.0049     -3756.7462      992.38715      4821.795      -8410.5322     -49.927403     -3150.6552      6931.9207     -4891.7342     -517.10164      62082.018      39.596361      39.596361      39.596361      1.1788624      6958.1465      6801.2733      8129.8133    
     12300   12300          296.47166      6392.2875      7127.8339      1324.8479      5018.6783     -3693.8305      994.32015      4823.8215     -8340.9133     -52.200219     -3160.8561      6933.9898     -4891.9923     -515.73002      62247.131      39.631433      39.631433      39.631433      1.1757355      7399.3298      5747.6315      6029.9012    
     12400   12400          298.92025      7495.8264      8169.9198      1367.6521      5060.1281     -3692.476       986.17444      4890.997      -8440.6629     -53.923352     -3125.7728      6941.2611     -4890.5495     -515.92128      62224.055      39.626535      39.626535      39.626535      1.1761715      6306.3557      7668.6487      8512.4749    
     12500   12500          303.49818      7597.6553      8293.5899      1404.2704      5137.6233     -3733.3529      1000.1112      4883.4908     -8427.6646     -52.073029     -3181.774       6933.0668     -4888.51       -516.32232      62175.723      39.616273      39.616273      39.616273      1.1770858      7571.4497      6904.64        8316.8762    
     12600   12600          300.16574      6755.9221      7533.758       1419.2043      5081.2118     -3662.0075      980.70289      4948.8976     -8440.3495     -51.251714     -3145.5371      6933.8773     -4888.347      -517.29408      62058.924      39.59145       39.59145       39.59145       1.1793011      6602.5394      7624.9031      6040.3239    
     12700   12700          295.80535      7008.7782      7748.4959      1409.6431      5007.399      -3597.7559      980.3026       4908.9334     -8412.3404     -51.948217     -3058.314       6927.9205     -4892.3099     -517.66557      62014.389      39.581978      39.581978      39.581978      1.180148       5173.4889      7843.8018      8009.0438    
     12800   12800          294.52517      6109.8027      6845.1727      1307.6305      4985.728      -3678.0975      990.73318      4925.6313     -8416.3532     -53.305453     -3169.0549      6934.4959     -4890.2444     -516.56832      62146.114      39.609983      39.609983      39.609983      1.1776466      7647.7396      4387.4135      6294.255     
     12900   12900          294.58844      6996.1761      7571.0934      1226.6874      4986.7991     -3760.1117      989.40811      4850.3541     -8465.6498     -52.459531     -3133.7306      6942.8221     -4890.8561     -516.28249      62180.52       39.617292      39.617292      39.617292      1.176995       6322.8547      7436.8822      7228.7915    
     13000   13000          299.65472      6403.5732      7116.4952      1304.4018      5072.5612     -3768.1594      989.35514      4866.0022     -8459.1281     -52.999845     -3146.3483      6929.4263     -4894.4668     -515.83099      62234.946      39.628847      39.628847      39.628847      1.1759657      6655.6055      6583.4333      5971.6809    
     13100   13100          295.77727      7514.2038      8227.8731      1403.8886      5006.9236     -3603.035       997.44872      4980.9969     -8487.5054     -55.807874     -3086.0269      6939.5307     -4891.6712     -515.54024      62270.044      39.636296      39.636296      39.636296      1.1753028      7674.6026      6925.3         7942.7088    
     13200   13200          301.63241      6562.4306      7418.4432      1444.8498      5106.0396     -3661.1898      961.52168      4970.1159     -8419.494      -53.128935     -3182.1743      6951.9701     -4890.0003     -514.33573      62415.874      39.667213      39.667213      39.667213      1.1725568      8266.7926      5872.4287      5548.0704    
     13300   13300          303.65376      5632.0378      6598.9264      1479.3343      5140.257      -3660.9227      1002.3443      4923.0197     -8429.9852     -56.451195     -3150.0567      6941.7531     -4891.5467     -515.04815      62329.539      39.648915      39.648915      39.648915      1.174181       4839.4211      4178.7101      7877.9821    
     13400   13400          304.84552      8279.915       8960.275       1459.9811      5160.4312     -3700.4501      938.2658       4913.13       -8450.4223     -51.374669     -3115.9576      6954.8201     -4888.9115     -516.85085      62112.143      39.602765      39.602765      39.602765      1.1782907      7408.7681      7731.805       9699.1719    
     13500   13500          297.89923      7051.275       7690.2264      1315.3634      5042.8441     -3727.4808      999.979        4905.8772     -8497.8516     -54.30927      -3121.7522      6933.296      -4892.7199     -517.86246      61990.811      39.576961      39.576961      39.576961      1.1805969      7959.5028      5694.7405      7499.5818    
     13600   13600          298.48568      8424.7544      8934.2234      1327.044       5052.7716     -3725.7276      1011.6856      4893.6916     -8524.3178     -50.8564       -3102.0862      6940.1658     -4894.0101     -518.50294      61914.236      39.560658      39.560658      39.560658      1.1820571      7054.8312      8800.3097      9419.1221    
     13700   13700          299.21745      7862.348       8520.0275      1406.8824      5065.159      -3658.2766      1009.0118      4875.2623     -8439.9686     -50.050752     -3111.5217      6949.5686     -4890.5782     -517.49746      62034.533      39.586263      39.586263      39.586263      1.1797648      7346.5498      7951.7103      8288.7838    
     13800   13800          298.94595      7803.9925      8527.8076      1445.5403      5060.5631     -3615.0228      955.133        4982.9857     -8442.0593     -55.518624     -3103.4234      6939.1954     -4891.3356     -515.896        62227.103      39.627182      39.627182      39.627182      1.1761139      7745.0854      6546.4173      9120.4746    
     13900   13900          300.04103      5681.6465      6592.2692      1425.1499      5079.1006     -3653.9507      1007.8835      4925.4096     -8420.9023     -51.178787     -3170.5883      6945.3126     -4889.887      -514.80571      62358.891      39.655138      39.655138      39.655138      1.1736283      5498.0583      6426.5738      5120.3075    
     14000   14000          300.24215      7343.9671      8075.9808      1401.6097      5082.5053     -3680.8956      988.28098      4873.1386     -8469.7439     -53.533686     -3056.4132      6928.7789     -4891.4033     -515.1551       62316.598      39.646171      39.646171      39.646171      1.1744248      6765.0534      6913.624       8353.2238    
     14100   14100          292.49521      8419.2794      8995.0426      1354.9917      4951.3648     -3596.3731      979.62349      4916.5857     -8391.9556     -52.826914     -3095.7899      6937.9165     -4889.9263     -515.93656      62222.211      39.626144      39.626144      39.626144      1.1762063      8970.6968      8523.1389      7764.0024    
     14200   14200          291.98439      6951.2899      7549.927       1249.2019      4942.7177     -3693.5159      992.42694      4794.4901     -8349.646      -52.715949     -3117.7007      6932.5699     -4892.9402     -516.52637      62151.161      39.611055      39.611055      39.611055      1.177551       6110.5368      7359.3493      7383.9836    
     14300   14300          296.04661      7301.2809      7938.8358      1326.6549      5011.483      -3684.8281      985.83081      4820.1258     -8416.1129     -53.04095      -3075.3738      6942.8777     -4889.1348     -516.97788      62096.881      39.599521      39.599521      39.599521      1.1785803      6371.3153      7576.7497      7955.7776    
     14400   14400          298.10439      7273.1458      8025.5212      1437.7787      5046.3172     -3608.5384      985.01594      4950.8305     -8479.3394     -48.679359     -3074.859       6948.0011     -4889.5082     -516.89617      62106.696      39.601607      39.601607      39.601607      1.178394       7149.9552      7548.4087      7121.0736    
     14500   14500          298.79809      6930.724       7750.9577      1465.5185      5058.0602     -3592.5417      1005.2766      4914.486      -8424.6563     -51.901333     -3088.9602      6943.2271     -4890.0136     -516.25065      62184.355      39.618106      39.618106      39.618106      1.1769224      6742.773       5767.0547      8282.3444    
     14600   14600          304.91572      6404.6155      7273.2637      1457.1082      5161.6196     -3704.5113      997.03796      4916.5555     -8395.0414     -51.364881     -3226.5776      6942.7067     -4887.8275     -515.55463      62268.306      39.635927      39.635927      39.635927      1.1753356      5209.1534      7258.2601      6746.4331    
     14700   14700          297.13253      7890.6363      8544.9244      1403.1056      5029.8655     -3626.7598      989.06215      4962.9405     -8467.8313     -51.841892     -3111.8928      6942.4745     -4889.6709     -517.27422      62061.306      39.591957      39.591957      39.591957      1.1792559      7344.9164      9301.3408      7025.6517    
     14800   14800          296.40867      6046.7564      6760.8162      1298.5945      5017.612      -3719.0176      992.03366      4832.9578     -8402.2998     -50.562346     -3141.5867      6937.8645     -4887.4248     -518.28755      61939.967      39.566137      39.566137      39.566137      1.181566       5272.1924      7260.5043      5607.5723    
     14900   14900          300.88325      7029.7879      7672.4903      1329.7184      5093.3578     -3763.6394      997.10859      4789.1148     -8435.4509     -53.922244     -3106.4442      6938.1706     -4892.216      -518.89653      61867.274      39.550653      39.550653      39.550653      1.1829543      6181.9499      7323.2937      7584.1202    
     15000   15000          301.09724      6747.76        7509.2819      1406.5222      5096.9803     -3690.4581      954.55698      4850.8075     -8372.284      -52.616043     -3130.7654      6949.3953     -4889.5524     -517.66761      62014.144      39.581925      39.581925      39.581925      1.1801527      7828.1182      7102.898       5312.2638    
     15100   15100          302.15493      7054.0971      7822.6983      1429.127       5114.8848     -3685.7578      966.02273      4959.7648     -8455.8136     -52.341142     -3144.5321      6933.5821     -4892.4405     -516.55379      62147.862      39.610355      39.610355      39.610355      1.1776135      6865.023       6834.9594      7462.3089    
     15200   15200          301.05514      6429.7207      7243.7655      1398.3493      5096.2675     -3697.9183      998.77433      4912.345      -8439.259      -54.394406     -3162.5094      6936.311      -4889.1858     -514.98467      62337.221      39.650544      39.650544      39.650544      1.1740363      4325.1334      7905.6034      7058.4253    
     15300   15300          298.00926      7022.1436      7761.4207      1372.1672      5044.7069     -3672.5397      981.01831      4955.5429     -8497.9324     -52.500076     -3093.4866      6926.6429     -4891.8247     -514.56142      62388.497      39.661412      39.661412      39.661412      1.1730714      6418.567       6853.8989      7793.965     
     15400   15400          299.6357       6486.5135      7286.9123      1386.2735      5072.2393     -3685.9657      958.15268      4898.8307     -8407.8932     -52.821453     -3139.6169      6949.0414     -4891.6589     -514.67128      62375.18       39.65859       39.65859       39.65859       1.1733218      6964.9445      5769.3445      6725.2514    
     15500   15500          304.44916      7292.9218      8088.8052      1472.6075      5153.7215     -3681.114       974.85298      4942.8        -8467.1394     -52.107965     -3126.7761      6936.3908     -4889.1344     -516.0725       62205.821      39.622664      39.622664      39.622664      1.1765163      6647.1313      8384.2905      6847.3436    
     15600   15600          301.94257      7461.7873      8265.382       1521.052       5111.2899     -3590.2379      983.75716      4957.8245     -8442.3922     -50.795186     -3090.4406      6940.669      -4888.8606     -517.99037      61975.503      39.573703      39.573703      39.573703      1.1808885      7631.0456      7334.7626      7419.5538    
     15700   15700          299.90321      7394.4105      8118.9324      1439.4239      5076.7676     -3637.3438      1040.9622      4855.1613     -8423.7746     -53.14072      -3107.0156      6942.2175     -4891.7539     -518.2946       61939.124      39.565958      39.565958      39.565958      1.1815821      7860.0349      6469.0663      7854.1303    
     15800   15800          298.09418      7178.8827      7824.6709      1330.2572      5046.1442     -3715.8871      938.76784      4901.3485     -8436.0099     -49.795029     -3116.9874      6940.5839     -4893.7951     -517.52881      62030.775      39.585464      39.585464      39.585464      1.1798363      5335.5826      8625.5262      7575.5393    
     15900   15900          295.07592      7114.3026      7766.3165      1317.6641      4995.0512     -3677.3871      976.33703      4861.1545     -8424.242      -51.029167     -3089.2572      6938.361      -4888.7112     -516.5127       62152.807      39.611405      39.611405      39.611405      1.1775198      6106.7608      7411.827       7824.3199    
     16000   16000          298.90847      6437.1564      7203.0485      1349.625       5059.9286     -3710.3036      953.91008      4865.9579     -8396.2945     -53.596918     -3123.0745      6934.1062     -4891.3118     -514.87494      62350.508      39.65336       39.65336       39.65336       1.1737861      6246.0634      6425.3853      6640.0207    
     16100   16100          301.18712      6932.7607      7772.9148      1466.8414      5098.5016     -3631.6602      959.50759      5028.0213     -8529.2568     -50.265452     -3091.9582      6943.8463     -4891.5549     -514.71262      62370.169      39.657528      39.657528      39.657528      1.1734161      6261.4519      6903.926       7632.9042    
     16200   16200          306.50208      7239.6215      8158.6098      1573.4667      5188.4734     -3615.0067      999.02551      4941.1577     -8413.3545     -52.506859     -3138.142       6936.9905     -4888.177      -514.71673      62369.672      39.657423      39.657423      39.657423      1.1734254      7528.2749      6315.5961      7874.9937    
     16300   16300          302.16609      7053.5672      7943.5133      1542.6021      5115.0737     -3572.4716      1024.3869      4981.6545     -8435.819      -51.727613     -3136.7153      6936.7623     -4891.0133     -515.9227       62223.882      39.626499      39.626499      39.626499      1.1761748      7596.0966      6664.2465      6900.3586    
     16400   16400          304.88438      7832.9443      8560.5843      1471.4714      5161.089      -3689.6176      978.47601      4931.2723     -8485.7496     -53.14415      -3102.3362      6930.6782     -4888.8142     -517.30989      62057.027      39.591047      39.591047      39.591047      1.1793372      7250.8201      7592.0828      8655.93      
     16500   16500          298.41742      7198.0003      7895.6519      1375.4118      5051.6161     -3676.2043      945.03838      4960.472      -8445.7467     -51.122078     -3128.7392      6936.5833     -4892.69       -516.85165      62112.046      39.602744      39.602744      39.602744      1.1782925      7701.6847      8227.8956      5664.4207    
     16600   16600          300.11578      7386.9039      8048.5832      1348.5748      5080.366      -3731.7912      939.24707      4901.6377     -8400.3073     -50.061676     -3148.492       6921.7777     -4895.5928     -516.18424      62192.356      39.619805      39.619805      39.619805      1.176771       8062.9554      7101.4743      6996.2819    
     16700   16700          298.96281      6968.5827      7706.0522      1383.8452      5060.8486     -3677.0034      1011.4177      4928.3446     -8485.1066     -54.54732      -3108.9386      6923.8496     -4892.0228     -516.0519       62208.304      39.623192      39.623192      39.623192      1.1764693      6750.4529      6871.8991      7283.3962    
     16800   16800          303.86912      6452.7097      7368.1133      1513.2089      5143.9026     -3630.6937      999.01355      4910.7503     -8402.507      -52.065184     -3131.6941      6934.202      -4888.3932     -515.98842      62215.957      39.624816      39.624816      39.624816      1.1763246      3888.1489      8350.5563      7119.424     
     16900   16900          306.72616      8103.5337      8870.1927      1535.233       5192.2667     -3657.0337      991.49851      4922.5145     -8464.7203     -50.441581     -3097.7714      6932.6347     -4890.7482     -517.24267      62065.092      39.592762      39.592762      39.592762      1.1791839      8915.6815      6868.5917      8526.3279    
     17000   17000          302.39072      6789.6943      7575.7553      1432.9024      5118.8762     -3685.9739      974.99197      4916.9708     -8422.8558     -50.881919     -3148.6358      6937.2801     -4892.8432     -517.48497      62036.031      39.586582      39.586582      39.586582      1.1797363      5975.9491      7249.2995      7143.8343    
     17100   17100          296.71852      8168.019       8785.3796      1392.3964      5022.8572     -3630.4607      976.90006      4913.5003     -8425.075      -54.185302     -3084.5957      6935.1799     -4892.1849     -517.26686      62062.189      39.592145      39.592145      39.592145      1.1792391      9370.6425      8491.807       6641.6076    
     17200   17200          299.66364      6189.6219      6993.8356      1387.4433      5072.7121     -3685.2688      1039.9033      4864.5675     -8426.6258     -52.894287     -3143.5584      6926.4668     -4893.1278     -516.89017      62107.417      39.60176       39.60176       39.60176       1.1783803      5973.1518      5234.6636      7361.0503    
     17300   17300          296.72852      8318.522       8913.3248      1379.2924      5023.0263     -3643.7339      990.38965      4871.6425     -8416.3057     -54.301811     -3076.6726      6935.1279     -4893.6138     -516.93545      62101.977      39.600604      39.600604      39.600604      1.1784836      7745.8242      8548.1693      8661.5724    
     17400   17400          294.75397      7805.4415      8432.8208      1351.4618      4989.6011     -3638.1393      1002.5221      4912.3817     -8394.378      -52.246959     -3151.9217      6936.8158     -4891.3123     -516.05798      62207.571      39.623036      39.623036      39.623036      1.1764832      8727.7516      7063.0217      7625.5512    
     17500   17500          302.38311      5492.1119      6387.3548      1397.8451      5118.7475     -3720.9024      984.14394      4856.1995     -8405.7868     -52.608908     -3141.1139      6934.2033     -4895.9395     -515.34627      62293.482      39.641268      39.641268      39.641268      1.1748606      4675.7258      7315.8794      4484.7305    
     17600   17600          301.45408      8172.1906      8872.7109      1467.1765      5103.0208     -3635.8442      953.93058      5035.3546     -8473.0474     -54.683404     -3122.7036      6922.3293     -4897.0242     -516.65391      62135.819      39.607796      39.607796      39.607796      1.1778417      9039.4237      6997.6488      8479.4994    
     17700   17700          302.94659      6570.5649      7408.582       1468.155       5128.286      -3660.131       974.96936      4956.9382     -8429.1127     -48.210935     -3148.2012      6929.0405     -4895.5542     -517.84845      61992.488      39.577318      39.577318      39.577318      1.180565       7297.7191      5239.5403      7174.4352    
     17800   17800          295.26273      7151.5919      7793.4842      1337.7701      4998.2136     -3660.4435      976.47331      4880.487      -8433.21       -54.202925     -3075.8954      6939.3692     -4893.4648     -518.65201      61896.441      39.556868      39.556868      39.556868      1.1823969      7944.6201      6902.3519      6607.8037    
     17900   17900          297.16558      6827.5493      7461.2864      1289.0212      5030.425      -3741.4038      985.0022       4807.9358     -8382.4602     -51.767962     -3141.0281      6936.1369     -4895.2225     -517.89044      61987.461      39.576248      39.576248      39.576248      1.1806607      6692.7358      6796.9964      6992.9156    
     18000   18000          295.72033      7739.2713      8328.7509      1324.9386      5005.9597     -3681.0212      1016.044       4976.1275     -8479.4977     -54.802493     -3169.553       6926.1675     -4895.5069     -517.34852      62052.393      39.590062      39.590062      39.590062      1.1794253      7240.859       9619.6188      6357.3362    
     18100   18100          299.64106      6314.4409      7143.0062      1432.8003      5072.3299     -3639.5296      974.15714      4876.5608     -8413.0747     -51.568681     -3075.3389      6943.1504     -4893.4156     -517.72694      62007.037      39.580413      39.580413      39.580413      1.180288       6062.5394      7301.9894      5578.7939    
     18200   18200          300.28174      7986.6157      8734.807       1508.3135      5083.1754     -3574.8618      1002.9196      5023.9867     -8460.078      -58.872371     -3130.0899      6938.5421     -4891.2699     -517.43143      62042.45       39.587947      39.587947      39.587947      1.1796143      7787.8979      9112.0763      7059.8727    
     18300   18300          298.36101      6735.7515      7579.9444      1470.8958      5050.6612     -3579.7654      1012.4059      5020.3622     -8428.2759     -49.221821     -3176.2295      6934.0019     -4892.8082     -516.21438      62188.723      39.619034      39.619034      39.619034      1.1768397      6744.3688      7512.4864      5950.3992    
     18400   18400          302.06444      6793.312       7583.1969      1420.1959      5113.353      -3693.1571      938.38201      4954.4197     -8409.1206     -53.37328      -3169.8669      6938.6541     -4892.2522     -516.06803      62206.36       39.622779      39.622779      39.622779      1.1765061      6722.0087      6285.7722      7372.1551    
     18500   18500          300.04531      6774.682       7486.925       1355.4225      5079.1732     -3723.7507      1004.9037      4834.6953     -8415.9488     -50.77104      -3132.8951      6927.0013     -4890.736      -517.29662      62058.619      39.591386      39.591386      39.591386      1.1793069      7014.5248      6495.7083      6813.813     
     18600   18600          296.09583      7474.4868      8086.6018      1329.4416      5012.3162     -3682.8746      1007.9149      4854.6713     -8412.2957     -52.772459     -3132.1892      6941.7272     -4889.9307     -517.88675      61987.903      39.576342      39.576342      39.576342      1.1806523      8064.6697      6807.4029      7551.3879    
     18700   18700          293.39035      7553.7923      8217.1209      1395.4354      4966.5178     -3571.0823      991.86908      4823.1926     -8328.4956     -48.414655     -3052.7576      6935.4825     -4891.9587     -518.43102      61922.825      39.562487      39.562487      39.562487      1.1818931      7366.7716      7978.7125      7315.8926    
     18800   18800          299.70222      7726.8764      8523.6337      1540.5898      5073.3653     -3532.7755      1025.2463      4930.7133     -8378.7804     -51.907664     -3096.2215      6931.1843     -4893.0099     -518.05614      61967.635      39.572028      39.572028      39.572028      1.1810385      7829.1038      8080.9654      7270.56      
     18900   18900          301.55361      6773.1296      7632.5514      1497.2579      5104.7056     -3607.4477      975.69488      4912.9547     -8349.4128     -53.524186     -3127.0696      6927.6465     -4893.7372     -516.85851      62111.222      39.602569      39.602569      39.602569      1.1783082      6137.6848      8823.4385      5358.2655    
     19000   19000          297.07863      6257.0557      7071.6521      1398.0093      5028.9531     -3630.9438      1013.9524      4933.0631     -8361.4866     -53.773856     -3190.8122      6924.7497     -4896.6364     -516.32799      62175.041      39.616128      39.616128      39.616128      1.1770987      5806.5449      6410.9697      6553.6524    
     19100   19100          298.16863      7427.7439      8077.0762      1358.8502      5047.4047     -3688.5544      1000.2741      4851.557      -8415.5063     -48.000767     -3110.3786      6926.7875     -4893.2874     -517.63061      62018.577      39.582869      39.582869      39.582869      1.1800683      7158.3209      8532.4993      6592.4115    
     19200   19200          298.01467      7424.5711      8026.2209      1332.1853      5044.7983     -3712.613       920.91461      4924.0722     -8405.9591     -52.685898     -3136.1641      6930.9093     -4893.7001     -519.27927      61821.674      39.540934      39.540934      39.540934      1.1838269      8487.0392      6504.6475      7282.0265    
     19300   19300          297.00522      8043.9607      8541.6985      1303.0532      5027.7103     -3724.6571      941.25973      4874.3457     -8397.9056     -51.803624     -3117.0584      6923.02       -4896.5149     -520.27179      61703.736      39.515774      39.515774      39.515774      1.1860896      10046.702      7249.3981      6835.7816    
     19400   19400          294.01633      7725.8301      8263.3031      1292.1194      4977.1144     -3684.9949      1000.6049      4906.2373     -8414.0633     -52.318325     -3154.3278      6924.9412     -4896.0689     -518.86725      61870.765      39.551397      39.551397      39.551397      1.1828876      8228.5429      6884.1887      8064.7586    
     19500   19500          297.72804      6243.511       7031.6862      1362.0811      5039.9462     -3677.8651      1038.9226      4884.6817     -8409.4699     -49.817364     -3175.4764      6927.5734     -4894.2791     -515.57721      62265.58       39.635348      39.635348      39.635348      1.1753871      6448.403       6424.1293      5858.0007    
     19600   19600          296.24265      5893.1526      6800.4651      1432.0547      5014.8017     -3582.7469      1019.5036      4968.9969     -8414.3498     -52.492344     -3155.1512      6941.3267     -4890.5808     -513.94852      62462.898      39.677172      39.677172      39.677172      1.1716741      5980.2774      6012.9543      5686.226     
     19700   19700          302.5093       6791.2407      7654.3933      1473.6254      5120.8836     -3647.2582      1023.7622      4900.9172     -8430.562      -49.752598     -3137.8282      6937.9729     -4891.7677     -514.42767      62404.717      39.664849      39.664849      39.664849      1.1727665      7120.2438      6678.7202      6574.7581    
     19800   19800          303.33304      6701.9026      7490.1646      1403.0419      5134.8278     -3731.7859      1018.8662      4821.8063     -8433.2059     -51.397265     -3148.022       6948.2349     -4888.0682     -515.47035      62278.487      39.638087      39.638087      39.638087      1.1751435      6668.4508      5884.5325      7552.7244    
     19900   19900          296.77069      6819.9988      7491.4845      1315.2533      5023.7402     -3708.4869      1011.1758      4847.8118     -8416.1913     -48.806609     -3143.6251      6934.7421     -4893.5935     -516.98553      62095.962      39.599325      39.599325      39.599325      1.1785977      6783.8885      7060.6043      6615.5035    
     20000   20000          297.43527      8677.8088      9176.3013      1342.8947      5034.9903     -3692.0956      965.06035      4850.9475     -8438.9819     -50.558322     -3078.2753      6949.7649     -4890.0529     -518.65318      61896.302      39.556838      39.556838      39.556838      1.1823996      8891.2181      8887.9394      8254.269     
     20100   20100          298.08613      7295.3478      7968.2988      1370.9093      5046.008      -3675.0988      1009.0253      4848.0939     -8392.0715     -53.203553     -3134.1854      6938.8623     -4891.6199     -517.71591      62008.359      39.580695      39.580695      39.580695      1.1802628      7330.559       5728.1805      8827.3038    
     20200   20200          300.00287      6704.2617      7440.9594      1364.5498      5078.4547     -3713.9049      969.75068      4875.5307     -8423.2981     -52.517866     -3131.6257      6938.1616     -4889.9062     -516.56092      62147.004      39.610172      39.610172      39.610172      1.1776297      7224.7678      5775.8173      7112.2       
     20300   20300          302.16587      6630.4329      7363.2035      1349.0005      5115.0699     -3766.0695      1007.0528      4828.86       -8401.7083     -50.479414     -3205.4028      6943.7185     -4888.1102     -516.15654      62195.693      39.620514      39.620514      39.620514      1.1767078      6461.3115      5963.6742      7466.3128    
     20400   20400          294.5069       6627.0139      7318.2658      1320.6204      4985.4188     -3664.7983      963.36429      4995.609      -8518.8576     -51.247345     -3105.4287      6940.2127     -4888.4507     -517.31459      62056.463      39.590927      39.590927      39.590927      1.1793479      6393.7222      7022.1078      6465.2118    
     20500   20500          304.32491      7873.8512      8490.0088      1373.0122      5151.6183     -3778.6061      1004.3126      4885.439      -8485.195      -50.712761     -3175.1374      6932.0135     -4889.326      -517.97414      61977.445      39.574116      39.574116      39.574116      1.1808515      8599.5634      8431.5262      6590.4638    
     20600   20600          306.19501      6757.3994      7521.3732      1413.3732      5183.2754     -3769.9021      947.2572       4850.6072     -8417.8803     -54.59508      -3134.2946      6928.1974     -4889.194      -517.96235      61978.855      39.574416      39.574416      39.574416      1.1808246      7566.5232      6016.9479      6688.7271    
     20700   20700          303.03312      7080.2437      7767.5892      1370.5937      5129.7508     -3759.157       957.7326       4824.7032     -8393.4621     -49.440413     -3135.3282      6928.462      -4891.8241     -518.19092      61951.517      39.568597      39.568597      39.568597      1.1813457      6487.2512      6164.2356      8589.2444    
     20800   20800          298.98626      6620.7526      7246.9085      1274.2294      5061.2455     -3787.0162      989.63653      4765.8563     -8362.7555     -50.731493     -3167.6625      6930.6727     -4892.0322     -518.9862       61856.584      39.548375      39.548375      39.548375      1.1831588      7054.0402      6981.746       5826.4717    
     20900   20900          295.9771       7965.0354      8445.3315      1252.7395      5010.3064     -3757.5669      979.79167      4855.2104     -8393.214      -51.78447      -3188.728       6932.0769     -4890.9193     -518.46557      61918.699      39.561609      39.561609      39.561609      1.1819719      7532.2545      8473.87        7888.9818    
     21000   21000          300.77745      6224.4085      7018.6985      1388.7991      5091.5668     -3702.7676      976.20263      4870.2895     -8382.0156     -50.822186     -3157.7769      6932.0657     -4890.7108     -517.62482      62019.271      39.583016      39.583016      39.583016      1.1800551      6823.0616      5609.9527      6240.2112    
     21100   21100          301.18014      7401.3832      8141.1941      1445.3885      5098.3835     -3652.995       967.34376      4961.0435     -8466.2196     -51.910906     -3094.3552      6925.2863     -4894.1829     -517.52066      62031.753      39.585672      39.585672      39.585672      1.1798177      7906.0322      7721.8097      6576.3077    
     21200   21200          302.92992      7461.746       8173.4097      1409.1711      5128.0038     -3718.8328      1007.2531      4890.8414     -8423.3699     -50.439947     -3185.2162      6932.6335     -4890.5347     -516.46296      62158.792      39.612677      39.612677      39.612677      1.1774064      8619.4049      6283.8504      7481.9829    
[...]
    495200   495200         306.58491      6574.5021      7408.4817      1539.7087      5189.8755     -3650.1669      1022.8358      5026.1599     -8443.2207     -52.987252     -3248.7858      6935.0342     -4889.2029     -524.48514      61208.052      39.409675      39.409675      39.409675      1.195695       5262.4302      7293.6682      7167.4079    
    495300   495300         302.42929      8207.3072      8763.3571      1429.2624      5119.5292     -3690.2668      1004.7052      4931.5727     -8452.9671     -56.10918      -3185.366       6953.6673     -4885.7697     -523.92824      61273.112      39.423633      39.423633      39.423633      1.1944254      8629.6578      9162.5863      6829.6776    
    495400   495400         296.87777      6484.5127      7142.7293      1330.6208      5025.553      -3694.9322      1035.2151      5013.377      -8466.7923     -53.393253     -3287.6503      6951.1939     -4886.8823     -522.3496       61458.29       39.463308      39.463308      39.463308      1.1908265      6427.1637      6307.9507      6718.4238    
    495500   495500         299.12935      5838.7283      6558.6815      1317.7813      5063.6676     -3745.8864      1004.8782      4929.3482     -8486.3835     -53.414019     -3196.0944      6944.4248     -4888.6457     -521.5909       61547.687      39.482433      39.482433      39.482433      1.1890968      5167.6052      6562.764       5785.8158    
    495600   495600         294.44132      8600.5753      9066.038       1349.9494      4984.3086     -3634.3592      997.41963      4917.7362     -8453.7576     -52.652935     -3126.2316      6969.8517     -4886.7246     -521.8527       61516.81       39.47583       39.47583       39.47583       1.1896937      8005.3126      9258.2777      8538.1356    
    495700   495700         303.73288      5217.6008      6137.5669      1454.0916      5141.5963     -3687.5047      1041.6312      4991.5188     -8429.9153     -53.685373     -3289.287       6942.3175     -4890.0846     -521.57918      61549.07       39.482729      39.482729      39.482729      1.1890701      5737.931       5191.3332      4723.5382    
    495800   495800         308.02585      7233.5016      7985.3235      1509.9068      5214.2679     -3704.3611      995.33878      4925.7486     -8461.3819     -52.758243     -3185.1367      6960.0648     -4886.2365     -522.99615      61382.314      39.44704       39.44704       39.44704       1.1923004      6944.2666      7757.3387      6998.8993    
    495900   495900         298.88669      7392.0797      7966.8138      1353.7599      5059.5599     -3705.8         1001.7233      4920.7243     -8408.1963     -53.69783      -3228.7787      6953.1469     -4890.7217     -523.33793      61342.226      39.438451      39.438451      39.438451      1.1930796      8151.8565      8408.5065      5615.8762    
    496000   496000         301.06439      6426.8541      7039.355       1289.2388      5096.4241     -3807.1853      988.44714      4879.3877     -8477.1418     -52.917992     -3213.9123      6954.8007     -4885.8489     -523.28641      61348.266      39.439745      39.439745      39.439745      1.1929622      5393.6516      6819.5087      7067.4019    
    496100   496100         300.74906      6622.3978      7215.1365      1283.2737      5091.0862     -3807.8126      969.38954      4957.9798     -8455.6525     -53.460412     -3283.9073      6948.8636     -4891.0253     -522.68712      61418.605      39.454812      39.454812      39.454812      1.1915959      6671.8338      7337.7133      5857.6464    
    496200   496200         299.95868      6862.2497      7477.2356      1326.7279      5077.7066     -3750.9787      968.21511      4960.3693     -8462.5247     -54.185678     -3227.1109      6953.2998     -4889.0416     -522.36393      61456.604      39.462948      39.462948      39.462948      1.1908592      6620.7503      6306.0103      7659.9885    
    496300   496300         299.91384      7478.7728      8146.3508      1440.8112      5076.9475     -3636.1363      1012.5815      4904.4986     -8405.9129     -53.500525     -3167.0759      6961.0426     -4887.7697     -522.1728       61479.1        39.467762      39.467762      39.467762      1.1904234      7595.7818      7021.5976      7818.9388    
    496400   496400         305.19097      8419.8468      9030.6891      1478.9288      5166.2789     -3687.3501      975.86323      5010.9473     -8481.4759     -56.029834     -3200.3813      6951.0554     -4887.329      -522.00376      61499.009      39.472022      39.472022      39.472022      1.190038       8890.7114      7643.3137      8725.5152    
    496500   496500         299.73786      7546.6761      8196.8278      1414.4639      5073.9687     -3659.5048      991.46587      4922.9407     -8415.6239     -57.132252     -3163.2683      6949.6486     -4887.5356     -520.94546      61623.944      39.498733      39.498733      39.498733      1.1876254      7402.7857      7760.8722      7476.3703    
    496600   496600         300.72258      6235.2257      6964.0785      1350.8257      5090.638      -3739.8123      975.4802       4969.1576     -8436.5768     -53.411109     -3257.1547      6949.3138     -4886.6213     -520.0621       61728.616      39.521084      39.521084      39.521084      1.1856115      7459.8371      5011.2365      6234.6034    
    496700   496700         300.41073      7092.1352      7723.5622      1352.2156      5085.3588     -3733.1433      931.06483      4968.9905     -8424.128      -54.380165     -3218.1055      6954.003      -4890.5879     -521.1508       61599.663      39.493544      39.493544      39.493544      1.1880935      7193.6373      7273.4181      6809.3503    
    496800   496800         300.08456      7553.7088      8123.8817      1356.6276      5079.8375     -3723.2099      977.54616      5013.2767     -8512.1496     -54.992592     -3210.4485      6953.0548     -4889.4969     -522.59516      61429.412      39.457126      39.457126      39.457126      1.1913863      6081.1432      7607.5493      8972.434     
    496900   496900         298.16244      7330.0215      7849.3361      1289.0648      5047.2999     -3758.2351      956.46861      4813.4062     -8355.6262     -49.52163      -3203.1263      6967.9456     -4887.7815     -523.1197       61367.816      39.443934      39.443934      39.443934      1.1925821      7911.261       7641.4807      6437.3227    
    497000   497000         297.19312      6073.3037      6648.0782      1210.92        5030.8911     -3819.9711      976.06892      4894.2489     -8430.8186     -55.632        -3261.8208      6946.7557     -4888.7731     -522.96264      61386.247      39.447882      39.447882      39.447882      1.192224       5484.0523      5847.2164      6888.6424    
    497100   497100         293.7554       7298.5437      7740.6266      1223.5238      4972.6973     -3749.1735      971.28537      4913.0034     -8394.7612     -50.058221     -3249.5685      6952.612      -4891.6863     -524.32345      61226.927      39.413726      39.413726      39.413726      1.1953263      8180.1231      7616.4581      6099.05      
    497200   497200         298.88744      7900.3153      8421.0927      1388.0827      5059.5726     -3671.4899      989.60784      4908.1678     -8399.5158     -52.217995     -3176.9541      6948.0093     -4888.5869     -525.92138      61040.899      39.373768      39.373768      39.373768      1.1989692      7037.4288      8263.9624      8399.5548    
    497300   497300         308.51145      6560.9702      7283.1716      1428.9762      5222.4881     -3793.5119      948.99025      4896.4875     -8396.8458     -52.525096     -3246.3849      6944.8335     -4888.0673     -524.70896      61181.942      39.40407       39.40407       39.40407       1.1962052      7396.9162      5271.9662      7014.0282    
    497400   497400         302.43891      8905.2635      9343.3957      1375.6233      5119.6919     -3744.0686      967.94684      4936.3854     -8446.2625     -52.590013     -3211.6021      6949.5707     -4887.5169     -523.27199      61349.956      39.440107      39.440107      39.440107      1.1929293      8808.1332      9729.166       8178.4913    
    497500   497500         297.2952       5342.3776      6080.7091      1281.1924      5032.6191     -3751.4267      988.90363      4962.0142     -8406.5327     -53.747252     -3313.668       6960.4876     -4888.8841     -521.14036      61600.897      39.493808      39.493808      39.493808      1.1880697      4620.4098      4393.5171      7013.2059    
    497600   497600         295.57692      6631.5658      7139.1846      1191.0412      5003.5321     -3812.4909      979.21267      4861.3384     -8438.438      -55.521294     -3230.6371      6958.4682     -4886.9138     -521.9781       61502.031      39.472668      39.472668      39.472668      1.1899796      6790.2295      7390.4249      5714.043     
    497700   497700         292.53272      7490.3094      7883.7176      1176.6724      4951.9998     -3775.3274      998.7574       4852.6843     -8438.1517     -49.255964     -3210.8793      6959.3905     -4887.8726     -522.86089      61398.193      39.450441      39.450441      39.450441      1.1919921      6375.5571      9580.0034      6515.3677    
    497800   497800         300.15774      7000.7367      7602.5946      1337.338       5081.0763     -3743.7382      998.38779      4826.7965     -8347.5703     -52.171935     -3227.0632      6950.1322     -4892.2493     -523.14552      61364.787      39.443285      39.443285      39.443285      1.192641       6889.2672      6340.3529      7772.59      
    497900   497900         304.07365      6828.7124      7500.3061      1399.6434      5147.3649     -3747.7215      973.09488      4948.8448     -8423.9209     -53.56441      -3253.3403      6947.2889     -4886.1244     -524.05811      61257.928      39.420376      39.420376      39.420376      1.1947214      7569.1493      6482.553       6434.4349    
    498000   498000         299.26341      7720.5896      8293.1263      1399.0893      5065.9371     -3666.8477      1011.9313      4898.5463     -8404.8939     -55.013132     -3183.135       6949.2509     -4883.5342     -524.31767      61227.602      39.41387       39.41387       39.41387       1.1953132      9203.0523      7198.0598      6760.6567    
    498100   498100         297.32974      7287.326       7871.9641      1352.0523      5033.2039     -3681.1517      997.91807      4955.486      -8444.3134     -54.937598     -3214.6167      6962.7128     -4883.4009     -523.29202      61347.607      39.439604      39.439604      39.439604      1.192975       7914.2842      6595.7331      7351.9608    
    498200   498200         295.44463      5612.7142      6336.0731      1300.2528      5001.2927     -3701.0399      999.09661      4959.0475     -8412.8865     -53.374955     -3274.2302      6967.3295     -4886.0219     -521.81954      61520.719      39.476666      39.476666      39.476666      1.1896181      6213.4852      4688.2579      5936.3996    
    498300   498300         296.29073      7339.5529      7861.4692      1270.6106      5015.6155     -3745.0049      978.64816      5012.5189     -8502.1972     -53.205877     -3255.5663      6962.9614     -4888.164      -521.36904      61573.878      39.488033      39.488033      39.488033      1.188591       7745.707       7668.5975      6604.3541    
    498400   498400         299.1516       6044.4735      6775.2362      1345.4591      5064.0443     -3718.5852      1007.0291      4951.2219     -8426.6942     -55.427971     -3252.4833      6945.8125     -4888.0433     -521.18764      61595.309      39.492614      39.492614      39.492614      1.1881775      7552.0343      4795.8193      5785.5668    
    498500   498500         302.07499      6655.8126      7423.2612      1452.5742      5113.5316     -3660.9574      995.4917       4960.2964     -8403.8119     -56.798908     -3217.8572      6947.8095     -4886.0871     -521.90856      61510.227      39.474422      39.474422      39.474422      1.189821       5696.0471      8208.7999      6062.5908    
    498600   498600         303.8963       7575.6865      8266.1045      1488.0642      5144.3628     -3656.2986      1014.4677      4978.6973     -8448.1507     -56.436817     -3202.5919      6945.4548     -4887.739      -523.28163      61348.826      39.439865      39.439865      39.439865      1.1929513      6649.1321      7323.768       8754.1595    
    498700   498700         302.01898      6476.3696      7148.2073      1358.3823      5112.5835     -3754.2011      987.89151      4926.5203     -8415.4863     -53.080617     -3286.1845      6972.5333     -4886.3949     -523.70151      61299.639      39.429322      39.429322      39.429322      1.1939085      5266.23        6956.0199      7206.8588    
    498800   498800         297.10868      7441.9424      7953.7818      1305.2134      5029.4618     -3724.2485      977.84549      4931.5579     -8429.7744     -53.749083     -3224.4523      6960.5573     -4886.2333     -524.0537       61258.443      39.420487      39.420487      39.420487      1.1947114      6900.8864      7637.8406      7787.1       
    498900   498900         298.20351      8088.1025      8568.5436      1332.531       5047.995      -3715.4641      975.04175      4896.4478     -8432.9632     -52.248104     -3175.3226      6959.2976     -4885.7173     -523.31714      61344.663      39.438973      39.438973      39.438973      1.1930322      8730.2967      7962.0922      7571.9184    
    499000   499000         298.12056      5650.1483      6438.013       1374.1704      5046.591      -3672.4206      1010.4249      4944.3637     -8428.5696     -53.75102      -3217.4987      6957.0364     -4884.4263     -522.39291      61453.196      39.462218      39.462218      39.462218      1.1909252      5826.593       6545.7202      4578.1315    
    499100   499100         303.64091      7427.2162      8106.7319      1439.768       5140.0394     -3700.2715      1012.886       4927.7286     -8437.7859     -52.19702      -3224.2116      6962.0832     -4888.7748     -521.57359      61549.73       39.48287       39.48287       39.48287       1.1890574      6802.3718      8101.9945      7377.2824    
    499200   499200         303.43921      7101.446       7831.8468      1451.8928      5136.6251     -3684.7323      1039.0055      4922.8001     -8425.8435     -55.682566     -3235.5305      6958.076      -4887.5574     -521.13097      61602.007      39.494045      39.494045      39.494045      1.1880483      7364.5123      8019.7235      5920.1023    
    499300   499300         295.37375      5978.8496      6676.9957      1317.3986      5000.0928     -3682.6942      997.65637      4972.0765     -8413.0807     -51.098017     -3260.5017      6958.5922     -4886.3389     -522.27967      61466.52       39.46507       39.46507       39.46507       1.190667       7063.8076      5092.1289      5780.6124    
    499400   499400         295.17928      7067.7638      7597.5123      1281.3477      4996.8009     -3715.4532      995.28699      5020.4717     -8527.3297     -53.18767      -3218.4721      6952.5663     -4884.7888     -523.89737      61276.722      39.424408      39.424408      39.424408      1.194355       8029.5332      6231.9741      6941.7841    
    499500   499500         296.73406      8106.2319      8548.0781      1308.9897      5023.1201     -3714.1304      1012.8511      4945.1803     -8413.9041     -52.268747     -3274.9445      6956.6302     -4887.6746     -524.2673       61233.484      39.415132      39.415132      39.415132      1.1951984      6180.9177      11300.295      6837.4829    
    499600   499600         302.61741      6737.1019      7437.9321      1420.2027      5122.7136     -3702.5109      987.47633      4964.9572     -8422.0934     -51.802761     -3244.2427      6949.2521     -4886.0576     -524.15302      61246.835      39.417997      39.417997      39.417997      1.1949378      6243.4957      6149.0688      7818.7413    
    499700   499700         302.69866      7442.8338      8118.0374      1459.1572      5124.089      -3664.9318      1002.4431      4969.1643     -8395.7862     -55.407652     -3251.2776      6951.3979     -4885.4656     -523.30484      61346.104      39.439282      39.439282      39.439282      1.1930042      7871.2921      8620.9018      5836.3076    
    499800   499800         305.03643      7740.6697      8349.2702      1417.4746      5163.6628     -3746.1882      988.80017      4963.5185     -8441.0803     -54.814818     -3264.9309      6946.0306     -4883.7113     -522.81787      61403.245      39.451523      39.451523      39.451523      1.191894       7157.6023      8483.5112      7580.8956    
    499900   499900         300.98985      5666.2548      6441.0422      1365.1134      5095.1623     -3730.0489      1019.1387      4955.8995     -8484.2665     -50.389414     -3231.5423      6944.2898     -4883.1788     -522.63467      61424.769      39.456132      39.456132      39.456132      1.1914764      5076.6138      5661.3226      6260.8279    
    500000   500000         297.68692      7363.3634      7927.1304      1340.9094      5039.2502     -3698.3408      1025.2121      4981.4921     -8434.0255     -55.27852      -3287.053       6959.5818     -4888.2699     -523.42875      61331.583      39.436169      39.436169      39.436169      1.1932867      6037.9415      8670.1103      7382.0386    
Loop time of 2216.53 on 1 procs for 500000 steps with 7020 atoms

Performance: 19.490 ns/day, 1.231 hours/ns, 225.578 timesteps/s, 1.584 Matom-step/s
100.0% CPU use with 1 MPI tasks x 1 OpenMP threads

MPI task timing breakdown:
Section |  min time  |  avg time  |  max time  |%varavg| %total
---------------------------------------------------------------
Pair    | 1120.8     | 1120.8     | 1120.8     |   0.0 | 50.57
Bond    | 181.98     | 181.98     | 181.98     |   0.0 |  8.21
Kspace  | 421.8      | 421.8      | 421.8      |   0.0 | 19.03
Neigh   | 154.56     | 154.56     | 154.56     |   0.0 |  6.97
Comm    | 14.389     | 14.389     | 14.389     |   0.0 |  0.65
Output  | 7.9019     | 7.9019     | 7.9019     |   0.0 |  0.36
Modify  | 253.73     | 253.73     | 253.73     |   0.0 | 11.45
Other   |            | 61.36      |            |       |  2.77

Nlocal:           7020 ave        7020 max        7020 min
Histogram: 1 0 0 0 0 0 0 0 0 0
Nghost:          20912 ave       20912 max       20912 min
Histogram: 1 0 0 0 0 0 0 0 0 0
Neighs:              0 ave           0 max           0 min
Histogram: 1 0 0 0 0 0 0 0 0 0
FullNghs:  5.10563e+06 ave 5.10563e+06 max 5.10563e+06 min
Histogram: 1 0 0 0 0 0 0 0 0 0

Total # of neighbors = 5105634
Ave neighs/atom = 727.29829
Ave special neighs/atom = 5.7008547
Neighbor list builds = 14212
Dangerous builds = 0

# --- Cleanup ---
unfix npt_fix
unfix shake_fix
undump dump_npt

# --- Write Output ---
write_dump all custom /home/arz2/PolyJarvis/data/PEG2/lammps/mechanical/bm_series/bm_P7000/bm_P7000_last.dump id type mol x y z xu yu zu vx vy vz modify sort id
write_data /home/arz2/PolyJarvis/data/PEG2/lammps/mechanical/bm_series/bm_P7000/bm_P7000_out.data
System init for write_data ...
PPPM Kokkos initialization ...
  using 12-bit tables for long-range coulomb
  G vector (1/distance) = 0.30630519
  grid = 30 30 30
  stencil order = 5
  estimated absolute RMS force accuracy = 0.00027092082
  estimated relative force accuracy = 8.1587001e-07
  using double precision cuFFT
  3d grid and FFT values/proc = 50653 27000
Generated 10 of 10 mixed pair_coeff terms from sixthpower/sixthpower mixing rule

print "STAGE COMPLETE: NPT T=300.0->300.0K P=7000.0->7000.0atm steps=500000"
STAGE COMPLETE: NPT T=300.0->300.0K P=7000.0->7000.0atm steps=500000
quit
