LAMMPS data file via write_data, version 22 Jul 2025, timestep = 1000000, units = real

10816 atoms
8 atom types
11608 bonds
10 bond types
19600 angles
16 angle types
29184 dihedrals
19 dihedral types
8000 impropers
11 improper types

5.00662061409799 56.88602117589141 xlo xhi
5.00662061409799 56.88602117589141 ylo yhi
5.00662061409799 56.88602117589141 zlo zhi

Masses

1 12.01115
2 12.01115
3 1.00797
4 1.00797
5 15.9994
6 15.9994
7 15.9994
8 32.064

Pair Coeffs # lj/class2/coul/long/kk

1 0.054 4.01
2 0.064 4.01
3 0.02 2.995
4 0.013 1.098
5 0.06 3.535
6 0.24 3.535
7 0.24 3.535
8 0.25 4.027

Bond Coeffs # class2/kk

1 1.53 299.67 -501.77 679.81
2 1.501 321.902 -521.821 572.163
3 1.101 345 -691.89 844.6
4 1.417 470.836 -627.618 1327.63
5 1.0982 372.825 -803.453 894.317
6 1.3768 428.88 -738.235 1114.97
7 1.3768 428.88 -738.235 1114.97
8 1.72 239.802 0 0
9 0.965 532.506 -1282.9 2004.77
10 1.4308 743.76 0 0

Angle Coeffs # class2/kk

1 112.67 39.516 -7.443 -9.5583
2 108.4 43.9594 -8.3924 -9.3379
3 110.77 41.453 -10.604 5.129
4 120.05 44.7148 -22.7352 0
5 111 44.3234 -9.4454 0
6 118.9 61.0226 -34.9931 0
7 117.94 35.1558 -12.4682 0
8 123.42 73.6781 -21.6787 0
9 123.42 73.6781 -21.6787 0
10 120 60 0 0
11 109.5 60 0 0
12 108.19 53.125 -8.5016 0
13 102 58 0 0
14 113.1 42.3 0 0
15 107.66 39.641 -12.921 -2.4318
16 119.329 135 0 0

BondBond Coeffs

1 0 1.53 1.53
2 0 1.53 1.501
3 3.3872 1.53 1.101
4 12.0676 1.501 1.417
5 0 1.501 1.501
6 68.2856 1.417 1.417
7 1.0795 1.417 1.0982
8 48.4754 1.417 1.3768
9 48.4754 1.417 1.3768
10 0 1.417 1.72
11 0 1.3768 1.3768
12 20.6577 1.3768 0.965
13 0 1.72 1.72
14 0 1.72 1.4308
15 5.3316 1.101 1.101
16 40 1.4308 1.4308

BondAngle Coeffs

1 8.016 8.016 1.53 1.53
2 0 0 1.53 1.501
3 20.754 11.421 1.53 1.101
4 47.0579 31.0771 1.501 1.417
5 0 0 1.501 1.501
6 28.8708 28.8708 1.417 1.417
7 20.0033 24.2183 1.417 1.0982
8 58.479 107.681 1.417 1.3768
9 58.479 107.681 1.417 1.3768
10 0 0 1.417 1.72
11 0 0 1.3768 1.3768
12 53.8614 23.9224 1.3768 0.965
13 0 0 1.72 1.72
14 0 0 1.72 1.4308
15 18.103 18.103 1.101 1.101
16 0 0 1.4308 1.4308

Dihedral Coeffs # class2/kk

1 0 0 0.0316 0 -0.1681 0
2 -0.2802 0 -0.0678 0 -0.0122 0
3 0 0 4.4072 0 0 0
4 0 0 1.559 0 0 0
5 -0.0228 0 0.028 0 -0.1863 0
6 -0.2802 0 -0.0678 0 -0.0122 0
7 8.3667 0 1.1932 0 0 0
8 0 0 3.9661 0 0 0
9 0 0 4.8498 0 0 0
10 0 0 4.8498 0 0 0
11 0 0 3 0 0 0
12 0 0 1.8 0 0 0
13 -0.69 0 0.5097 0 0.0095 0
14 0 0 1.5 0 0 0
15 0 0 1.5 0 0 0
16 0 0 1.8769 0 0 0
17 0 0 1.7234 0 0 0
18 0 0 1.7234 0 0 0
19 0 0 3 0 0 0

AngleAngleTorsion Coeffs

1 -16.164 112.67 110.77
2 0 108.4 120.05
3 -14.4097 120.05 118.9
4 4.4444 120.05 117.94
5 0 108.4 110.77
6 0 111 120.05
7 0 118.9 118.9
8 -4.8141 118.9 117.94
9 -21.0247 118.9 123.42
10 -21.0247 118.9 123.42
11 0 118.9 120
12 0 123.42 109.5
13 -4.6072 123.42 108.19
14 0 120 102
15 0 120 113.1
16 0.3598 117.94 117.94
17 4.2296 117.94 123.42
18 4.2296 117.94 123.42
19 0 117.94 120

EndBondTorsion Coeffs

1 0.2486 0.2422 -0.0925 0.0814 0.0591 0.2219 1.53 1.101
2 0 0 0 0 0 0 1.53 1.417
3 0 0.2421 0 0 -0.6918 0 1.501 1.417
4 0 -1.797 0 0 -0.4879 0 1.501 1.0982
5 0 0 0 0 0 0 1.501 1.101
6 0 0 0 0 0 0 1.501 1.417
7 -0.1185 6.3204 0 -0.1185 6.3204 0 1.417 1.417
8 0 -6.8958 0 0 -0.4669 0 1.417 1.0982
9 0 0.2655 0 0 4.8905 0 1.417 1.3768
10 0 0.2655 0 0 4.8905 0 1.417 1.3768
11 0 0 0 0 0 0 1.417 1.72
12 0 0 0 0 0 0 1.417 1.3768
13 0.9 -1.3456 1.19 3.4132 0.5873 -0.1323 1.417 0.965
14 0 0 0 0 0 0 1.417 1.72
15 0 0 0 0 0 0 1.417 1.4308
16 0 -0.689 0 0 -0.689 0 1.0982 1.0982
17 0 -1.5867 0 0 4.2641 0 1.0982 1.3768
18 0 -1.5867 0 0 4.2641 0 1.0982 1.3768
19 0 0 0 0 0 0 1.0982 1.72

MiddleBondTorsion Coeffs

1 -14.879 -3.6581 -0.3138 1.53
2 0 0 0 1.501
3 0 9.1792 0 1.417
4 0 3.9421 0 1.417
5 0 0 0 1.53
6 0 0 0 1.501
7 27.5989 -2.312 0 1.417
8 0 -1.1521 0 1.417
9 0 4.8255 0 1.417
10 0 4.8255 0 1.417
11 0 0 0 1.417
12 0 0 0 1.3768
13 1.158 3.2697 3.5132 1.3768
14 0 0 0 1.72
15 0 0 0 1.72
16 0 4.8228 0 1.417
17 0 5.5432 0 1.417
18 0 5.5432 0 1.417
19 0 0 0 1.417

BondBond13 Coeffs

1 0 1.53 1.101
2 0 1.53 1.417
3 2.5085 1.501 1.417
4 0.8743 1.501 1.0982
5 0 1.501 1.101
6 0 1.501 1.417
7 53 1.417 1.417
8 -6.2741 1.417 1.0982
9 -2.2436 1.417 1.3768
10 -2.2436 1.417 1.3768
11 0 1.417 1.72
12 0 1.417 1.3768
13 1.159 1.417 0.965
14 0 1.417 1.72
15 0 1.417 1.4308
16 -1.7077 1.0982 1.0982
17 2.0517 1.0982 1.3768
18 2.0517 1.0982 1.3768
19 0 1.0982 1.72

AngleTorsion Coeffs

1 -0.2454 0 -0.1136 0.3113 0.4516 -0.1988 112.67 110.77
2 0 0 0 0 0 0 108.4 120.05
3 0 -4.4683 0 0 3.8987 0 120.05 118.9
4 0 -0.1242 0 0 3.4601 0 120.05 117.94
5 0 0 0 0 0 0 108.4 110.77
6 0 0 0 0 0 0 111 120.05
7 1.9767 1.0239 0 1.9767 1.0239 0 118.9 118.9
8 0 2.5014 0 0 2.7147 0 118.9 117.94
9 0 10.0155 0 0 1.7404 0 118.9 123.42
10 0 10.0155 0 0 1.7404 0 118.9 123.42
11 0 0 0 0 0 0 118.9 120
12 0 0 0 0 0 0 123.42 109.5
13 -5.136 -1.0122 0 4.6852 0.023 -0.598 123.42 108.19
14 0 0 0 0 0 0 120 102
15 0 0 0 0 0 0 120 113.1
16 0 2.4501 0 0 2.4501 0 117.94 117.94
17 0 1.8729 0 0 2.5706 0 117.94 123.42
18 0 1.8729 0 0 2.5706 0 117.94 123.42
19 0 0 0 0 0 0 117.94 120

Improper Coeffs # class2/kk

1 0 0
2 0 0
3 0 0
4 0 0
5 7.8153 0
6 4.8912 0
7 13.0421 0
8 13.0421 0
9 0 0
10 0 0
11 0 0

AngleAngle Coeffs

1 0 0 0 112.67 108.4 108.4
2 0 0 0 108.4 108.4 111
3 0.2738 -0.4825 0.2738 110.77 110.77 107.66
4 -0.3157 -0.3157 -0.3157 107.66 107.66 107.66
5 0 0 0 120.05 120.05 118.9
6 0 0 0 118.9 117.94 117.94
7 0 0 0 118.9 123.42 123.42
8 0 0 0 118.9 123.42 123.42
9 0 0 0 118.9 120 120
10 0 0 0 102 113.1 113.1
11 0 0 0 113.1 113.1 119.329

Atoms # full/kk

7000 6 2 0.0265 5.750913931054928 5.692541054083696 6.137924982305246 1 1 1
7021 6 2 -0.1268 6.791089050273249 6.258190250795603 5.4212232851078825 1 1 1
7022 6 3 0.1268 7.879830211595031 5.86063917603013 5.677267123281831 1 1 1
10106 8 3 0.1268 10.548714495458839 10.409598710081394 9.02351106022202 0 1 0
325 1 6 -0.053 7.661829271211128 5.932163672269363 9.737089935333154 0 0 1
310 1 3 0.1268 8.006808381451744 8.009255356877107 8.155621099993109 0 0 1
308 1 2 0.0265 8.676135561823957 5.98037276134596 8.791337106030127 0 0 1
309 1 2 -0.1268 8.694489864077726 7.145119526126397 7.995905775712856 0 0 1
311 1 2 -0.1268 9.646654329794512 7.321050272107378 7.050894148340266 0 0 1
306 1 2 -0.1268 9.684319007916663 5.058590029876876 8.640599333627469 0 0 1
304 1 2 -0.1268 10.75472326606939 5.320861864469314 7.769413606319643 0 0 1
303 1 2 0.0732 10.590755076639464 6.3107456489956455 6.825539583625991 0 0 1
312 1 3 0.1268 9.576976396564355 8.261037026931088 6.406617313991584 0 0 1
10078 8 2 -0.1268 13.73426645080375 10.07896993134618 7.853542917919692 0 1 0
10104 8 3 0.1268 14.583335545318723 10.685465467686353 10.307879596206977 0 1 0
302 1 5 -0.1143 12.109582191470093 5.270367748433743 5.026351805975849 0 0 1
10105 8 2 -0.1268 11.410765627642041 10.41126419598882 8.405036885206437 0 1 0
10080 8 2 0.0265 12.671535372248545 9.890550220721689 8.773902758626813 0 1 0
10079 8 3 0.1268 14.606565563765193 9.50852653186314 8.103341081115007 0 1 0
5225 4 3 0.1268 14.781182102781539 5.627490802963596 6.843033417640683 0 1 1
10081 8 6 -0.053 12.676780721415755 8.760972879305744 9.716278636699041 0 1 0
6087 5 5 -0.1143 14.806870282497718 6.8358881064383255 8.9690148133254 1 0 0
5222 4 5 -0.1143 15.165466700921794 7.757383136435385 5.124537658914003 0 1 1
6086 5 8 0.0822 16.046130923212935 6.919151083992846 9.687744708754034 1 0 0
300 1 8 0.0822 11.399912409639 6.4625891273774885 5.33411520744434 0 0 1
301 1 5 -0.1143 12.117067184873907 7.743747135186705 5.353644191285578 0 0 1
407 1 2 0.0732 19.42070340909798 10.661531764777479 6.725897091805291 0 0 1
402 1 2 0.0265 18.47669544679249 10.254600478177249 9.52204654967712 0 0 1
421 1 2 -0.1268 19.96348184549791 9.664281763801991 7.619229916890615 0 0 1
6088 5 5 -0.1143 16.564127297111078 8.217453449204207 10.115227961732838 1 0 0
423 1 2 -0.1268 19.4421617594423 9.424897849414574 8.912814023522275 0 0 1
422 1 3 0.1268 20.77420662331552 8.985678493347525 7.269081651690583 0 0 1
6097 5 2 -0.1268 18.04000226474806 5.228158852704735 8.960274415242539 1 0 0
6112 5 2 0.0265 21.88537788404288 5.219926109303222 7.060158771500954 1 0 0
6094 5 2 0.0265 19.513365375685225 5.301366621240435 7.131159143414568 1 0 0
6113 5 2 -0.1268 21.996552730981026 6.251579846906569 7.9585210037570455 1 0 0
424 1 3 0.1268 19.65427188634844 8.452350142415193 9.32784539214405 0 0 1
6114 5 3 0.1268 21.13457674468433 6.735145471153425 8.495220655314249 1 0 0
6089 5 2 0.0732 17.225837040298245 6.320305914309559 8.619631551489796 1 0 0
6092 5 2 -0.1268 18.68871562977707 6.381259208865804 6.677330582066363 1 0 0
6090 5 2 -0.1268 17.586964974872288 6.808514708736761 7.404470424887813 1 0 0
6091 5 3 0.1268 17.081479480909607 7.687079523076134 7.178472183971244 1 0 0
6093 5 3 0.1268 19.100203393271478 6.902562842733323 5.820245031204846 1 0 0
420 1 3 0.1268 22.871517655607846 10.754081610242615 6.384438216695437 0 0 1
9663 8 3 0.1268 28.0172062142114 10.741130355495033 9.451297146806352 0 1 0
6120 5 3 0.053 25.296761503859827 7.883890128889156 10.037141145798032 1 0 0
6161 5 2 -0.1268 24.35416384542783 5.1412526082869565 6.938773915629921 1 0 0
6117 5 2 0 24.424776569494238 6.286349497499586 7.754766588155802 1 0 0
6123 5 1 -0.159 26.48890594316398 7.185418180122176 6.700364740926425 1 0 0
6124 5 3 0.053 26.993182667822328 6.432184100545436 6.268837359001826 1 0 0
6127 5 2 0 26.912998496578354 5.981438086418708 8.962242255243522 1 0 0
6125 5 3 0.053 25.739470651181154 7.502136432906337 5.912687001638327 1 0 0
6126 5 3 0.053 27.262452807602898 7.958809675751375 6.75908653090757 1 0 0
6118 5 1 0 25.860333538718983 6.87070442429377 8.182712331869869 1 0 0
6115 5 2 -0.1268 23.230351082972774 6.846229315726215 8.20763602687422 1 0 0
6116 5 3 0.1268 23.13714463898755 7.627164232802608 9.02320907511804 1 0 0
6122 5 3 0.053 26.72958564674897 8.382184967754737 9.007482008352316 1 0 0
6119 5 1 -0.159 25.677680526111104 8.135950416770084 8.94999749006955 1 0 0
6121 5 3 0.053 25.14476306305804 8.929941036808465 8.472020005260793 1 0 0
6128 5 2 -0.1268 28.21034876623518 6.338089655809318 9.151687832462713 1 0 0
9684 8 3 0.1268 32.796835347909706 8.773219331291273 10.128783392000283 0 1 0
6129 5 3 0.1268 28.62780093196703 7.144196873415979 8.586928178296235 1 0 0
2662 2 3 0.053 32.10617386654847 5.488788658354472 7.344108081661849 1 0 2
2656 2 1 0 32.00266002669683 7.320157303528244 5.899948672970839 1 0 2
2665 2 2 0 33.4288887907087 7.4188445419062194 5.474123412280952 1 0 2
9681 8 6 -0.053 30.19909141016055 9.534268675276145 9.731447288924528 0 1 0
6131 5 3 0.1268 30.220490409245738 5.835364861917876 9.731012290151918 1 0 0
2654 2 3 0.1268 31.59385242375562 10.007666425916455 5.722524758885642 1 0 2
2659 2 3 0.053 30.580979167246532 7.708460575323551 7.485128206372698 1 0 2
2660 2 3 0.053 31.792568442730687 8.958347819641883 7.380383653634143 1 0 2
2657 2 1 -0.159 31.645591562889916 7.9076501280929605 7.296000937592988 1 0 2
2658 2 3 0.053 32.186894985649644 7.44712996440377 8.193285606634992 1 0 2
2653 2 2 -0.1268 30.88144781109951 9.377170449772343 5.186002708899738 1 0 2
6130 5 2 -0.1268 29.079259755070044 5.448353561358956 9.800127614379678 1 0 0
2661 2 1 -0.159 31.61952393145551 5.799648291028231 6.347503099820014 1 0 2
2663 2 3 0.053 30.51952618774739 5.700458223370495 6.558727512678541 1 0 2
2664 2 3 0.053 31.954761551737068 5.087648137707042 5.682783049172335 1 0 2
2655 2 2 0 30.987786315908934 7.929013166628517 5.068002414456288 1 0 2
882 1 2 -0.1268 35.87071826072673 10.342755717011139 10.429262950406324 0 1 1
881 1 2 0 37.05405149507974 9.756372954916458 9.748152709245531 0 1 1
913 1 2 -0.1268 37.181873478555694 10.098049125956162 8.37790430379585 0 1 1
2667 2 3 0.1268 34.373463611751156 7.937424095381218 7.452472445787687 1 0 2
917 1 2 -0.1268 38.44286862696768 5.050169765588692 9.347528864510412 0 1 1
2666 2 2 -0.1268 34.482554396993045 7.568197468562471 6.441605460758455 1 0 2
868 1 3 0.1268 35.040160303088 5.017204339755892 9.460334409586853 0 1 1
870 1 3 0.1268 35.50290087025176 7.319733686745439 9.601677780461824 0 1 1
2668 2 2 -0.1268 35.78381997149077 7.269617134571143 6.007490785047949 1 0 2
2669 2 3 0.1268 36.60278805541735 7.440939406774153 6.727757989753014 1 0 2
869 1 2 -0.1268 36.3808243925519 6.6884394601929795 9.821008069758811 0 1 1
915 1 2 -0.1268 38.70037165737859 6.367434542598652 9.685486781046423 0 1 1
871 1 2 0 37.678326662267374 7.280228297831384 9.843048382306113 0 1 1
872 1 1 0 37.96699630065295 8.714970849314401 10.433374559635654 0 1 1
867 1 2 -0.1268 36.129106910187076 5.317463963396385 9.49592534342067 0 1 1
914 1 3 0.1268 37.81089664756505 9.389744051543444 7.951597126006575 0 1 1
2691 2 2 -0.1268 38.94368383197364 10.115246235402847 5.384945673088579 1 0 2
873 1 1 -0.159 39.40361510235196 9.166145192968582 10.101230576378752 0 1 1
2693 2 2 -0.1268 37.87132471822528 9.209410925718775 5.157910756498445 1 0 2
874 1 3 0.053 39.69157037633648 10.203033080375306 10.5506701270383 0 1 1
2679 2 5 -0.1143 41.63061062398872 10.00281585790417 7.676939376473365 1 0 2
916 1 3 0.1268 39.71920489477672 6.627179005415064 9.925393855818719 0 1 1
875 1 3 0.053 39.87685572161626 8.926181600721765 9.065388228247445 0 1 1
2677 2 2 0.0732 40.261306697865734 9.677651273410715 5.793804641778678 1 0 2
2675 2 2 -0.1268 40.5884266341194 8.33540320307502 5.588640325711662 1 0 2
2678 2 8 0.0822 41.515085174064914 10.662418061947822 6.444792878217939 1 0 2
5701 5 6 -0.053 44.45042462948543 7.26455262128572 5.6157180031624625 0 0 0
5725 5 2 -0.1268 43.246340233847604 5.132158577329092 5.406994300534267 0 0 0
2680 2 5 -0.1143 42.706511212014576 10.703684063777722 5.617458021925167 1 0 2
5698 5 2 -0.1268 43.662874089775805 5.89666537876919 7.579223537717486 0 0 0
5699 5 3 0.1268 43.840052182901395 6.796229895321924 8.191200001752735 0 0 0
2676 2 3 0.1268 41.601437035286914 8.003696376666106 5.9926927860065895 1 0 2
5700 5 2 0.0265 43.837524635382145 6.122312336460082 6.182220994000571 0 0 0
2673 2 2 -0.1268 39.617398953627855 7.47862737877053 5.064214904634087 1 0 2
2674 2 3 0.1268 39.84736826753652 6.375875757375792 5.110251032140965 1 0 2
5576 5 3 0.1268 48.04674538950353 10.334218840596995 8.84427055336432 0 0 0
5585 5 3 0.053 49.846170917558496 9.03287718852009 6.571427278705903 0 0 0
5583 5 1 -0.159 50.097859729309526 9.1464160842871 7.592993898369007 0 0 0
5578 5 1 0 50.84431005899467 10.434624403434194 8.08716641873324 0 0 0
3342 3 3 0.1268 48.341356995952154 5.026693271101358 5.413209607912957 0 0 0
3338 3 3 0.1268 49.04232836736862 7.373638385527235 10.303983639422203 0 0 0
3341 3 2 -0.1268 49.29446894891532 5.566576707241444 5.211797055894685 0 0 0
5586 5 3 0.053 49.28727099557599 8.71293429287294 8.190285996515486 0 0 0
3327 3 2 0.0732 50.465619887532775 5.5588931917541675 5.955922389952213 0 0 0
3336 3 2 0.0265 47.59241192245206 5.831839855160416 10.059301432526087 0 0 0
5584 5 3 0.053 50.71565857378834 8.22248167863917 7.6899731436997065 0 0 0
3337 3 2 -0.1268 48.86828550192119 6.446439637787821 9.851966687673645 0 0 0
3339 3 2 -0.1268 49.90658552467242 5.858447656848334 9.174514417796349 0 0 0
3340 3 3 0.1268 50.889927748947734 6.508854142543779 9.112295458049992 0 0 0
5588 5 2 -0.1268 52.35151515344065 10.575581346447517 10.046162524560431 0 0 0
5582 5 3 0.053 52.165582606477706 10.556511919221329 6.197628767740131 0 0 0
5587 5 2 0 52.1119893322627 9.990538170710916 8.834540595493953 0 0 0
5590 5 2 -0.1268 53.54435249953977 10.433658380222536 10.687069934349589 0 0 0
5620 5 3 0.1268 52.967697896505705 8.681150684905528 7.279829341921417 0 0 0
5619 5 2 -0.1268 53.09240012004591 9.12949925784345 8.328380135939536 0 0 0
5617 5 2 -0.1268 54.392707128488105 9.219436870054064 8.85509502585315 0 0 0
5618 5 3 0.1268 55.34991226219154 8.59398423933734 8.52052567251807 0 0 0
5592 5 2 0.0265 54.638263176212625 9.778954113725584 10.186382400378376 0 0 0
5593 5 6 -0.053 55.88416911189826 9.775197569499774 10.55877181573185 0 0 0
7011 6 3 0.1268 55.92302028004044 10.211448603113192 5.98828186684829 0 1 1
3325 3 2 -0.1268 51.59382779708982 6.388692632471221 5.472855783466172 0 0 0
3326 3 3 0.1268 52.60255382061819 6.22200447748364 5.7982386993156405 0 0 0
7001 6 2 -0.1268 56.3859078838198 6.074098254038157 5.771434255479905 0 1 1
7002 6 3 0.1268 55.38751551596677 5.607074366591045 6.200870424516116 0 1 1
7012 6 2 -0.1268 5.325559564171976 12.09075731852909 6.142612875289727 1 1 1
7014 6 2 0.0265 6.535990687703265 12.686350235546005 5.752634824676566 1 1 1
7037 6 2 0 8.429852427551788 13.392798468054213 10.357629486125598 1 1 1
7033 6 2 -0.1268 7.088522694491001 12.51635938812107 8.52785382794187 1 1 1
7081 6 2 -0.1268 8.497007984947293 14.568340088104314 9.63217033103583 1 1 1
7032 6 2 0.0265 7.1815591902014795 13.622585457222844 7.716554639191908 1 1 1
7083 6 2 -0.1268 7.919612757866952 14.663226175243873 8.316006890016864 1 1 1
7082 6 3 0.1268 9.048830586133967 15.374181786608025 10.052067339610797 1 1 1
7035 6 2 -0.1268 7.615592438036755 12.445656256204561 9.784930877194817 1 1 1
10108 8 3 0.1268 10.434044463518141 12.02515551038223 7.48645698060026 0 1 0
7084 6 3 0.1268 7.946411844030752 15.53983424673618 7.752121699334753 1 1 1
7031 6 6 -0.053 6.866742371677626 13.83891922090721 6.312591167961916 1 1 1
7034 6 3 0.1268 6.457100048888544 11.660058813497425 8.291291089627078 1 1 1
10073 8 3 0.053 10.067301922069987 13.418113042659892 5.312981079230242 0 1 0
7036 6 3 0.1268 7.564855916407569 11.569694138874105 10.370308463119791 1 1 1
10075 8 2 0 12.338202826038309 11.567912260816767 6.422163187219222 0 1 0
10107 8 2 -0.1268 11.4048392026603 11.421158188212141 7.430927096845047 0 1 0
10076 8 2 -0.1268 13.527633610990138 10.917177143094406 6.742762099427956 0 1 0
10070 8 3 0.053 13.686564615512426 14.028088556448127 6.266995147617262 0 1 0
3542 3 3 0.1268 13.92791827737687 16.14896995207046 7.8969171421477204 1 -1 0
3545 3 5 -0.1143 15.84630058641793 14.55522150316006 9.687340335270365 1 -1 0
3549 3 3 0.1268 16.09946032730395 14.31454393349257 7.130857875872992 1 -1 0
10067 8 1 -0.159 12.592734635697306 13.944424802332804 6.152645480760185 0 1 0
10077 8 3 0.1268 14.340733490278591 11.23687808755858 6.029377468048564 0 1 0
10069 8 3 0.053 11.95975643355166 13.991964500986512 6.998909144309856 0 1 0
3544 3 8 0.0822 16.518230803136454 15.79896930207841 9.616956635863556 1 -1 0
10068 8 3 0.053 12.240167893280066 14.803145509590301 5.509967133002993 0 1 0
10066 8 1 0 12.189799325478432 12.701815068809196 5.31079592473634 0 1 0
3546 3 5 -0.1143 17.290348914579432 16.282477045654687 10.738873470168102 1 -1 0
3552 3 2 0.0265 18.617017370069274 16.172495077147897 5.598873922274748 1 -1 0
404 1 3 0.1268 17.12244164422078 11.815726841839256 9.035484012277806 0 0 1
3547 3 2 0.0732 17.257618339549005 15.938612787762544 8.135126724078859 1 -1 0
3548 3 2 -0.1268 16.881313946604234 15.080002186242977 6.992070480506006 1 -1 0
3550 3 2 -0.1268 17.68385709669711 15.13088181014567 5.8289772179389425 1 -1 0
403 1 2 -0.1268 17.97673752433122 11.26816319006327 8.72887874506717 0 0 1
405 1 2 -0.1268 18.32657584459698 11.39042183821591 7.351896392053271 0 0 1
406 1 3 0.1268 17.92751996926888 12.15401908555553 6.788498011369538 0 0 1
413 1 3 0.1268 19.932713029331005 13.757096377015706 5.997806972085601 0 0 1
412 1 2 -0.1268 20.99154058241696 13.458789993445222 6.2253594230886575 0 0 1
408 1 8 0.0822 20.217944945415816 11.071659575592108 5.27023827092678 0 0 1
426 1 3 0.1268 20.14212099486415 12.07587075211801 10.571564118832585 0 0 1
415 1 3 0.1268 21.206817787443462 15.149232168802083 7.514747544065919 0 0 1
414 1 2 -0.1268 21.62972027676594 14.139344276639136 7.299778080836956 0 0 1
411 1 2 0.0732 21.42730443407438 12.199490994420469 5.8655861902404745 0 0 1
9956 8 3 0.1268 24.325178615779635 15.767256327129349 6.937438169051887 0 1 0
10000 8 3 0.1268 27.775053066069557 15.332111777595353 5.888129616220822 0 1 0
433 1 6 -0.053 23.10903772223269 14.415968200484581 9.0296400518736 0 0 1
416 1 2 0.0265 22.65516252617557 13.671869720139833 8.083175148611499 0 0 1
9963 8 1 -0.159 25.353717840332965 14.430147918502689 5.152610223950756 0 1 0
417 1 2 -0.1268 23.187214310174415 12.401779501292214 7.736608369747104 0 0 1
419 1 2 -0.1268 22.530864883867554 11.831185894373188 6.605636366892981 0 0 1
418 1 3 0.1268 24.056330122217428 11.86619803620117 8.199217722475485 0 0 1
486 1 3 0.1268 25.7332167744235 14.91767241590423 9.533718193166324 0 0 1
9965 8 3 0.053 24.371357179294233 14.049039698783291 5.069483292800125 0 1 0
9964 8 3 0.053 25.790296627325688 14.45063011901403 6.121048553439789 0 1 0
434 1 2 0.0265 23.962115006517134 13.839283967470676 9.983257594526357 0 0 1
9661 8 3 0.1268 27.71081570681347 13.25474503541158 9.166353133384916 0 1 0
485 1 2 -0.1268 25.257421725876227 14.179182468785093 10.209780323730115 0 0 1
9657 8 5 -0.1143 30.60350860850231 15.550770749858788 7.5293122398634384 0 1 0
9659 8 2 0.0732 29.869806790569445 13.687303796228997 8.954560396135312 0 1 0
9658 8 5 -0.1143 28.629995820700127 15.955655402293898 8.718297257813713 0 1 0
9656 8 8 0.0822 29.9153679957611 15.424719640333787 8.742182271287076 0 1 0
890 1 3 0.1268 33.680850142627676 14.065937880684308 5.6893007858780535 0 1 1
9667 8 2 -0.1268 31.08497022964055 12.904875513491923 8.600378737396685 0 1 0
9660 8 2 -0.1268 28.775107947831867 12.854842314701012 9.364295136651647 0 1 0
9669 8 2 -0.1268 32.34694784656575 16.429011305338662 9.896035107410457 0 1 0
9666 8 3 0.1268 32.19608756573015 11.179108171201367 8.670884210005651 0 1 0
9665 8 2 -0.1268 31.21310297007504 11.578773908669133 8.871939876435198 0 1 0
9664 8 2 0.0265 30.190953651120296 10.871632724428906 9.3338493629237 0 1 0
9662 8 2 -0.1268 28.92341765049717 11.478243595577032 9.46447410901767 0 1 0
9668 8 3 0.1268 31.94256062900031 13.306696522884536 8.046164514320427 0 1 0
9655 8 2 0.0732 31.091217915975285 15.77221429624136 10.110489763409284 0 1 0
9998 8 3 0.1268 30.245601124948312 15.505280994259216 5.395176521811047 0 1 0
889 1 2 -0.1268 34.53155555323532 14.427183103990542 6.355564504465735 0 1 1
891 1 2 -0.1268 34.78532149080162 15.75121106976472 5.988640047078217 0 1 1
909 1 2 -0.1268 35.75041347596988 14.48077312604475 8.29355009199398 0 1 1
893 1 2 0.0732 35.57848856836286 16.453908549585297 6.903656100049695 0 1 1
888 1 2 0.0265 34.87732109964983 13.770450106980164 7.5519498271195085 0 1 1
887 1 6 -0.053 34.504799534640696 12.45313915296395 7.775133868608352 0 1 1
892 1 3 0.1268 34.49921825934932 16.26512756952227 5.047788641118573 0 1 1
910 1 3 0.1268 36.27858303051812 14.108667742026336 9.208185459011535 0 1 1
886 1 2 0.0265 35.42560243221176 11.595251508939725 8.410466131968962 0 1 1
908 1 3 0.1268 36.92675858826606 16.23129939529781 8.584899243094302 0 1 1
2688 2 3 0.1268 39.006738760515915 14.300497741127675 8.481436066487293 1 0 2
911 1 2 -0.1268 36.42854866167379 11.08325253783109 7.697454738150378 0 1 1
912 1 3 0.1268 36.293156637635306 11.202208928124552 6.622322881001904 0 1 1
2692 2 3 0.1268 38.668394756691455 11.195934376499178 5.502175084396712 1 0 2
885 1 3 0.1268 34.121460077143226 11.62831325373362 9.944771540657959 0 1 1
884 1 2 -0.1268 35.06366006080458 11.284245614112189 9.775780972146826 0 1 1
907 1 2 -0.1268 36.14709054302011 15.800423071747103 7.956025341195148 0 1 1
2682 2 2 -0.1268 41.47044780209811 13.242281294516209 5.6473276529383405 1 0 2
2704 2 3 0.1268 39.80698985705097 15.931714406773736 6.910752104558264 1 0 2
2690 2 3 0.1268 39.84859148640142 11.965972674214807 8.317688253152088 1 0 2
2686 2 2 -0.1268 40.28488430431142 14.954552315468323 6.845160379503801 1 0 2
3276 3 5 -0.1143 39.95803403341687 15.541621678522075 10.528759564971033 0 0 0
2685 2 3 0.1268 41.34812792812706 15.592135625403854 5.281088009447757 1 0 2
2684 2 2 -0.1268 41.128088586328836 14.586207470291088 5.831745887512818 1 0 2
2689 2 2 -0.1268 40.11919162248008 12.782438939109728 7.578725240958368 1 0 2
3280 3 2 -0.1268 43.95888627724718 16.40825820666295 9.044176503769476 0 0 0
3282 3 2 0.0265 44.660701646136076 15.222364997202206 8.886160926434579 0 0 0
3301 3 2 -0.1268 44.864746191140014 14.740793860376654 6.052420127560056 0 0 0
3302 3 3 0.1268 43.825606876274065 15.082968506958956 6.140428772191908 0 0 0
3278 3 2 -0.1268 42.861801258007006 16.40183573571084 9.835142610415902 0 0 0
3283 3 2 -0.1268 44.231083288727824 14.133127547587154 9.632250425012561 0 0 0
3277 3 2 0.0732 42.32170581457379 15.229491098346674 10.505302728628385 0 0 0
2681 2 2 0.0732 40.89657559314662 12.2666334677464 6.510467618654452 1 0 2
2687 2 2 -0.1268 39.693915868923206 14.004444384254366 7.751975353274734 1 0 2
3284 3 3 0.1268 44.90543280608059 13.082700796614967 9.477158051868198 0 0 0
3285 3 2 -0.1268 43.19337873112871 14.174710761758213 10.512542582837257 0 0 0
5573 5 2 -0.1268 47.77876415644526 12.213681686348696 9.794299438689356 0 0 0
5572 5 2 0.0265 48.286396452591184 13.474085566078372 9.885101578043507 0 0 0
5574 5 3 0.1268 46.84368321851241 11.899131032297353 10.261023673043388 0 0 0
5571 5 6 -0.053 47.651651764506624 14.46553391118631 10.547495482571883 0 0 0
3350 3 3 0.1268 47.80013781883556 12.07432567706249 5.505088476343053 0 0 0
3349 3 2 -0.1268 47.10413590952997 12.922210282791283 5.588750178130398 0 0 0
3300 3 2 0.0265 45.87788410665484 14.47372489055407 7.063489014500554 0 0 0
3299 3 6 -0.053 45.85807874261193 15.237671531116968 8.243935769859053 0 0 0
3351 3 2 -0.1268 47.05849571544741 13.773227302139384 6.686229091480629 0 0 0
3352 3 3 0.1268 47.8881652606504 13.629275721708325 7.332400730381758 0 0 0
5621 5 2 -0.1268 50.41002538176166 12.795748087381503 8.892616538569357 0 0 0
5624 5 3 0.1268 49.8429210446818 14.732051292122955 9.83846458459653 0 0 0
5623 5 2 -0.1268 49.56485653500906 13.754199902241885 9.457987773428778 0 0 0
5577 5 2 0 49.96516222796987 11.465307080768792 8.812773042927322 0 0 0
5580 5 3 0.053 50.85546700085573 11.738159267312 6.125500939541706 0 0 0
5575 5 2 -0.1268 48.5962482634787 11.250964367063403 9.144628821864009 0 0 0
6818 6 3 0.1268 49.8928767079074 16.290794760385094 7.81440760149443 0 0 1
5589 5 3 0.1268 51.668558163775785 11.109281465606413 10.657880471078585 0 0 0
7013 6 3 0.1268 56.70531559808 12.614303796140872 6.997859165350771 0 1 1
5616 5 3 0.1268 56.755837869096794 12.320270045084587 10.01494326271021 0 0 0
7010 6 2 -0.1268 56.695322103038244 10.928710136005467 5.470888590712623 0 1 1
5581 5 3 0.053 51.979524596633915 12.07553634441334 7.242461945586946 0 0 0
5579 5 1 -0.159 51.475842964688056 11.129359083359924 6.842183431621395 0 0 0
5622 5 3 0.1268 51.50231572267077 12.89692140825698 9.15767253041164 0 0 0
9890 8 3 0.1268 9.674373688552564 18.939627668915108 9.93736790172237 0 1 0
6790 6 8 0.0822 5.3121552947397115 18.78305859216524 6.756691333034176 1 0 1
6791 6 5 -0.1143 6.172074011169673 18.23198695926923 7.748386150698248 1 0 1
9892 8 3 0.1268 7.534799323696044 20.01899060271564 10.378181838722265 0 1 0
6792 6 5 -0.1143 5.404216871073206 20.16512544600093 6.389637768681354 1 0 1
3531 3 2 0 10.348546385678521 21.78320388665786 5.786362190875069 1 -1 0
3563 3 2 -0.1268 10.203916113148697 22.172988619192253 7.018388014790598 1 -1 0
6789 6 2 0.0732 5.405406603284979 17.742547992987614 5.4224702680782135 1 0 1
6804 6 3 0.1268 7.299550381137982 16.789954498311708 5.9194659484923635 1 0 1
6803 6 2 -0.1268 6.633826743861173 17.02923121841682 5.135527125387795 1 0 1
3529 3 3 0.053 7.675355639398159 21.37280960352301 5.221278966587597 1 -1 0
3562 3 3 0.1268 10.84847660172792 21.883231668865587 9.21674599006853 1 -1 0
3537 3 6 -0.053 12.662334372895991 20.138750317742275 9.055349209509343 1 -1 0
3561 3 2 -0.1268 10.975525825773293 21.57272329942553 8.076072247134874 1 -1 0
3535 3 3 0.1268 13.397906732759989 19.909736204697793 6.224099015358101 1 -1 0
3532 3 2 -0.1268 11.462486757869492 20.958116122611045 5.587915067260461 1 -1 0
3536 3 2 0.0265 12.04110822037364 20.60171332891048 7.9027888967160065 1 -1 0
3534 3 2 -0.1268 12.317933986087493 20.47287522438362 6.525349294526139 1 -1 0
3541 3 2 -0.1268 14.13580103140609 16.95531597731927 8.497404783568545 1 -1 0
3538 3 2 0.0265 13.555693910349726 19.1515993980206 9.151600664658607 1 -1 0
3539 3 2 -0.1268 13.413645773413522 18.062196344338798 8.386818661732411 1 -1 0
3540 3 3 0.1268 12.482768521150263 18.003449090256108 7.699413740990876 1 -1 0
750 1 3 0.1268 15.27245144018982 21.3416348801352 8.790930494492017 0 0 1
3557 3 2 -0.1268 15.388501108066347 18.08936066555308 10.3011558218485 1 -1 0
3543 3 2 0.0732 15.321567069507875 17.015920241421732 9.358939048833953 1 -1 0
3559 3 2 -0.1268 14.584358407702211 19.12527698658274 10.145355213074158 1 -1 0
3556 3 3 0.1268 18.329589692899052 17.53504270956324 8.732054510763012 1 -1 0
3555 3 2 -0.1268 18.274339458242984 16.85143024968513 7.904195951891555 1 -1 0
3553 3 2 -0.1268 18.826550568109578 17.08177123559037 6.653463879262498 1 -1 0
3554 3 3 0.1268 19.722989816588242 17.733372638405058 6.841067474616208 1 -1 0
725 1 6 -0.053 17.709295937888918 22.241432730643808 7.6192525739989385 0 0 1
726 1 2 0.0265 18.61633376872409 22.22302187600419 8.613295516503218 0 0 1
748 1 3 0.1268 19.838349048740795 20.75825736699455 7.685717159794437 0 0 1
747 1 2 -0.1268 19.622479038384792 21.251866243749802 8.563128889695143 0 0 1
745 1 2 -0.1268 20.40617656113976 21.204183855460684 9.698182133229924 0 0 1
746 1 3 0.1268 21.11806371669981 20.337898308269622 9.773021887420379 0 0 1
3578 3 3 0.053 18.42489136055988 21.84432199923617 5.086020125704933 1 -1 0
9953 8 2 -0.1268 24.113243140505507 17.834878380108666 7.344769545420714 0 1 0
9954 8 3 0.1268 23.525207806027662 17.611390103860685 8.328863371678006 0 1 0
9952 8 2 0.0265 24.426339448047703 19.13188515679287 6.962419927501353 0 1 0
9951 8 6 -0.053 23.907023432959353 20.193896119518946 7.698874455167463 0 1 0
9932 8 2 -0.1268 26.11525952329425 20.991698341457813 8.369748874453329 0 1 0
9933 8 3 0.1268 26.53155464630021 19.9063002295593 8.101794294681339 0 1 0