units real
atom_style full
boundary p p p

# --- Force Field Styles ---
pair_style lj/class2/coul/long 9.5 9.5
kspace_style pppm 1e-6
dielectric 1.000000
bond_style class2
angle_style class2
dihedral_style class2
improper_style class2
special_bonds lj/coul 0 0 1
pair_modify mix sixthpower tail yes
neighbor 2.0 bin
neigh_modify delay 0 every 1 check yes
neigh_modify one 4000
# KOKKOS: package loaded via -pk kokkos on the command line

read_data /home/alexzhao/PolyJarvis/data/PEG3/lammps/equil/npt_production_ext/npt_ext_out.data
Reading data file ...
  orthogonal box = (4.1698476 4.1698476 4.1698476) to (45.151285 45.151285 45.151285)
  1 by 1 by 1 MPI processor grid
  reading atoms ...
  7020 atoms
  reading velocities ...
  7020 velocities
  scanning bonds ...
  4 = max bonds/atom
  scanning angles ...
  10 = max angles/atom
  scanning dihedrals ...
  16 = max dihedrals/atom
  scanning impropers ...
  7 = max impropers/atom
  orthogonal box = (4.1698476 4.1698476 4.1698476) to (45.151285 45.151285 45.151285)
  1 by 1 by 1 MPI processor grid
  reading bonds ...
  7010 bonds
  reading angles ...
  13000 angles
  reading dihedrals ...
  14970 dihedrals
  reading impropers ...
  8000 impropers
Finding 1-2 1-3 1-4 neighbors ...
  special bond factors lj:    0        0        1       
  special bond factors coul:  0        0        1       
     4 = max # of 1-2 neighbors
     6 = max # of 1-3 neighbors
     8 = max # of special neighbors
  special bonds CPU = 0.003 seconds
  read_data CPU = 0.184 seconds


# --- Thermo Output ---
thermo_style custom step time temp press enthalpy etotal ke pe ebond eangle edihed eimp evdwl ecoul elong etail vol lx ly lz density pxx pyy pzz
thermo_modify flush yes
thermo 100

# --- Trajectory ---
dump dump_npt all custom 1000 /home/alexzhao/PolyJarvis/data/PEG3/lammps/mechanical/bm_series/bm_P300/bm_P300.dump id type mol x y z ix iy iz vx vy vz

# --- Restart Checkpointing ---
restart 10000 npt_1.rst npt_2.rst

# --- Initial Velocities (optional) ---
# Velocities read from data file

# --- SHAKE Constraints ---
fix shake_fix all shake 1e-4 1000 0 m 1.008
Finding SHAKE clusters ...
      10 = # of size 2 clusters
    1990 = # of size 3 clusters
      10 = # of size 4 clusters
       0 = # of frozen angles
  find clusters CPU = 0.002 seconds

# --- NPT Thermostat + Barostat (Nose-Hoover) ---
# T_damp = 100.0 fs  (heat bath coupling)
# P_damp = 1000.0 fs  (pressure bath coupling, ~10x T_damp typical)
# Ramp: T=300.0->300.0K  P=300.0->300.0atm
timestep 1.0
fix npt_fix all npt temp 300.0 300.0 100.0 iso 300.0 300.0 1000.0

run 500000
PPPM Kokkos initialization ...
  using 12-bit tables for long-range coulomb
  G vector (1/distance) = 0.30317895
  grid = 30 30 30
  stencil order = 5
  estimated absolute RMS force accuracy = 0.00030405438
  estimated relative force accuracy = 9.1565074e-07
  using double precision cuFFT
  3d grid and FFT values/proc = 50653 27000
Generated 10 of 10 mixed pair_coeff terms from sixthpower/sixthpower mixing rule
Neighbor list info ...
  update: every = 1 steps, delay = 0 steps, check = yes
  max neighbors/atom: 4000, page size: 100000
  master list distance cutoff = 11.5
  ghost atom cutoff = 11.5
  binsize = 11.5, bins = 4 4 4
  1 neighbor lists, perpetual/occasional/extra = 1 0 0
  (1) pair lj/class2/coul/long/kk, perpetual
      attributes: full, newton off, kokkos_device
      pair build: full/bin/kk/device
      stencil: full/bin/3d
      bin: kk/device
Per MPI rank memory allocation (min/avg/max) = 34.18 | 34.18 | 34.18 Mbytes
   Step          Time           Temp          Press         Enthalpy        TotEng         KinEng         PotEng         E_bond        E_angle        E_dihed        E_impro         E_vdwl         E_coul         E_long         E_tail         Volume           Lx             Ly             Lz          Density          Pxx            Pyy            Pzz      
         0   0              377.5456       2028.1358      4908.1704      2872.3734      6391.0996     -3518.7262      1031.7248      4946.4439     -8521.5255     -53.124684     -2952.5529      6925.9428     -4895.6347     -466.42323      68827.433      40.981438      40.981438      40.981438      1.0633283     -6.1687805      3665.1765      2425.3995    
       100   100            300.77774     -333.86246      1344.498       1679.9669      5091.5716     -3411.6047      1065.1101      4955.4016     -8468.6196     -53.024419     -2950.05        6936.9452     -4897.3676     -465.94325      68898.334      40.995505      40.995505      40.995505      1.0622341      270.6847      -1360.353       88.080899    
       200   200            296.23321      1064.7617      2654.9733      1585.6489      5014.6418     -3428.9929      1072.7388      4949.0352     -8503.3836     -51.015765     -2935.819       6936.6788     -4897.2275     -466.18746      68862.241      40.988345      40.988345      40.988345      1.0627908      895.76379      2861.1896     -562.66836    
       300   300            299.86198      63.166644      1615.5761      1552.3148      5076.0697     -3523.7549      1030.6998      4972.3198     -8486.655      -52.837641     -3032.1484      6937.8369     -4892.9703     -467.48474      68671.147      40.950396      40.950396      40.950396      1.0657483      778.18514      704.63438     -1293.3196    
       400   400            299.21711      1249.7212      2767.7748      1522.7401      5065.1533     -3542.4132      991.42605      4995.8688     -8506.2271     -52.360754     -3002.5322      6926.7451     -4895.3331     -469.94744      68311.286      40.878739      40.878739      40.878739      1.0713626     -292.5943       2520.9311      1520.8268    
       500   500            298.92894     -158.25366      1339.5095      1496.8646      5060.2751     -3563.4105      997.0972       4982.1554     -8440.3315     -53.900344     -3077.857       6926.3077     -4896.8819     -470.85877      68179.072      40.852348      40.852348      40.852348      1.0734402      384.82485     -1247.7863      388.20045    
       600   600            297.98744      1120.4545      2533.9118      1422.0934      5044.3374     -3622.244       979.28734      4891.2344     -8447.2382     -52.164978     -3038.833       6939.1504     -4893.68       -471.8218       68039.911      40.824535      40.824535      40.824535      1.0756357      780.04592      1335.3599      1245.9577    
       700   700            292.23872      1066.6887      2451.2147      1394.1017      4947.0231     -3552.9214      1003.8997      4868.6535     -8450.3617     -51.06019      -2966.081       6934.7478     -4892.7195     -472.42615      67952.872      40.80712       40.80712       40.80712       1.0770135     -151.64029      1253.2617      2098.4447    
       800   800            296.87108     -676.54654      828.79839      1500.5265      5025.4396     -3524.9131      1055.9117      4928.0296     -8445.4988     -53.871786     -3062.5502      6947.4978     -4894.4314     -471.54355      68080.061      40.832563      40.832563      40.832563      1.0750014     -330.01622     -845.87273     -853.75066    
       900   900            300.67457     -354.89727      1235.7729      1588.7852      5089.8252     -3501.04        1026.0682      4945.2026     -8429.5236     -52.651595     -3039.8855      6945.1038     -4895.354      -470.68505      68204.235      40.857374      40.857374      40.857374      1.0730442     -3.658478       189.92887     -1250.9622    
      1000   1000           303.60018      1062.285       2660.6599      1604.0694      5139.3501     -3535.2807      971.0615       4950.1579     -8477.3797     -50.608302     -2984.653       6950.2231     -4894.0821     -470.70845      68200.845      40.856697      40.856697      40.856697      1.0730976      644.63718      1702.2452      839.97259    
      1100   1100           303.78073      531.88533      2077.5797      1547.2781      5142.4064     -3595.1283      995.21564      4959.9356     -8502.8382     -54.753676     -3032.3756      6934.8638     -4895.1757     -469.58339      68364.244      40.8893        40.8893        40.8893        1.0705327     -195.7343       85.033369      1706.3569    
      1200   1200           296.8211      -136.121        1289.3974      1425.4663      5024.5936     -3599.1273      975.61392      4943.7346     -8501.6207     -51.611721     -3014.4944      6940.5011     -4891.2501     -468.36454      68542.153      40.924739      40.924739      40.924739      1.067754      -273.06357     -379.50357      244.20415    
      1300   1300           297.25524      393.52865      1803.0437      1409.3674      5031.9428     -3622.5755      994.35504      4919.427      -8502.2431     -51.667721     -3027.6552      6941.9449     -4896.7364     -468.00952      68594.147      40.935084      40.935084      40.935084      1.0669447      424.66758     -41.703077      797.62145    
      1400   1400           296.57369      170.26221      1632.8751      1462.5143      5020.4054     -3557.8911      1029.4679      4936.8107     -8504.0433     -49.380453     -3016.577       6941.4468     -4895.6158     -467.9143       68608.106      40.937861      40.937861      40.937861      1.0667276      379.04542      732.26532     -600.52409    
      1500   1500           297.34687      999.16944      2533.4188      1535.0079      5033.4939     -3498.486       1011.807       4990.1466     -8502.4697     -55.191871     -2991.8939      6943.5693     -4894.4535     -468.54084      68516.362      40.919605      40.919605      40.919605      1.0681559      1398.4521      566.66635      1032.3899    
      1600   1600           295.11258     -400.85382      1176.3779      1576.6298      4995.6717     -3419.0419      1071.6571      4954.1247     -8426.7599     -50.70678      -3010.3756      6937.5554     -4894.5368     -468.88923      68465.454      40.909468      40.909468      40.909468      1.0689502     -807.90737     -355.05365     -39.600441    
      1700   1700           302.03102      622.23354      2214.9207      1594.5642      5112.7872     -3518.223       1028.3981      4962.8509     -8548.7929     -53.125581     -2967.5596      6950.026      -4890.0201     -469.60175      68361.571      40.888767      40.888767      40.888767      1.0705746      1236.3444      739.20408     -108.84784    
      1800   1800           297.46678      1223.0387      2693.3775      1473.278       5035.5236     -3562.2456      989.11588      5016.2893     -8516.613      -52.976485     -3031.5305      6929.3868     -4895.9176     -469.31301      68403.63       40.897151      40.897151      40.897151      1.0699163      770.7983       58.775523      2839.5422    
      1900   1900           294.39635     -1170.4512      233.46404      1402.6628      4983.5475     -3580.8847      1045.0561      4929.7583     -8479.3899     -52.288288     -3061.7004      6932.5443     -4894.8647     -468.6867       68495.039      40.91536       40.91536       40.91536       1.0684885     -392.13275     -1458.8591     -1660.3619    
      2000   2000           295.00709      793.86264      2261.375       1469.4738      4993.886      -3524.4123      1031.7862      5039.7282     -8536.6436     -51.633152     -3052.9507      6938.0668     -4892.7659     -469.34474      68399.006      40.896229      40.896229      40.896229      1.0699886     -1055.5971      591.72182      2845.4632    
      2100   2100           300.43687      540.61922      2074.342       1534.4608      5085.8015     -3551.3407      1021.5904      4948.6097     -8462.049      -51.685338     -3038.2872      6927.1697     -4896.689      -468.82518      68474.807      40.911331      40.911331      40.911331      1.0688042      2615.5557     -625.36465     -368.33341    
      2200   2200           304.42382     -958.93477      595.51228      1553.2454      5153.2925     -3600.0471      1031.5979      4840.5543     -8413.7051     -48.399936     -3058.3061      6944.6652     -4896.4534     -468.77259      68482.489      40.912861      40.912861      40.912861      1.0686843     -1515.3444     -1301.2739     -60.185952    
      2300   2300           301.3407       72.65582       1610.9133      1538.5738      5101.1015     -3562.5277      1001.2026      5024.8989     -8504.5799     -55.909042     -3068.0875      6928.9358     -4888.9886     -470.23227      68269.908      40.870483      40.870483      40.870483      1.072012       1213.9007     -383.8435      -612.08974    
      2400   2400           303.02469      412.18077      1911.3091      1502.2325      5129.608      -3627.3756      988.58771      4859.4868     -8420.8635     -50.965233     -3052.7511      6942.2724     -4893.1427     -471.7378       68052.027      40.826958      40.826958      40.826958      1.0754442     -511.67961      1999.0587     -250.83678    
      2500   2500           297.21692      535.75929      1931.9484      1401.3209      5031.294      -3629.9731      1037.0326      4874.8893     -8454.5676     -53.06964      -3063.5452      6927.0293     -4897.7418     -472.71302      67911.635      40.798863      40.798863      40.798863      1.0776675     -153.99576      803.65631      957.61733    
      2600   2600           294.77172      310.2209       1592.5777      1285.3731      4989.9017     -3704.5285      980.67113      4841.5354     -8480.1694     -51.899462     -3024.1615      6924.0091     -4894.5138     -472.78206      67901.717      40.796877      40.796877      40.796877      1.0778249     -25.002395      2392.1969     -1436.5318    
      2700   2700           297.77063      454.6011       1840.2183      1389.4131      5040.6673     -3651.2543      1011.4867      4929.589      -8498.5726     -49.400164     -3090.136       6942.3201     -4896.5413     -472.12734      67995.88       40.815727      40.815727      40.815727      1.0763323      211.8748      -242.2871       1394.2156    
      2800   2800           295.76317     -517.59381      982.26999      1496.0922      5006.685      -3510.5929      1091.9265      4878.2725     -8417.6289     -50.631367     -3053.461       6935.5815     -4894.652      -471.6218       68068.765      40.830305      40.830305      40.830305      1.0751798     -1069.8118      755.75572     -1238.7253    
      2900   2900           303.01681      738.18069      2287.0652      1554.0524      5129.4747     -3575.4223      1049.5992      5031.8983     -8552.2779     -55.396766     -3085.8189      6929.2265     -4892.6527     -471.48599      68088.373      40.834225      40.834225      40.834225      1.0748702      1306.6829     -29.398687      937.25789    
      3000   3000           300.46132      448.60778      1979.5438      1534.0045      5086.2153     -3552.2107      1065.3332      4990.7837     -8532.5332     -51.258357     -3068.798       6937.5751     -4893.313      -471.40961      68099.405      40.83643       40.83643       40.83643       1.074696       233.52181      1571.1484     -458.84692    
      3100   3100           296.33297      121.60869      1534.9754      1414.1704      5016.3306     -3602.1602      1028.5652      4859.1644     -8442.8643     -52.18807      -3039.1523      6935.8047     -4891.4899     -471.29994      68115.25       40.839597      40.839597      40.839597      1.074446      -189.56602      605.70616     -51.314061    
      3200   3200           295.72285      864.62374      2244.47        1386.132       5006.0025     -3619.8704      1003.691       4988.7456     -8554.4123     -52.459741     -3054.4847      6942.0338     -4892.984      -471.61379      68069.922      40.830536      40.830536      40.830536      1.0751615     -37.311495      1626.4767      1004.706     
      3300   3300           299.62523      509.83435      1955.688       1449.5688      5072.062      -3622.4931      1002.8948      4980.1952     -8495.6539     -53.496184     -3094.473       6932.0914     -4894.0516     -471.6219       68068.75       40.830302      40.830302      40.830302      1.07518       -682.39632      2022.5794      189.32001    
      3400   3400           298.68907     -529.85818      952.24306      1478.1791      5056.2147     -3578.0356      1000.5038      4926.6447     -8474.7862     -50.263636     -3028.1862      6940.9891     -4892.9372     -471.67662      68060.855      40.828723      40.828723      40.828723      1.0753047     -259.63724     -1509.4007      179.46334    
      3500   3500           304.92704     -336.09665      1166.9963      1500.3125      5161.8111     -3661.4986      974.0195       5015.7262     -8513.2515     -54.951685     -3118.1996      6930.6959     -4895.5373     -472.09066      68001.162      40.816784      40.816784      40.816784      1.0762487      103.13571     -1080.7839     -30.641779    
      3600   3600           304.89272      1794.5922      3336.6108      1564.7593      5161.2302     -3596.4709      1028.7614      4900.0972     -8490.1919     -51.451097     -3016.2344      6928.2191     -4895.6712     -474.19402      67699.533      40.756345      40.756345      40.756345      1.0810438      341.98505      3043.8546      1997.9369    
      3700   3700           308.75641      1395.4199      2941.1542      1564.7817      5226.6348     -3661.8531      968.85137      4960.0573     -8534.5334     -50.060401     -3055.8066      6941.5904     -4891.9517     -474.66428      67632.461      40.742881      40.742881      40.742881      1.0821159      1506.7016      926.73008      1752.828     
      3800   3800           300.34068     -223.16715      1190.2111      1411.1699      5084.173      -3673.0031      987.8057       4842.8192     -8453.3363     -51.846296     -3037.3238      6930.6208     -4891.7424     -472.8642       67889.922      40.794515      40.794515      40.794515      1.0780121      472.06687     -818.53327     -323.03505    
      3900   3900           291.90346      1439.5984      2799.1909      1367.3522      4941.3476     -3573.9954      993.27113      4975.2081     -8496.1635     -53.392603     -3045.5493      6945.1695     -4892.5389     -470.72245      68198.816      40.856292      40.856292      40.856292      1.0731295      2719.6831      501.38725      1097.7249    
      4000   4000           298.66916     -533.75584      932.24813      1464.3842      5055.8776     -3591.4934      1061.9603      4907.2793     -8477.1245     -52.209643     -3081.445       6942.4361     -4892.39       -469.61028      68360.33       40.888519      40.888519      40.888519      1.070594      -1277.5418     -628.78741      305.06167    
      4100   4100           302.7929       748.17663      2289.2335      1543.6472      5125.6843     -3582.0371      1021.8517      4938.0603     -8495.4229     -53.062783     -3039.1545      6940.3801     -4894.6889     -469.81174      68331.017      40.882674      40.882674      40.882674      1.0710533      1555.2229      1888.6644     -1199.3574    
      4200   4200           300.56259      327.32123      1882.405       1556.2238      5087.9296     -3531.7058      1019.0525      5015.1191     -8505.0821     -52.212231     -3044.6992      6933.1224     -4897.0063     -469.82151      68329.596      40.882391      40.882391      40.882391      1.0710756     -1288.7695     -816.93537      3087.6686    
      4300   4300           298.99698     -101.78146      1410.5345      1511.9647      5061.4269     -3549.4622      1001.6344      5042.9268     -8502.369      -53.118323     -3058.4139      6918.6234     -4898.7456     -469.80676      68331.741      40.882819      40.882819      40.882819      1.0710419      929.50368      362.41286     -1597.2609    
      4400   4400           297.4348       182.75807      1586.9884      1405.1609      5034.9822     -3629.8213      992.49825      4936.1214     -8504.5621     -51.98665      -3035.6067      6929.4091     -4895.6946     -470.58128      68219.275      40.860377      40.860377      40.860377      1.0728076     -22.461635     -235.34351      806.07935    
      4500   4500           293.65184      77.377128      1370.941       1293.9548      4970.9442     -3676.9894      1013.0117      4995.3621     -8554.3176     -52.857343     -3115.1261      6931.5471     -4894.6093     -470.56256      68221.988      40.860918      40.860918      40.860918      1.072765      -129.8972       644.67737     -282.64878    
      4600   4600           292.57339      146.66252      1510.9815      1365.1799      4952.6883     -3587.5084      980.03616      4903.5451     -8447.2353     -49.882171     -3013.1347      6935.5373     -4896.3749     -470.94975      68165.901      40.849718      40.849718      40.849718      1.0736477      406.66927     -383.98981      417.3081     
      4700   4700           296.2682      -923.05294      540.16934      1456.8247      5015.2342     -3558.4095      1041.8167      4986.991      -8489.2264     -52.112343     -3080.2316      6929.6089     -4895.2558     -471.45276      68093.172      40.835184      40.835184      40.835184      1.0747944     -2048.9236     -63.877787     -656.35743    
      4800   4800           303.84662      518.60263      2031.6972      1517.6514      5143.5218     -3625.8703      1004.7315      4832.3333     -8400.6787     -54.55895      -3050.8964      6935.826      -4892.6271     -472.33548      67965.917      40.80973       40.80973       40.80973       1.0768068      2399.9765     -1500.2155      656.04687    
      4900   4900           301.73633      891.05979      2424.8173      1542.7268      5107.7988     -3565.072       994.62388      4975.3486     -8459.1256     -54.432522     -3060.6414      6936.9404     -4897.7854     -472.94574      67878.218      40.79217       40.79217       40.79217       1.078198      -229.4468       1650.8338      1251.7923    
      5000   5000           296.24136     -193.85847      1369.723       1561.8379      5014.7798     -3452.9419      996.62228      5042.7494     -8425.5148     -55.079057     -3034.2271      6920.8008     -4898.2934     -472.4343       67951.7        40.806885      40.806885      40.806885      1.0770321      1380.6655     -1449.5354     -512.70549    
      5100   5100           300.43724     -598.7746       971.56236      1566.4061      5085.8076     -3519.4016      1020.8343      5071.7541     -8455.6584     -55.704307     -3129.4482      6924.693      -4895.872      -471.27906      68118.269      40.840201      40.840201      40.840201      1.0743984     -1597.5457      57.74999      -256.52811    
      5200   5200           298.36524      1089.0414      2571.6681      1490.4634      5050.7329     -3560.2695      1006.8334      4950.6525     -8427.465      -54.928515     -3069.0504      6931.1699     -4897.4814     -471.57865      68074.994      40.83155       40.83155       40.83155       1.0750814      604.09155      1741.0656      921.96718    
      5300   5300           298.3311       261.97152      1660.9085      1401.0002      5050.1549     -3649.1547      1004.169       4988.9322     -8526.1037     -54.155275     -3078.8229      6915.8824     -4899.0565     -471.9017       68028.391      40.822231      40.822231      40.822231      1.0758179      1131.6415      163.34547     -509.07244    
      5400   5400           298.97768      79.19461       1495.4289      1416.8025      5061.1002     -3644.2977      989.79632      4959.6267     -8446.3777     -57.102052     -3100.6095      6912.9628     -4902.5943     -471.56864      68076.439      40.831839      40.831839      40.831839      1.0750586     -847.07914      1406.7978     -322.13485    
      5500   5500           300.15267     -548.29847      1008.3209      1552.4822      5080.9905     -3528.5083      1031.9836      4962.6242     -8462.284      -55.838333     -3022.4804      6916.7822     -4899.2955     -471.74472      68051.03       40.826759      40.826759      40.826759      1.07546       -47.337974     -1211.7482     -385.80918    
      5600   5600           302.29954      695.95368      2303.7678      1612.4238      5117.3328     -3504.909       1093.9953      4928.8285     -8453.9116     -54.682521     -3041.2075      6919.3434     -4897.2746     -471.30681      68114.257      40.839399      40.839399      40.839399      1.0744617     -797.24204      2354.8235      530.27956    
      5700   5700           303.91474     -76.758991      1490.3564      1566.7867      5144.6748     -3577.8882      1055.2913      4830.8748     -8384.2836     -50.675689     -3051.7585      6921.1493     -4898.4858     -470.19905      68274.731      40.871446      40.871446      40.871446      1.0719363     -762.53272     -446.05027      978.30602    
      5800   5800           301.59994     -109.82001      1379.0318      1488.5229      5105.49       -3616.9671      1061.3698      4903.914      -8506.8043     -50.977371     -3046.4582      6919.05       -4897.0609     -469.59146      68363.07       40.889065      40.889065      40.889065      1.0705511      127.74527      307.68163     -764.88694    
      5900   5900           299.16569      984.87158      2450.653       1469.1391      5064.2828     -3595.1437      1064.8935      4889.342      -8502.4656     -51.411591     -3027.3962      6926.9044     -4895.0102     -469.78676      68334.65       40.883399      40.883399      40.883399      1.0709963      647.20744      338.04605      1969.3613    
      6000   6000           293.41018     -470.09084      1072.1744      1541.6945      4966.8534     -3425.1589      1077.648       4949.5259     -8413.5341     -53.787729     -3023.2128      6929.5441     -4891.3422     -468.75421      68485.174      40.913395      40.913395      40.913395      1.0686424      115.04043     -1249.1183     -276.19469    
      6100   6100           304.052        972.26566      2656.9228      1684.5447      5146.9984     -3462.4538      1044.0139      5030.4715     -8468.9397     -51.32127      -3050.8879      6927.2234     -4893.0137     -468.131        68576.347      40.931543      40.931543      40.931543      1.0672216     -28.107266      1191.6454      1753.2589    
      6200   6200           301.43278      555.06389      2198.3646      1642.7464      5102.6601     -3459.9137      1033.3522      4975.4571     -8447.1689     -52.872177     -2998.8725      6924.8979     -4894.7074     -467.71812      68636.882      40.943583      40.943583      40.943583      1.0662804      739.68685     -190.10384      1115.6087    
      6300   6300           299.37295      579.23447      2130.7823      1550.1139      5067.7914     -3517.6776      1017.9683      5028.6251     -8485.8644     -53.910686     -3053.7191      6922.4422     -4893.2191     -467.02897      68738.163      40.963712      40.963712      40.963712      1.0647093      26.775         2297.5483     -586.61992    
      6400   6400           294.94789     -302.76127      1188.992       1491.8666      4992.8839     -3501.0173      1059.9435      4934.7286     -8443.7232     -55.451975     -3042.6707      6942.6051     -4896.4486     -468.00985      68594.098      40.935074      40.935074      40.935074      1.0669454     -476.15288     -356.53212     -75.598824    
      6500   6500           302.55953      1329.5846      2828.2866      1504.2425      5121.7338     -3617.4913      979.10122      4915.2827     -8442.3854     -52.160987     -3049.1989      6929.3398     -4897.4698     -470.14428      68282.685      40.873033      40.873033      40.873033      1.0718114      1326.4953      1700.1261      962.13251    
      6600   6600           303.97407      11.358085      1620.8337      1609.5384      5145.6792     -3536.1407      1023.6116      4979.1927     -8473.0083     -53.501625     -3041.0885      6924.4368     -4895.7834     -470.78703      68189.461      40.854423      40.854423      40.854423      1.0732767     -300.01725      543.68628     -209.59478    
      6700   6700           306.99592      883.30755      2598.8897      1721.0237      5196.8331     -3475.8094      1046.6677      4972.6377     -8444.3961     -54.238336     -3029.3858      6929.7397     -4896.8342     -471.08724      68146.006      40.845743      40.845743      40.845743      1.0739611      630.99379      1251.7487      767.18013    
      6800   6800           300.33601     -138.77825      1495.7902      1633.439       5084.094      -3450.6551      1069.6869      4960.4856     -8400.657      -50.782988     -3060.681       6927.9265     -4896.633      -472.02683      68010.357      40.818623      40.818623      40.818623      1.0761031      126.97519     -101.08248     -442.22747    
      6900   6900           300.14411      370.46545      1920.0567      1552.5861      5080.8456     -3528.2595      1010.0671      5046.2333     -8485.1742     -52.27673      -3086.4813      6934.8699     -4895.4975     -472.00081      68014.107      40.819373      40.819373      40.819373      1.0760438      783.21484      1001.5195     -673.33801    
      7000   7000           301.67325     -271.99592      1229.6872      1500.1188      5106.7308     -3606.6121      1031.1596      4924.9008     -8463.8366     -51.471357     -3079.1632      6926.3832     -4894.5845     -470.89342      68174.055      40.851346      40.851346      40.851346      1.0735192      9.3074229     -891.90057      66.605387    
      7100   7100           298.14846      416.3989       1883.9156      1469.1497      5047.0631     -3577.9134      1057.4478      4887.4695     -8461.3501     -52.203783     -3055.5317      6937.8719     -4891.6171     -470.02848      68299.508      40.876389      40.876389      40.876389      1.0715474      752.80607      223.18031      273.21034    
      7200   7200           298.04368     -312.73745      1172.1787      1483.8617      5045.2895     -3561.4278      1017.7421      4972.0439     -8479.0435     -49.728657     -3069.9051      6940.5784     -4893.115      -469.76907      68337.223      40.883912      40.883912      40.883912      1.070956      -567.2867      -13.101121     -357.82454    
      7300   7300           299.43698      7.6845184      1613.288       1605.6256      5068.8752     -3463.2496      1049.4199      5041.2755     -8477.8542     -55.152854     -3055.7053      6926.0926     -4891.3253     -469.53845      68370.787      40.890604      40.890604      40.890604      1.0704303     -872.96628     -227.49406      1123.5139    
      7400   7400           306.02034      543.77955      2208.6431      1666.9492      5180.3185     -3513.3693      1076.5753      4927.9001     -8463.5        -53.194078     -3038.8401      6931.9065     -4894.217      -469.98785      68305.412      40.877567      40.877567      40.877567      1.0714548      171.40839      1091.8741      368.05619    
      7500   7500           300.42851     -302.62342      1297.4011      1598.344       5085.66       -3487.3159      1056.3839      5013.7526     -8482.5589     -49.340983     -3064.4121      6930.8126     -4891.9531     -470.79951      68187.653      40.854062      40.854062      40.854062      1.0733052     -439.88147      473.76363     -941.75244    
      7600   7600           301.99844      772.2513       2275.9456      1508.5424      5112.2358     -3603.6934      990.53252      4984.6104     -8472.6592     -56.079743     -3075.7342      6921.3545     -4895.7176     -471.14288      68137.957      40.844135      40.844135      40.844135      1.074088       956.44791      482.54472      877.76125    
      7700   7700           299.85504      327.06344      1822.7071      1497.6678      5075.9522     -3578.2844      1000.3066      4961.1605     -8447.0503     -51.096314     -3089.9119      6938.244      -4889.937      -471.10073      68144.054      40.845353      40.845353      40.845353      1.0739919      1130.8448      473.80826     -623.46271    
      7800   7800           301.69574      356.28781      1861.8683      1507.9605      5107.1117     -3599.1512      1020.1919      4917.4328     -8452.1887     -51.688177     -3064.8176      6921.4673     -4889.5488     -471.3336       68110.386      40.838625      40.838625      40.838625      1.0745227     -640.78153      880.28752      829.35744    
      7900   7900           301.94873      687.22747      2216.6096      1534.6998      5111.3943     -3576.6945      1013.2163      4943.2611     -8452.8351     -52.557777     -3063.844       6929.1068     -4893.0417     -471.83617      68037.84       40.824121      40.824121      40.824121      1.0756685      896.21236      1090.5693      74.90072     
      8000   8000           301.83961      1187.7947      2775.1413      1597.7458      5109.5471     -3511.8013      1018.5272      4959.5215     -8417.4172     -53.49114      -3056.9881      6931.1432     -4893.0967     -472.32034      67968.095      40.810166      40.810166      40.810166      1.0767723      2432.7722      539.26333      591.34855    
      8100   8100           303.76946     -379.75345      1301.6875      1678.107       5142.2156     -3464.1086      1046.1508      4941.9229     -8372.2893     -54.124679     -3070.5221      6936.623      -4891.8693     -472.33188      67966.434      40.809834      40.809834      40.809834      1.0767986     -308.93758     -798.45024     -31.872546    
      8200   8200           302.54499      776.66019      2414.1975      1645.6328      5121.4877     -3475.8549      1038.2101      4947.2477     -8400.2008     -51.508523     -3042.0819      6930.1597     -4897.6812     -473.11669      67853.691      40.787256      40.787256      40.787256      1.0785878      482.29942      785.8036       1061.8775    
      8300   8300           297.01311      580.00259      2091.3347      1517.9408      5027.8439     -3509.9031      1032.6585      4992.0484     -8427.0429     -53.043444     -3090.0867      6930.4877     -4894.9247     -473.58127      67787.126      40.773914      40.773914      40.773914      1.0796469      2070.8826     -758.29821      427.42336    
      8400   8400           295.12482     -323.93911      1167.0924      1487.3572      4995.8789     -3508.5217      1050.726       4928.2969     -8400.4639     -50.75762      -3088.7826      6945.8381     -4893.3785     -473.55644      67790.681      40.774627      40.774627      40.774627      1.0795903     -538.698        949.41479     -1382.5341    
      8500   8500           300.41734      315.88661      1831.8476      1519.4775      5085.4709     -3565.9934      1045.5516      4866.2133     -8409.7341     -49.929806     -3062.3799      6937.8377     -4893.5522     -473.45578      67805.094      40.777517      40.777517      40.777517      1.0793608      795.8482       280.16264     -128.35101    
      8600   8600           299.9828       918.50385      2487.7066      1578.6341      5078.1149     -3499.4808      1013.6674      4995.0276     -8469.1514     -52.171657     -3033.227       6937.8072     -4891.4328     -473.04243      67864.343      40.789391      40.789391      40.789391      1.0784184      623.22884      1671.5499      460.73285    
      8700   8700           308.71432      862.01537      2558.987       1703.5244      5225.9222     -3522.3978      1029.7546      5029.8724     -8463.3733     -51.130526     -3107.2233      6934.5259     -4894.8236     -471.77141      68047.18       40.825989      40.825989      40.825989      1.0755208      2001.1508      1044.7776     -459.88223    
      8800   8800           305.71999     -237.49995      1465.9609      1702.1433      5175.2342     -3473.0909      1046.0967      4959.1682     -8446.6171     -53.943166     -3022.4958      6935.7571     -4891.0567     -470.79683      68188.04       40.85414       40.85414       40.85414       1.0732991     -290.41569      74.334266     -496.41843    
      8900   8900           300.84435      1190.2044      2720.4739      1535.9053      5092.6993     -3556.7941      1035.1748      4939.2065     -8459.2997     -50.046077     -3068.4917      6941.5498     -4894.8877     -470.41263      68243.732      40.865259      40.865259      40.865259      1.0724232      699.25726      1387.605       1483.7511    
      9000   9000           298.77835     -449.47331      1021.3042      1468.2273      5057.726      -3589.4987      1016.7045      4918.444      -8439.3872     -50.677617     -3079.9308      6938.3713     -4893.0228     -470.85673      68179.367      40.852407      40.852407      40.852407      1.0734356     -752.11643     -117.06398     -479.23953    
      9100   9100           299.27563      701.53213      2126.4725      1429.9069      5066.1439     -3636.237       1024.5989      4871.1963     -8483.5799     -47.518892     -3051.4961      6940.8646     -4890.3019     -471.52333      68082.981      40.833147      40.833147      40.833147      1.0749553      1503.5512      43.360962      557.68427    
      9200   9200           298.35417      36.769275      1501.9979      1465.4784      5050.5455     -3585.0671      1040.3647      4892.0042     -8429.8727     -50.143168     -3073.6689      6929.7242     -4893.4755     -471.38723      68102.637      40.837076      40.837076      40.837076      1.074645       278.59525      924.84689     -1093.1343    
      9300   9300           300.88823      978.62147      2560.3907      1588.1517      5093.4421     -3505.2904      1032.1879      5041.1353     -8492.8932     -53.386783     -3078.3136      6935.0753     -4889.0954     -471.25863      68121.222      40.840791      40.840791      40.840791      1.0743518      974.70233     -981.11475      2942.2768    
      9400   9400           300.46408     -743.40285      875.84231      1614.4642      5086.262      -3471.7978      1035.1327      4973.892      -8428.8792     -53.27328      -3036.5522      6928.9603     -4891.0781     -471.21563      68127.438      40.842033      40.842033      40.842033      1.0742538     -861.86726     -1073.2112     -295.13003    
      9500   9500           303.40097      1268.2649      2818.5119      1558.4784      5135.9778     -3577.4994      996.39088      4944.4672     -8485.0682     -54.799054     -3023.2257      6938.2475     -4893.512      -471.24366      68123.385      40.841223      40.841223      40.841223      1.0743177      748.72921      2392.0982      663.9673     
      9600   9600           299.95909     -147.32037      1379.293       1525.9407      5077.7136     -3551.7728      1072.8014      4969.9633     -8488.5195     -50.303736     -3098.0753      6931.6292     -4889.2682     -470.33245      68255.367      40.867581      40.867581      40.867581      1.0722404     -529.86193      687.35623     -599.45541    
      9700   9700           299.25428      797.10061      2299.6528      1505.54        5065.7826     -3560.2426      992.46025      4947.3305     -8484.7678     -50.298014     -3018.616       6945.7599     -4892.1114     -469.94666      68311.398      40.878761      40.878761      40.878761      1.0713609      802.8685       1094.1966      494.23669    
      9800   9800           296.97547      155.21855      1657.1899      1502.3402      5027.2069     -3524.8666      1062.5073      4959.3087     -8467.1409     -50.193261     -3062.879       6928.0223     -4894.4918     -469.30029      68405.484      40.89752       40.89752       40.89752       1.0698873     -330.87151      452.70164      343.82552    
      9900   9900           299.27639      713.85138      2270.5095      1557.9508      5066.1568     -3508.206       1086.9783      5001.8494     -8538.003      -54.13778      -3036.9212      6924.2938     -4892.2656     -469.03451      68444.246      40.905243      40.905243      40.905243      1.0692814      127.40048      1517.3804      496.77328    
     10000   10000          299.57922      682.28104      2345.8511      1663.3653      5071.2832     -3407.9178      1078.3737      4989.7354     -8496.7573     -53.390299     -2968.8823      6938.7946     -4895.7917     -468.04471      68588.99       40.934058      40.934058      40.934058      1.0670249      1699.6527     -224.26342      571.45384    
     10100   10100          302.74515     -327.9089       1348.7992      1677.71        5124.8761     -3447.1661      1073.0576      4924.1114     -8398.0778     -54.579141     -3049.4423      6946.2036     -4888.4395     -466.75903      68777.917      40.971608      40.971608      40.971608      1.0640939     -1294.0135      363.10242     -52.815622    
     10200   10200          300.69895      178.16777      1717.9779      1539.6346      5090.2379     -3550.6033      1013.6419      4931.5985     -8481.7942     -48.666357     -3017.8606      6943.5401     -4891.0627     -467.72442      68635.958      40.9434        40.9434        40.9434        1.0662947     -219.26475     -248.81346      1002.5815    
     10300   10300          302.30801      321.0575       1826.6642      1506.2438      5117.4761     -3611.2323      1030.4735      4954.5634     -8511.5128     -52.501746     -3073.2062      6930.6848     -4889.7333     -469.11611      68432.341      40.902872      40.902872      40.902872      1.0694674      419.50462      1495.872      -952.20412    
     10400   10400          297.35413      681.14497      2202.8984      1524.2317      5033.6168     -3509.385       1030.8401      4888.971      -8418.2398     -50.938715     -3020.2577      6948.0291     -4887.789      -469.89485      68318.93       40.880263      40.880263      40.880263      1.0712428     -39.87908       1992.4015      90.912548    
     10500   10500          301.84202      229.81342      1787.8618      1559.2034      5109.5879     -3550.3845      1042.2227      4875.0971     -8456.2326     -51.127775     -3005.8501      6936.6487     -4891.1425     -470.55005      68223.802      40.86128       40.86128       40.86128       1.0727365      805.50333     -262.06498      146.00191    
     10600   10600          305.76075      236.54482      1859.3671      1624.5286      5175.9242     -3551.3955      1061.6959      4871.2874     -8456.7466     -49.637882     -3030.7453      6942.9493     -4890.1983     -471.58694      68073.797      40.831311      40.831311      40.831311      1.0751003      3.3269874     -205.44139      911.74886    
     10700   10700          305.39685      2282.4545      3940.7737      1676.7184      5169.764      -3493.0456      1035.4271      4931.1986     -8448.0648     -52.516374     -3006.5347      6937.0365     -4889.5919     -471.98992      68015.676      40.819687      40.819687      40.819687      1.076019       2347.0608      2405.6425      2094.66      
     10800   10800          304.79635     -1604.1834     -9.00549        1586.4565      5159.5988     -3573.1423      1045.5568      4938.4154     -8489.379      -52.766279     -3064.3525      6937.1239     -4887.7407     -470.74442      68195.633      40.855656      40.855656      40.855656      1.0731796     -1722.0015     -1650.1177     -1440.4309    
     10900   10900          300.17129      1293.1379      2759.5244      1471.1971      5081.3057     -3610.1086      1027.7388      4846.1937     -8473.1445     -50.765357     -3016.8905      6944.2985     -4887.5393     -469.93333      68313.336      40.879148      40.879148      40.879148      1.0713305      1273.7423      1685.4971      920.1743     
     11000   11000          299.42673     -554.16845      916.20925      1469.7989      5068.7017     -3598.9028      1045.5164      4924.237      -8474.814      -52.253894     -3099.3721      6945.1318     -4887.3479     -468.67466      68496.798      40.91571       40.91571       40.91571       1.068461      -848.86445     -369.89889     -443.742      
     11100   11100          305.10899     -573.31155      950.65291      1522.804       5164.8912     -3642.0872      1056.3305      4887.4762     -8529.4828     -53.823413     -3056.7197      6941.4574     -4887.3254     -469.13475      68429.621      40.90233       40.90233       40.90233       1.0695099      288.36218     -1204.4261     -803.87073    
     11200   11200          301.96286      1190.3084      2801.877       1616.5114      5111.6334     -3495.1221      1076.8943      4861.3094     -8453.6573     -52.806549     -2975.8814      6938.7283     -4889.7088     -470.13739      68283.685      40.873232      40.873232      40.873232      1.0717957      1860.1768      1344.9862      365.76215    
     11300   11300          301.80768     -65.371037      1595.2819      1660.3673      5109.0065     -3448.6392      1059.5423      5009.7212     -8464.4053     -50.617345     -3053.2388      6933.8585     -4883.4997     -470.23985      68268.807      40.870264      40.870264      40.870264      1.0720293      605.16465     -1957.8782      1156.6004    
     11400   11400          304.44647      1377.5016      2946.7696      1576.1557      5153.6761     -3577.5204      976.55413      4897.309      -8462.0265     -51.308074     -3002.9679      6951.7704     -4886.8514     -470.53787      68225.569      40.861633      40.861633      40.861633      1.0727087      1041.4716      1967.353       1123.6801    
     11500   11500          296.50949     -720.55846      730.51446      1448.6029      5019.3187     -3570.7158      1023.0727      4961.7442     -8465.8442     -51.362062     -3091.0628      6939.6342     -4886.8979     -469.79554      68333.372      40.883144      40.883144      40.883144      1.0710164     -961.506       -381.46121     -818.70817    
     11600   11600          299.87794      595.76407      2057.8188      1464.4771      5076.3398     -3611.8627      1034.7744      4844.582      -8481.2036     -48.989974     -3016.0626      6947.8219     -4892.7848     -470.09655      68289.617      40.874416      40.874416      40.874416      1.0717026      268.20596      606.49797      912.58828    
     11700   11700          300.33483     -1007.0636      559.27358      1563.9761      5084.074      -3520.098       1022.8425      4991.0335     -8445.8077     -50.362096     -3093.0002      6946.2399     -4891.0438     -469.28543      68407.65       40.897952      40.897952      40.897952      1.0698534     -530.53749     -325.52005     -2165.1334    
     11800   11800          306.78809     -213.55082      1411.9559      1624.9025      5193.3151     -3568.4125      1033.6779      4895.206      -8422.7129     -48.040381     -3077.4961      6942.9346     -4891.9817     -469.51345      68374.427      40.89133       40.89133       40.89133       1.0703733     -1.873843      -603.77949     -34.999136    
     11900   11900          302.3462      -207.30418      1380.9006      1586.7119      5118.1225     -3531.4107      1008.6474      4999.0645     -8487.2817     -52.187105     -3052.9757      6943.0212     -4889.6992     -471.58127      68074.616      40.831475      40.831475      40.831475      1.0750874     -1112.0231      535.40644     -45.295843    
     12000   12000          300.36476      1472.0421      2982.5791      1528.8148      5084.5808     -3555.766       1021.1159      4973.0402     -8492.5726     -50.641781     -3048.587       6932.8451     -4890.9658     -474.0715       67717.029      40.759855      40.759855      40.759855      1.0807645      1655.2906      1868.8863      891.94942    
     12100   12100          302.06977      721.57121      2217.3483      1505.2211      5113.4432     -3608.2221      1029.1569      4822.0674     -8449.2594     -54.085477     -3014.1047      6947.9646     -4889.9613     -474.39409      67670.981      40.750614      40.750614      40.750614      1.0814999      866.1763       1253.6106      44.926772    
     12200   12200          300.60285      230.19727      1726.1236      1498.3286      5088.6112     -3590.2825      1029.0692      4946.7555     -8463.5698     -53.597196     -3102.0438      6943.2897     -4890.1862     -473.12259      67852.845      40.787087      40.787087      40.787087      1.0786012      602.45336     -662.07604      750.2145     
     12300   12300          297.8184       485.80281      2003.3083      1522.094       5041.476      -3519.3819      1026.2748      5042.8079     -8494.2684     -53.558496     -3096.8526      6946.0602     -4889.8455     -472.64947      67920.765      40.800691      40.800691      40.800691      1.0775226      1687.2151     -166.57981     -63.226859    
     12400   12400          300.83911      271.39227      1793.6281      1524.7504      5092.6105     -3567.8602      1020.8774      4962.3412     -8458.1921     -53.618335     -3081.7606      6935.4451     -4892.9528     -472.56366      67933.098      40.803161      40.803161      40.803161      1.077327       495.59663     -98.02061       416.60078    
     12500   12500          300.68152      453.65075      1953.8474      1504.5347      5089.9429     -3585.4083      1023.2122      4988.2304     -8528.3035     -53.110911     -3048.9044      6926.3897     -4892.9217     -472.70541      67912.727      40.799082      40.799082      40.799082      1.0776501      453.92326      1569.1923     -662.16328    
     12600   12600          299.63606      155.16449      1648.4184      1494.4933      5072.2454     -3577.752       1021.9333      4882.0333     -8423.0323     -51.258336     -3059.5805      6941.6308     -4889.4782     -471.95495      68020.717      40.820696      40.820696      40.820696      1.0759393      789.61713     -864.60341      540.47974    
     12700   12700          301.01833      1151.9335      2691.9933      1547.3278      5095.6443     -3548.3166      1012.6566      4883.274      -8431.7633     -48.11235      -3031.5919      6954.5269     -4887.3066     -471.15785      68135.793      40.843703      40.843703      40.843703      1.0741221      2034.9812      1761.7391     -340.91986    
     12800   12800          300.97646     -1054.8633      602.99604      1655.4864      5094.9356     -3439.4493      1054.7624      5010.6123     -8442.7169     -56.097806     -3057.6936      6942.0569     -4890.3725     -469.24072      68414.168      40.899251      40.899251      40.899251      1.0697515     -337.44302     -1266.8195     -1560.3273    
     12900   12900          301.4248       113.11191      1723.99        1610.8467      5102.525      -3491.6784      1031.0524      4991.3032     -8492.3124     -52.310458     -3034.8825      6954.1886     -4888.7173     -468.05493      68587.492      40.93376       40.93376       40.93376       1.0670482      358.14096      440.83875     -459.64399    
     13000   13000          293.30531     -79.778441      1418.044       1497.9184      4965.0783     -3467.1599      1032.8472      4993.7776     -8445.0683     -52.890844     -3056.6659      6950.8459     -4890.0055     -467.62267      68650.893      40.946369      40.946369      40.946369      1.0660628      666.17762     -967.74145      62.228513    
     13100   13100          297.23033      300.84235      1791.865       1490.6851      5031.521      -3540.8359      994.58068      4965.3493     -8491.7926     -55.122505     -3004.0188      6940.9147     -4890.7466     -467.66051      68645.337      40.945265      40.945265      40.945265      1.066149       44.490074      871.57223     -13.535254    
     13200   13200          297.93468     -485.26036      1034.5118      1519.6811      5043.4444     -3523.7633      1040.2523      4990.9826     -8485.794      -53.401722     -3079.6744      6950.7421     -4886.8703     -468.27303      68555.546      40.927404      40.927404      40.927404      1.0675454     -150.68867     -27.723852     -1277.3686    
     13300   13300          301.8912       892.72273      2473.6917      1584.3896      5110.4203     -3526.0307      1045.7983      4987.6591     -8484.7617     -52.621868     -3078.4872      6946.4339     -4890.0513     -469.98599      68305.682      40.877621      40.877621      40.877621      1.0714505      836.48944      1464.5895      377.08925    
     13400   13400          302.31429     -118.37699      1506.0353      1623.3656      5117.5824     -3494.2169      1027.4565      5021.2646     -8462.9407     -52.333766     -3076.299       6938.0964     -4889.4608     -472.362        67962.101      40.808967      40.808967      40.808967      1.0768672      539.83375     -718.73133     -176.2334     
     13500   13500          298.62061      1314.2531      2894.6227      1596.4807      5055.0557     -3458.575       1018.0669      4938.4714     -8404.4953     -53.830925     -3015.9337      6947.0825     -4887.9359     -473.99575      67727.852      40.762026      40.762026      40.762026      1.0805918      1527.8345      1722.3713      692.55362    
     13600   13600          301.11067      347.5162       1867.1486      1523.6188      5097.2074     -3573.5887      1036.5533      4933.9925     -8475.7277     -50.799367     -3080.1046      6952.2369     -4889.7397     -473.61806      67781.861      40.772859      40.772859      40.772859      1.0797308     -130.8111       678.07639      495.28331    
     13700   13700          299.95803     -108.21771      1345.2416      1452.5103      5077.6956     -3625.1853      1048.8255      4899.6099     -8483.3027     -50.749405     -3101.7959      6951.9495     -4889.7222     -472.32702      67967.134      40.809974      40.809974      40.809974      1.0767875     -304.69919     -223.35498      203.40105    
     13800   13800          298.31387     -793.72708      646.32839      1435.087       5049.8632     -3614.7762      1046.6768      4898.6718     -8441.1467     -49.052842     -3118.6441      6941.024      -4892.3051     -471.13428      68139.202      40.844384      40.844384      40.844384      1.0740683     -793.03327     -761.39763     -826.75033    
     13900   13900          301.48764      602.67017      2145.358       1546.6856      5103.5889     -3556.9033      1015.9789      4966.0609     -8491.1757     -54.254327     -3058.3765      6953.0982     -4888.2347     -471.31155      68113.573      40.839262      40.839262      40.839262      1.0744725      779.85912      559.41105      468.74033    
     14000   14000          304.11796     -43.710312      1579.9816      1623.3879      5148.1151     -3524.7272      1060.8869      5016.307      -8470.4819     -50.852614     -3129.0932      6944.0817     -4895.5752     -471.4645       68091.476      40.834845      40.834845      40.834845      1.0748212      1031.1949     -817.00413     -345.32169    
     14100   14100          306.81305      1249.4182      2825.3289      1588.025       5193.7375     -3605.7125      987.76936      4952.9243     -8456.042      -50.686083     -3102.344       6952.026      -4889.36       -472.76912      67903.575      40.797249      40.797249      40.797249      1.0777954      255.87185      1870.9509      1621.432     
     14200   14200          298.46754      352.91402      1877.9118      1528.5796      5052.4646     -3523.8851      1023.4427      4882.6317     -8442.9855     -49.400611     -2992.0648      6947.2089     -4892.7175     -472.98556      67872.503      40.791025      40.791025      40.791025      1.0782888      180.7143       21.802534      856.22522    
     14300   14300          301.78082     -606.95772      915.15471      1517.5246      5108.5518     -3591.0272      1038.2609      4930.8768     -8442.8147     -54.178755     -3124.9853      6952.6976     -4890.8837     -471.75101      68050.121      40.826577      40.826577      40.826577      1.0754743     -651.68661      611.44141     -1780.628     
     14400   14400          298.82544      751.3919       2273.3908      1528.9696      5058.5231     -3529.5534      1024.5297      4888.3921     -8439.9642     -52.006425     -3005.6552      6945.0063     -4889.8557     -472.56923      67932.298      40.803001      40.803001      40.803001      1.0773397      1184.6317     -591.18899      1660.733     
     14500   14500          303.2672       630.86827      2162.3449      1537.7459      5133.7133     -3595.9674      1051.9803      4852.5264     -8439.0185     -51.939741     -3060.4174      6943.8777     -4892.9762     -472.88442      67887.019      40.793933      40.793933      40.793933      1.0780582      1731.4774     -976.1948       1137.3222    
     14600   14600          297.73729      301.44582      1815.529       1517.0842      5040.1029     -3523.0188      1020.0407      4947.6614     -8462.3563     -52.334863     -3049.2508      6960.4982     -4887.2771     -472.89298      67885.79       40.793687      40.793687      40.793687      1.0780778     -76.650204      1480.944      -499.9563     
     14700   14700          298.84841     -274.97914      1245.3832      1518.4052      5058.912      -3540.5067      1046.6976      4946.1508     -8440.3779     -51.33985      -3113.4901      6959.8663     -4888.0136     -471.54132      68080.383      40.832628      40.832628      40.832628      1.0749963      29.130185     -839.60115     -14.466449    
     14800   14800          300.06105      53.078002      1580.9458      1528.243       5079.4395     -3551.1965      1036.6846      4938.7143     -8473.9312     -53.805729     -3077.2427      6962.7781     -4884.3939     -471.51794      68083.759      40.833303      40.833303      40.833303      1.074943       670.20763      303.66641     -814.64003    
     14900   14900          303.26665      473.64757      2044.8363      1575.3638      5133.704      -3558.3402      1021.8518      4913.3169     -8449.0316     -50.741577     -3053.5289      6949.8108     -4890.0176     -472.34885      67963.992      40.809345      40.809345      40.809345      1.0768373      169.48285      718.52632      532.93354    
     15000   15000          304.12542      1484.3386      3015.301       1547.1804      5148.2413     -3601.0609      1049.0021      4951.9847     -8532.7618     -55.084946     -3069.9781      6943.9361     -4888.1589     -473.35709      67819.23       40.78035       40.78035       40.78035       1.0791358      1959.2813      472.52035      2021.2143    
     15100   15100          300.48457     -699.97953      775.88135      1467.1547      5086.6088     -3619.4541      1008.3869      4939.3616     -8472.5119     -48.61032      -3113.5701      6956.4805     -4888.9908     -474.08164      67715.582      40.759565      40.759565      40.759565      1.0807876     -905.34182     -475.54524     -719.05154    
     15200   15200          298.03521      1164.0074      2536.5376      1388.8105      5045.146      -3656.3355      998.95562      4930.0422     -8505.6006     -48.919519     -3089.7874      6944.7467     -4885.7725     -474.82627      67609.388      40.738247      40.738247      40.738247      1.0824852      2380.1217      824.67983      287.22077    
     15300   15300          298.51397     -242.44221      1149.3616      1388.5907      5053.2506     -3664.6599      1014.6083      4924.1448     -8476.7372     -51.040473     -3129.2126      6944.4941     -4890.9168     -474.47353      67659.651      40.74834       40.74834       40.74834       1.081681       174.14336      396.10253     -1297.5725    
     15400   15400          299.81691      1568.8879      3102.0338      1548.5826      5075.3068     -3526.7242      1043.6452      4968.4955     -8499.3583     -52.811861     -3047.7394      6951.8869     -4890.8423     -472.83754      67893.749      40.795281      40.795281      40.795281      1.0779514      2753.3861      2049.0501     -95.772431    
     15500   15500          298.68882      33.146807      1621.1456      1588.1743      5056.2104     -3468.0361      1019.8207      4984.1312     -8443.8424     -50.807428     -3039.3581      6953.397      -4891.3771     -470.67796      68205.262      40.857579      40.857579      40.857579      1.0730281     -1733.8031      1643.8937      189.34977    
     15600   15600          300.06266     -133.69848      1429.3628      1562.8354      5079.4668     -3516.6315      1023.3182      5054.1481     -8512.024      -52.352967     -3085.4599      6944.1065     -4888.3674     -468.97776      68452.529      40.906894      40.906894      40.906894      1.069152       152.39698      167.50882     -721.00125    
     15700   15700          298.88982      75.398244      1576.3804      1501.0554      5059.6129     -3558.5576      1029.9506      4931.5154     -8490.143      -51.371279     -3037.0387      6949.973      -4891.4436     -468.64033      68501.815      40.916709      40.916709      40.916709      1.0683828     -793.41995      1455.8277     -436.21301    
     15800   15800          296.58715      605.08897      2058.1726      1454.0481      5020.6333     -3566.5852      1020.8069      4986.3082     -8506.26       -55.688091     -3063.2879      6943.3381     -4891.8025     -468.93256      68459.127      40.908208      40.908208      40.908208      1.069049       1458.0817     -592.08266      949.26787    
     15900   15900          296.02594     -66.200899      1365.1403      1431.1054      5011.133      -3580.0276      1032.805       4881.1286     -8484.5245     -49.745974     -3020.4018      6953.565      -4892.8539     -469.85908      68324.132      40.881301      40.881301      40.881301      1.0711612     -1395.8548     -408.07528      1605.3274    
     16000   16000          301.15628      124.50396      1577.4039      1453.5074      5097.9796     -3644.4722      1029.028       4937.5547     -8547.2542     -51.610195     -3043.4217      6926.048      -4894.8167     -470.4803       68233.917      40.8633        40.8633        40.8633        1.0725774      604.61605     -179.15249     -51.951693    
     16100   16100          300.7637       52.997087      1593.0787      1540.3975      5091.334      -3550.9365      1035.2032      4947.7792     -8458.5325     -50.880845     -3064.8834      6934.1846     -4893.8067     -470.99272      68159.682      40.848475      40.848475      40.848475      1.0737456     -124.61816      637.21667     -353.60724    
     16200   16200          305.44835      885.83861      2482.9593      1604.1332      5170.6358     -3566.5026      1067.58        4833.9631     -8418.6712     -50.918232     -3040.225       6935.3975     -4893.6287     -471.921        68025.609      40.821674      40.821674      40.821674      1.0758619      1821.9516      912.56692     -77.002706    
     16300   16300          298.46002     -420.25532      1115.74        1532.6412      5052.3373     -3519.6961      1037.8388      4987.9133     -8483.1297     -51.051256     -3047.2581      6929.1937     -4893.2028     -471.95191      68021.154      40.820783      40.820783      40.820783      1.0759323     -326.14051     -566.99617     -367.6293     
     16400   16400          299.0875       172.25738      1578.0908      1407.0635      5062.9593     -3655.8958      1000.6932      4902.4594     -8492.9831     -53.470921     -3047.8814      6929.1583     -4893.8712     -471.55246      68078.775      40.832306      40.832306      40.832306      1.0750217      514.17064      811.29606     -808.69456    
     16500   16500          294.74071      191.89089      1622.2637      1431.4103      4989.3766     -3557.9663      1003.5317      4992.2808     -8475.0848     -52.229768     -3069.5094      6937.8581     -4894.8129     -470.73026      68197.685      40.856066      40.856066      40.856066      1.0731473     -959.99986      93.435104      1442.2374    
     16600   16600          299.83518      376.26734      1870.8657      1496.9525      5075.6161     -3578.6636      1006.1602      4905.7411     -8457.5369     -53.874602     -3020.8163      6933.7101     -4892.0472     -471.13279      68139.417      40.844427      40.844427      40.844427      1.074065       874.31224      1220.1256     -965.6358     
     16700   16700          303.35455     -310.91627      1261.3491      1569.8708      5135.1919     -3565.3212      1062.9582      4975.7306     -8453.3937     -50.612087     -3144.6089      6938.1056     -4893.5009     -471.81906      68040.307      40.824614      40.824614      40.824614      1.0756295     -604.59226     -581.79085      253.63429    
     16800   16800          305.25007      1218.8026      2784.6716      1580.7838      5167.2793     -3586.4955      1049.8801      4915.3845     -8505.997      -52.454929     -3032.8642      6934.4901     -4894.934      -473.98546      67729.322      40.762321      40.762321      40.762321      1.0805683      1275.8946      1284.8764      1095.6369    
     16900   16900          299.25715      1553.11        2935.9318      1403.1374      5065.8311     -3662.6938      1001.4515      4855.8239     -8473.6317     -51.245441     -3039.9023      6939.4007     -4894.5904     -474.39042      67671.505      40.750719      40.750719      40.750719      1.0814915      1991.1335      340.53463      2327.6617    
     17000   17000          295.87922      128.92184      1509.3137      1381.5731      5008.6495     -3627.0764      1055.4423      4914.8601     -8509.6211     -49.05256      -3081.3633      6934.2837     -4891.6255     -472.51462      67940.149      40.804572      40.804572      40.804572      1.0772152      1000.9873      187.03765     -801.25938    
     17100   17100          299.71988      1097.5663      2564.6868      1472.4543      5073.6643     -3601.21        998.15177      4931.001      -8477.6521     -50.231739     -3045.5056      6937.7394     -4894.7128     -470.4715       68235.193      40.863555      40.863555      40.863555      1.0725574      1513.8484      622.04165      1156.809     
     17200   17200          300.85951     -412.34296      1144.3329      1556.1723      5092.9558     -3536.7835      1048.3261      4956.2872     -8471.9617     -54.130693     -3051.935       6930.5847     -4893.9542     -468.75763      68484.674      40.913296      40.913296      40.913296      1.0686502     -914.05096      22.661497     -345.63943    
     17300   17300          300.36427      53.998694      1616.3631      1562.3917      5084.5725     -3522.1807      1032.749       4979.369      -8506.553      -50.220866     -3027.6867      6944.1606     -4893.9988     -468.42201      68533.743      40.923065      40.923065      40.923065      1.067885       222.37593     -148.44982      88.069973    
     17400   17400          298.02955      255.12831      1758.9634      1504.1524      5045.0503     -3540.8979      1049.3004      4846.8645     -8445.2309     -54.255602     -2991.5133      6943.9357     -4889.9987     -468.76818      68483.132      40.912989      40.912989      40.912989      1.0686742      1558.3464     -367.09327     -425.8682     
     17500   17500          302.13555      42.486167      1420.117       1377.6901      5114.5567     -3736.8666      977.64373      4885.7554     -8506.2355     -51.937628     -3095.6012      6945.4292     -4891.9207     -468.83906      68472.779      40.910927      40.910927      40.910927      1.0688358     -272.3162       499.75752     -99.98282     
     17600   17600          298.73052      82.499379      1466.5442      1384.1828      5056.9162     -3672.7335      991.01938      4920.0228     -8579.9922     -57.518785     -2997.8861      6945.7035     -4894.082      -468.96933      68453.759      40.907138      40.907138      40.907138      1.0691328      177.99178      367.29512     -297.78876    
     17700   17700          301.03611      538.29447      2116.8696      1579.3036      5095.9454     -3516.6418      1001.3912      4956.6285     -8446.8598     -51.257913     -3029.7949      6947.2404     -4893.9892     -468.81958      68475.625      40.911494      40.911494      40.911494      1.0687914      748.58299      240.62369      625.67674    
     17800   17800          302.16805     -1013.093       594.53679      1604.7755      5115.1069     -3510.3313      1007.2904      5022.5303     -8490.0942     -53.324147     -3040.8093      6937.4885     -4893.4129     -469.5079       68375.236      40.891491      40.891491      40.891491      1.0703606     -1250.1738      210.95165     -2000.0567    
     17900   17900          297.05915      1204.507       2713.7876      1516.1055      5028.6233     -3512.5178      1037.2266      5050.1808     -8551.8204     -52.549187     -3049.1005      6944.4106     -4890.8657     -470.85308      68179.896      40.852513      40.852513      40.852513      1.0734273      1008.2978      1063.8         1541.4232    
     18000   18000          295.81489     -401.51604      1049.4493      1448.7877      5007.5605     -3558.7729      1030.9896      4956.0355     -8488.4514     -54.493734     -3041.0277      6934.155      -4895.9801     -470.73824      68196.529      40.855835      40.855835      40.855835      1.0731655     -14.542917     -710.83711     -479.16808    
     18100   18100          300.13992      1304.6499      2769.0698      1471.8863      5080.7747     -3608.8885      1003.717       4915.5891     -8468.3399     -51.848261     -3058.7849      6942.8858     -4892.1073     -470.87991      68176.01       40.851737      40.851737      40.851737      1.0734885      975.56343      1206.6452      1731.741     
     18200   18200          306.94571     -699.4706       897.11273      1592.8352      5195.9832     -3603.1481      1011.9933      4927.4917     -8471.7483     -53.487296     -3052.3443      6927.4819     -4892.5352     -470.70746      68200.988      40.856725      40.856725      40.856725      1.0730953     -610.33519     -420.13824     -1067.9384    
     18300   18300          306.89459      952.99779      2613.7017      1666.0103      5195.1178     -3529.1075      1029.9168      4948.0891     -8480.3479     -54.867121     -3019.486       6939.3932     -4891.8056     -470.80669      68186.613      40.853855      40.853855      40.853855      1.0733215      1001.2085      1177.9714      679.81341    
     18400   18400          301.0721       1046.1827      2649.6268      1607.9544      5096.5546     -3488.6001      1070.5591      4960.1265     -8507.652      -52.668074     -2995.8258      6929.7915     -4892.9314     -470.21237      68272.797      40.87106       40.87106       40.87106       1.0719666      614.32792      602.18257      1922.0377    
     18500   18500          301.74911      490.05718      2032.8456      1542.8312      5108.015      -3565.1838      1012.1647      4938.6172     -8514.1393     -49.429395     -2983.9876      6926.3733     -4894.7827     -468.22607      68562.423      40.928772      40.928772      40.928772      1.0674384     -23.555669      866.68928      627.03793    
     18600   18600          300.36124      211.01848      1712.1985      1500.372       5084.5212     -3584.1492      1002.5243      5014.5733     -8546.2439     -52.114046     -3041.7145      6930.5128     -4891.6872     -466.39913      68830.989      40.982143      40.982143      40.982143      1.0632734     -462.85834     -251.42942      1347.3432    
     18700   18700          301.60215     -1213.2348      256.56399      1474.7961      5105.5273     -3630.7312      1028.5229      4851.2057     -8439.2621     -50.980013     -3057.0678      6928.6421     -4891.7921     -466.26461      68850.848      40.986085      40.986085      40.986085      1.0629667     -812.76544     -1206.985      -1619.9541    
     18800   18800          306.39697      1022.2975      2583.5748      1560.554       5186.6941     -3626.1401      992.03735      4930.126      -8523.9979     -52.153226     -3007.1473      6928.7462     -4893.7512     -467.85414      68616.928      40.939615      40.939615      40.939615      1.0665904      1470.3057      139.32052      1457.2664    
     18900   18900          305.44899      128.84011      1793.9668      1665.3162      5170.6467     -3505.3305      1059.4276      4979.0226     -8548.2428     -53.953786     -2971.6654      6922.5929     -4892.5116     -468.87492      68467.542      40.909884      40.909884      40.909884      1.0689176     -654.32999     -22.473228      1063.3236    
     19000   19000          301.81179     -43.550358      1575.5317      1618.9885      5109.0761     -3490.0876      1096.4502      4932.265      -8482.6711     -52.882452     -3009.5271      6921.0478     -4894.7699     -469.19277      68421.16       40.900644      40.900644      40.900644      1.0696422     -384.73718      677.55311     -423.467      
     19100   19100          298.9007       754.84297      2267.8407      1515.3452      5059.7971     -3544.452       1014.8893      4989.9975     -8478.8271     -51.111494     -3049.6999      6922.3563     -4892.0567     -469.64564      68355.182      40.887493      40.887493      40.887493      1.0706746      353.00533      330.18833      1581.3352    
     19200   19200          303.32807      717.71321      2209.2865      1494.8056      5134.7436     -3639.938       1020.674       4890.6294     -8497.0052     -49.019129     -3047.2342      6930.7334     -4888.7163     -470.30321      68259.609      40.868428      40.868428      40.868428      1.0721737      536.85372      585.02912      1031.2568    
     19300   19300          303.33476      365.55168      1846.078       1482.131       5134.857      -3652.726       978.24959      4970.6613     -8513.9932     -52.625286     -3073.7843      6927.4413     -4888.6754     -470.24937      68267.425      40.869988      40.869988      40.869988      1.072051       1549.5763     -462.0542       9.1329054    
     19400   19400          299.50163      294.17769      1770.6253      1478.233       5069.9696     -3591.7367      992.66217      4954.8624     -8484.2305     -48.735989     -3035.5125      6923.1042     -4893.8865     -471.04386      68152.281      40.846997      40.846997      40.846997      1.0738622      837.61039      644.96049     -600.03782    
     19500   19500          300.53665     -712.0183       785.68694      1492.5586      5087.4905     -3594.932       1015.7356      5031.7777     -8514.0638     -53.40079      -3114.5426      6933.23       -4893.668      -471.59397      68072.782      40.831108      40.831108      40.831108      1.0751163     -188.54085     -595.0969      -1352.4172    
     19600   19600          299.90585      1005.4516      2511.1348      1514.8615      5076.8123     -3561.9508      1004.0027      4972.7899     -8476.5858     -51.68611      -3049.9361      6931.4034     -4891.9389     -472.49834      67942.49       40.805041      40.805041      40.805041      1.0771781      38.553246      1784.2394      1193.5621    
     19700   19700          300.01864      739.62865      2269.5754      1536.7612      5078.7216     -3541.9604      1021.1289      5041.9503     -8544.2323     -53.446914     -3043.4211      6928.2235     -4892.1627     -472.53882      67936.669      40.803876      40.803876      40.803876      1.0772704      978.27803      1671.457      -430.84905    
     19800   19800          296.44993      501.45361      2024.3077      1526.8037      5018.3104     -3491.5067      1049.7663      4967.9479     -8420.6564     -49.834971     -3074.6659      6929.2709     -4893.3346     -471.90196      68028.354      40.822223      40.822223      40.822223      1.0758185      182.94533      639.57913      681.83638    
     19900   19900          302.39573      686.75039      2182.6536      1501.2784      5118.9611     -3617.6827      1033.9457      4932.7788     -8497.0554     -52.151697     -3070.768       6926.3189     -4890.751      -471.87852      68031.733      40.822899      40.822899      40.822899      1.075765       1348.4603     -214.07954      925.87046    
     20000   20000          297.58429      618.27891      2104.7529      1490.2561      5037.513      -3547.2569      997.45956      5033.999      -8512.5606     -55.864109     -3046.0967      6929.35       -4893.544      -471.06671      68148.976      40.846337      40.846337      40.846337      1.0739143      735.16206      620.61296      499.06173    
     20100   20100          299.52559     -736.27572      833.09529      1566.319       5070.3753     -3504.0563      1078.0361      4941.5197     -8433.1435     -51.959568     -3073.7806      6926.5683     -4891.2967     -470.13394      68284.186      40.873332      40.873332      40.873332      1.0717878     -2134.6605     -987.28782      913.12121    
     20200   20200          300.06822      954.24389      2597.641       1647.2033      5079.5609     -3432.3576      1051.2326      5040.3123     -8474.8672     -53.749687     -3035.6802      6934.894      -4894.4994     -470.06008      68294.916      40.875473      40.875473      40.875473      1.0716194      447.14006      2119.2942      296.29743    
     20300   20300          306.49211     -400.90732      1194.9916      1595.0757      5188.3047     -3593.2289      1042.3809      4914.2459     -8471.4993     -51.707777     -3061.527       6929.8352     -4894.9568     -469.1485       68427.616      40.90193       40.90193       40.90193       1.0695413      49.958788     -922.19577     -330.48499    
     20400   20400          303.69929      887.5002       2345.7388      1460.9562      5141.0277     -3680.0714      1006.8308      4843.1245     -8480.4831     -50.583262     -3045.6761      6939.5182     -4892.8026     -469.62322      68358.447      40.888144      40.888144      40.888144      1.0706235      1213.9058      933.8903       514.70452    
     20500   20500          301.1691       163.754        1615.7019      1452.8164      5098.1966     -3645.3802      1007.0538      4964.5226     -8491.7115     -54.356241     -3094.0111      6918.3221     -4895.1998     -470.68138      68204.766      40.85748       40.85748       40.85748       1.0730359     -125.07448      1210.4998     -594.16332    
     20600   20600          299.08641      668.33195      2127.8894      1465.204       5062.9408     -3597.7368      1000.73        4896.3352     -8488.7593     -50.352618     -3007.2173      6945.2572     -4893.73       -472.1744       67989.103      40.814371      40.814371      40.814371      1.0764396     -132.0055       878.91222      1258.0891    
     20700   20700          301.82078      160.93175      1659.4512      1500.1926      5109.2282     -3609.0356      997.61171      4961.4541     -8483.226      -53.085736     -3082.5675      6942.4245     -4891.6467     -473.10365      67855.561      40.787631      40.787631      40.787631      1.078558       747.91049      1853.8577     -2118.9729    
     20800   20800          305.72678     -315.3294       1300.7713      1612.6817      5175.3492     -3562.6674      1028.4758      5016.6194     -8527.5782     -53.383768     -3049.7575      6916.5285     -4893.5716     -473.31703      67824.97       40.781501      40.781501      40.781501      1.0790445      281.94422     -1058.4363     -169.49614    
     20900   20900          302.203       -48.852306      1578.5908      1627.0099      5115.6985     -3488.6886      1025.9         4996.9292     -8441.9061     -52.146432     -3055.7358      6932.9459     -4894.6753     -472.37398      67960.377      40.808622      40.808622      40.808622      1.0768946      51.897158      362.41167     -560.86575    
     21000   21000          301.75678      530.71113      2018.2395      1491.7351      5108.145      -3616.4099      1029.2673      4893.4153     -8475.5727     -50.226174     -3054.2827      6935.804      -4894.8149     -471.9259       68024.902      40.821533      40.821533      40.821533      1.0758731      1044.1534     -265.46486      813.44486    
     21100   21100          297.52991     -323.928        1113.9486      1435.6461      5036.5924     -3600.9463      1010.5137      4969.4971     -8474.2347     -49.665462     -3092.4636      6929.8635     -4894.4569     -471.4314       68096.256      40.835801      40.835801      40.835801      1.0747457     -1610.9318      499.44948      139.69831    
     21200   21200          301.30497     -691.22915      792.4512       1479.1955      5100.4967     -3621.3011      1024.2616      4897.5155     -8507.3166     -50.71852      -3034.7649      6940.4799     -4890.7581     -471.24265      68123.532      40.841252      40.841252      40.841252      1.0743154     -662.10136      229.22934     -1640.8154    
[...]
    495200   495200         297.99398      160.33361      1652.1739      1492.7105      5044.4482     -3551.7377      1058.4568      4876.8411     -8433.5756     -53.403659     -3052.1926      6940.8078     -4888.6715     -470.7399       68196.288      40.855787      40.855787      40.855787      1.0731693      101.35414      1006.0917     -626.44504    
    495300   495300         290.52869     -416.97202      985.89691      1401.8616      4918.0755     -3516.2139      1078.8312      4937.6703     -8454.5908     -51.652027     -3073.4538      6941.0937     -4894.1124     -469.31891      68402.771      40.896979      40.896979      40.896979      1.0699298      174.6019      -511.93178     -913.5862     
    495400   495400         292.15673      101.94275      1489.7566      1388.0119      4945.635      -3557.6231      1045.3968      4957.5883     -8544.7151     -52.157334     -3024.8849      6949.9891     -4888.84       -469.09639      68435.218      40.903445      40.903445      40.903445      1.0694225      35.906058      934.46975     -664.54756    
    495500   495500         301.28666      437.78739      1979.2123      1541.6696      5100.1867     -3558.517       1027.4895      4954.125      -8462.2094     -52.60448      -3071.0934      6939.4162     -4893.6405     -468.44698      68530.09       40.922338      40.922338      40.922338      1.067942       1290.1286     -432.49017      455.7237     
    495600   495600         303.06415      66.777633      1653.3023      1586.6642      5130.2761     -3543.6119      1014.3407      4907.1994     -8477.3975     -51.338666     -2989.1116      6945.1361     -4892.4403     -469.16534      68425.16       40.901441      40.901441      40.901441      1.0695797      30.977087     -71.274996      240.63081    
    495700   495700         301.83839      959.24402      2547.1253      1591.5165      5109.5264     -3518.0099      1010.4258      5021.8854     -8494.3223     -50.266492     -3050.0827      6941.1974     -4896.847      -469.96614      68308.567      40.878196      40.878196      40.878196      1.0714053      1159.8196      1391.2612      326.65123    
    495800   495800         297.45721     -233.89802      1277.6308      1510.3311      5035.3617     -3525.0306      1054.2326      4919.7217     -8461.3812     -52.462173     -3035.4896      6943.6037     -4893.2556     -470.59486      68217.306      40.859984      40.859984      40.859984      1.0728386      361.05755     -892.23229     -170.51933    
    495900   495900         298.14249      1319.4584      2761.6797      1450.3183      5046.9621     -3596.6437      999.88769      4951.0028     -8520.6725     -57.141529     -3007.9919      6934.8702     -4896.5986     -471.07598      68147.634      40.846068      40.846068      40.846068      1.0739354      864.91592      1655.5722      1437.887     
    496000   496000         301.80017     -113.89418      1400.5314      1513.888       5108.8793     -3594.9913      1037.7447      4892.4621     -8428.2315     -51.842137     -3090.0446      6939.1859     -4894.2657     -470.40539      68244.783      40.865469      40.865469      40.865469      1.0724067      266.59696     -1373.2782      764.99875    
    496100   496100         303.16308      401.37768      2044.8667      1645.1255      5131.9507     -3486.8252      1027.6154      4996.7333     -8491.6437     -50.288661     -3013.6456      6935.7804     -4891.3763     -470.10174      68288.864      40.874266      40.874266      40.874266      1.0717144      783.49356      116.49219      304.1473     
    496200   496200         301.19895      576.53555      2223.0072      1647.5384      5098.7019     -3451.1635      1049.7669      4953.1879     -8432.7892     -53.867136     -3007.9526      6931.4858     -4890.9952     -469.05305      68441.542      40.904705      40.904705      40.904705      1.0693237     -475.15121      1083.1007      1121.6572    
    496300   496300         295.28168     -60.063434      1518.3135      1578.338       4998.5343     -3420.1963      1091.6066      4952.5298     -8428.7163     -54.25196      -3015.4716      6930.2973     -4896.1902     -468.48895      68523.951      40.921116      40.921116      40.921116      1.0680377     -993.89699      1164.9617     -351.25499    
    496400   496400         296.94516      821.37678      2296.1851      1475.8651      5026.6936     -3550.8285      1037.3673      4950.1486     -8472.9014     -52.880748     -3043.8878      6923.1824     -4891.8568     -468.7883       68480.194      40.912404      40.912404      40.912404      1.0687201     -103.6915       786.91048      1780.9114    
    496500   496500         300.22316      1037.4526      2515.8264      1481.312       5082.1837     -3600.8717      1020.9356      4914.3258     -8507.5832     -51.971669     -3032.7805      6946.4978     -4890.2955     -469.51485      68374.225      40.891289      40.891289      40.891289      1.0703764      1004.1677      1242.1453      866.04478    
    496600   496600         299.60972      834.97806      2497.4762      1665.9667      5071.7995     -3405.8328      1063.918       4923.7506     -8397.5085     -51.542089     -2992.9674      6939.2992     -4890.7825     -470.13811      68283.581      40.873212      40.873212      40.873212      1.0717973     -238.37035      1483.3269      1259.9776    
    496700   496700         301.31153      214.85799      1898.7504      1685.1181      5100.6077     -3415.4896      1043.4643      5048.72       -8493.7175     -51.906817     -3010.4736      6942.0746     -4893.6506     -470.87128      68177.259      40.851987      40.851987      40.851987      1.0734688      1974.9282     -392.2241      -938.13011    
    496800   496800         301.36215      1171.2752      2751.787       1586.6067      5101.4645     -3514.8579      1004.9229      4980.9591     -8498.1152     -54.595217     -3002.3512      6946.238      -4891.9161     -470.63415      68211.611      40.858847      40.858847      40.858847      1.0729282      750.28561      1619.9521      1143.5879    
    496900   496900         301.59589      48.703189      1562.9841      1514.4068      5105.4214     -3591.0146      1055.5436      4890.8372     -8489.4187     -52.104032     -3041.2127      6936.841      -4891.5009     -469.39841      68391.186      40.89467       40.89467       40.89467       1.070111      -234.84684      490.36375     -109.40735    
    497000   497000         294.31379      184.94659      1675.7577      1490.7439      4982.1498     -3491.4059      1063.8002      4884.1462     -8435.703      -53.197019     -3008.024       6947.3245     -4889.7528     -468.01501      68593.342      40.934924      40.934924      40.934924      1.0669572      396.84691     -96.425944      254.41881    
    497100   497100         304.90987      205.86026      1764.3464      1557.8575      5161.5205     -3603.663       1028.4953      4878.8964     -8510.1175     -50.630805     -2999.1811      6940.4633     -4891.5885     -466.75963      68777.827      40.97159       40.97159       40.97159       1.0640953     -518.14783      744.1689       391.5597     
    497200   497200         304.76314      1196.0296      2874.3849      1671.6595      5159.0366     -3487.3771      1026.2219      4946.1441     -8483.9771     -52.94988      -2981.743       6947.7129     -4888.786      -465.5787       68952.282      41.006202      41.006202      41.006202      1.061403       1337.5667      1028.4277      1222.0945    
    497300   497300         299.85558     -756.78749      889.14824      1652.0639      5075.9613     -3423.8974      1057.0411      4954.2509     -8428.5602     -49.779428     -3017.082       6950.5012     -4890.269      -464.42444      69123.653      41.040146      41.040146      41.040146      1.0587716     -1465.02       -1062.4403      257.09786    
    497400   497400         298.98246     -1156.0091      422.21417      1587.4026      5061.1811     -3473.7786      1059.426       4958.3037     -8426.5254     -52.715845     -3061.4806      6939.355      -4890.1413     -464.4968       69112.885      41.038014      41.038014      41.038014      1.0589365     -497.59895     -1393.3456     -1577.0827    
    497500   497500         299.73867      72.233055      1626.2547      1553.947       5073.9822     -3520.0352      1034.5757      4870.9812     -8452.5502     -51.716936     -3003.2537      6967.8142     -4885.8854     -467.70221      68639.217      40.944048      40.944048      40.944048      1.0662441      569.6639       60.153408     -413.11815    
    497600   497600         301.09189      1008.4658      2557.1543      1554.9687      5096.8896     -3541.9209      1019.9966      4897.158      -8499.961      -49.468815     -2974.4674      6951.3355     -4886.5138     -471.11902      68141.409      40.844825      40.844825      40.844825      1.0740336      613.51084      1102.079       1309.8076    
    497700   497700         301.8215       784.90093      2325.1598      1547.4152      5109.2404     -3561.8252      980.68884      4976.0535     -8492.9408     -53.030536     -3039.4293      6953.364      -4886.531      -472.49312      67943.241      40.805191      40.805191      40.805191      1.0771662      1567.7902      1471.2039     -684.29133    
    497800   497800         298.93252      993.12691      2514.7608      1530.8761      5060.3357     -3529.4596      1037.7648      4904.0256     -8444.6531     -51.990184     -3039.4686      6953.9827     -4889.1209     -472.5831       67930.304      40.802601      40.802601      40.802601      1.0773713      807.10541      699.01165      1473.2637    
    497900   497900         294.81993      503.21905      1939.1428      1439.4459      4990.7177     -3551.2718      1005.4822      4870.583      -8399.6654     -49.340941     -3055.6897      6964.7744     -4887.4153     -471.48515      68088.494      40.834249      40.834249      40.834249      1.0748682     -338.75735      1585.2211      263.1934     
    498000   498000         294.99127      207.3264       1560.8626      1354.2627      4993.6182     -3639.3554      995.72014      4969.7646     -8523.5047     -51.734349     -3091.5556      6950.8912     -4888.9367     -469.83167      68328.117      40.882096      40.882096      40.882096      1.0710987      415.42702      41.475145      165.07704    
    498100   498100         298.22914      526.82502      1964.9641      1439.2666      5048.4289     -3609.1624      994.85896      4854.1645     -8462.2048     -51.568523     -3009.4619      6954.4921     -4889.4428     -469.18927      68421.671      40.900746      40.900746      40.900746      1.0696342     -754.77085      1469.9476      865.29833    
    498200   498200         304.79534      736.62204      2280.9666      1545.1637      5159.5817     -3614.418       1013.5079      4783.5595     -8427.9486     -51.203186     -3000.9935      6954.9832     -4886.3233     -468.70639      68492.161      40.914786      40.914786      40.914786      1.0685334      984.39151      1189.6064      35.868225    
    498300   498300         301.39928     -93.843988      1496.3236      1590.2434      5102.0932     -3511.8498      1030.4066      4954.679      -8474.9495     -51.916425     -3022.0937      6941.1905     -4889.1662     -467.80709      68623.829      40.940988      40.940988      40.940988      1.0664832     -1037.0639     -101.31703      856.84898    
    498400   498400         301.41508      309.3153       1945.7511      1636.3108      5102.3606     -3466.0498      1052.9752      4973.4613     -8483.3891     -52.734834     -3013.7154      6945.8372     -4888.4842     -467.99596      68596.134      40.935479      40.935479      40.935479      1.0669138      124.32206      587.38145      216.24239    
    498500   498500         302.31845      448.83507      2066.1645      1618.073       5117.6529     -3499.5799      1048.0049      4883.0679     -8420.0968     -52.208713     -3028.6351      6955.2946     -4885.0066     -468.96206      68454.821      40.90735       40.90735       40.90735       1.0691162      642.34568     -97.748782      801.90831    
    498600   498600         295.33771      1037.5592      2531.6847      1497.6131      4999.4827     -3501.8696      1054.464       4898.5248     -8501.775      -53.64981      -2977.1733      6955.0694     -4877.3296     -469.7642       68337.931      40.884053      40.884053      40.884053      1.0709449      333.47474      919.7322       1859.4707    
    498700   498700         294.9787      -178.79872      1285.4206      1463.9319      4993.4055     -3529.4735      1064.895       4871.6761     -8449.211      -49.13244      -3036.8452      6954.5555     -4885.4115     -468.939        68458.187      40.90802       40.90802       40.90802       1.0690637      622.74982      372.61368     -1531.7597    
    498800   498800         300.20819     -65.973856      1489.6733      1555.5869      5081.9303     -3526.3433      1039.3403      4932.4883     -8452.9185     -53.419754     -3055.8649      6950.2122     -4886.1809     -468.61284      68505.834      40.917509      40.917509      40.917509      1.0683201     -281.25521      363.38381     -280.05017    
    498900   498900         304.38117      465.09441      2157.2739      1692.7723      5152.5706     -3459.7983      1049.8478      4989.3924     -8477.3816     -55.675462     -3030.6434      6955.7754     -4891.1135     -468.78263      68481.022      40.912568      40.912568      40.912568      1.0687072      1054.0465      1498.1949     -1156.9582    
    499000   499000         301.24391      66.649414      1709.9003      1643.356       5099.4629     -3456.1069      1035.5065      4981.9133     -8465.2802     -52.617369     -3019.5281      6949.9629     -4886.064      -468.92506      68460.221      40.908426      40.908426      40.908426      1.0690319     -750.41784     -779.14822      1729.5143    
    499100   499100         298.73642      171.2936       1730.1066      1559.2593      5057.0162     -3497.7568      1047.0278      4931.2412     -8469.0257     -54.491659     -3033.8056      6964.0335     -4882.7363     -469.40833      68389.739      40.894382      40.894382      40.894382      1.0701336      449.86985     -172.26259      236.27356    
    499200   499200         300.48039      690.19682      2183.5972      1496.9147      5086.5382     -3589.6235      1003.4479      4887.3968     -8469.954      -51.723801     -3023.6428      6952.3911     -4887.5386     -470.5813       68219.272      40.860376      40.860376      40.860376      1.0728077     -91.749996      1538.9713      623.36921    
    499300   499300         299.66219     -369.58676      1133.667       1500.4151      5072.6876     -3572.2725      1022.7937      4912.2676     -8446.5223     -52.990375     -3064.7429      6946.0512     -4889.1294     -471.80898      68041.761      40.824905      40.824905      40.824905      1.0756065     -884.82486     -110.64583     -113.2896     
    499400   499400         299.92376      1510.8336      3131.4504      1635.3823      5077.1155     -3441.7332      1033.4572      5029.8442     -8503.7096     -52.803157     -3028.2221      6965.7386     -4886.0383     -472.80594      67898.288      40.79619       40.79619       40.79619       1.0778793      1890.9091      1179.3491      1462.2427    
    499500   499500         302.37392      61.376338      1767.4177      1706.5455      5118.5918     -3412.0463      1080.9226      5084.8688     -8490.8814     -51.71946      -3122.5122      6971.1464     -4883.871      -472.06289      68005.163      40.817584      40.817584      40.817584      1.0761853     -398.42991      797.3947      -214.83578    
    499600   499600         303.40642      19.025906      1641.0894      1622.19        5136.0701     -3513.8801      1021.3292      4988.0493     -8477.4765     -53.101718     -3070.3853      6962.6697     -4884.9647     -471.31957      68112.415      40.839031      40.839031      40.839031      1.0744908      285.80782     -438.64608      209.91597    
    499700   499700         300.49524      563.43192      2120.9764      1560.324       5086.7896     -3526.4656      1041.8999      4895.2132     -8481.8236     -51.826079     -3002.2298      6959.5088     -4887.208      -470.50628      68230.149      40.862548      40.862548      40.862548      1.0726367      1065.8566     -226.59728      851.03642    
    499800   499800         300.88299     -807.60862      723.48804      1528.7246      5093.3533     -3564.6287      1050.347       4915.412      -8496.5892     -53.748051     -3043.1645      6952.1211     -4889.007      -469.56431      68367.022      40.889854      40.889854      40.889854      1.0704892     -862.70469     -158.82282     -1401.2984    
    499900   499900         302.46423      1626.4621      3132.9104      1510.5085      5120.1206     -3609.6122      1004.2563      4900.3104     -8494.6919     -51.632221     -3033.1685      6955.5462     -4890.2325     -469.35682      68397.246      40.895878      40.895878      40.895878      1.0700162      1381.441       1161.2818      2336.6635    
    500000   500000         296.36618      463.72417      1971.6768      1509.2921      5016.8927     -3507.6006      1023.4004      5021.6263     -8510.7237     -51.952056     -3041.925       6941.7879     -4889.8145     -469.54146      68370.349      40.890517      40.890517      40.890517      1.0704371     -85.843162      1766.1852     -289.16949    
Loop time of 1112.64 on 1 procs for 500000 steps with 7020 atoms

Performance: 38.827 ns/day, 0.618 hours/ns, 449.383 timesteps/s, 3.155 Matom-step/s
99.9% CPU use with 1 MPI tasks x 1 OpenMP threads

MPI task timing breakdown:
Section |  min time  |  avg time  |  max time  |%varavg| %total
---------------------------------------------------------------
Pair    | 127.72     | 127.72     | 127.72     |   0.0 | 11.48
Bond    | 110.08     | 110.08     | 110.08     |   0.0 |  9.89
Kspace  | 471.33     | 471.33     | 471.33     |   0.0 | 42.36
Neigh   | 71.554     | 71.554     | 71.554     |   0.0 |  6.43
Comm    | 12.947     | 12.947     | 12.947     |   0.0 |  1.16
Output  | 5.3509     | 5.3509     | 5.3509     |   0.0 |  0.48
Modify  | 283.99     | 283.99     | 283.99     |   0.0 | 25.52
Other   |            | 29.68      |            |       |  2.67

Nlocal:           7020 ave        7020 max        7020 min
Histogram: 1 0 0 0 0 0 0 0 0 0
Nghost:          19882 ave       19882 max       19882 min
Histogram: 1 0 0 0 0 0 0 0 0 0
Neighs:              0 ave           0 max           0 min
Histogram: 1 0 0 0 0 0 0 0 0 0
FullNghs:   4.5858e+06 ave  4.5858e+06 max  4.5858e+06 min
Histogram: 1 0 0 0 0 0 0 0 0 0

Total # of neighbors = 4585796
Ave neighs/atom = 653.24729
Ave special neighs/atom = 5.7008547
Neighbor list builds = 14654
Dangerous builds = 0

# --- Cleanup ---
unfix npt_fix
unfix shake_fix
undump dump_npt

# --- Write Output ---
write_dump all custom /home/alexzhao/PolyJarvis/data/PEG3/lammps/mechanical/bm_series/bm_P300/bm_P300_last.dump id type mol x y z xu yu zu vx vy vz modify sort id
write_data /home/alexzhao/PolyJarvis/data/PEG3/lammps/mechanical/bm_series/bm_P300/bm_P300_out.data
System init for write_data ...
PPPM Kokkos initialization ...
  using 12-bit tables for long-range coulomb
  G vector (1/distance) = 0.30336106
  grid = 30 30 30
  stencil order = 5
  estimated absolute RMS force accuracy = 0.00030203046
  estimated relative force accuracy = 9.0955577e-07
  using double precision cuFFT
  3d grid and FFT values/proc = 50653 27000
Generated 10 of 10 mixed pair_coeff terms from sixthpower/sixthpower mixing rule

print "STAGE COMPLETE: NPT T=300.0->300.0K P=300.0->300.0atm steps=500000"
STAGE COMPLETE: NPT T=300.0->300.0K P=300.0->300.0atm steps=500000
quit
