units real
atom_style full
boundary p p p

# --- Force Field Styles ---
pair_style lj/class2/coul/long 9.5 9.5
kspace_style pppm 1e-6
dielectric 1.000000
bond_style class2
angle_style class2
dihedral_style class2
improper_style class2
special_bonds lj/coul 0 0 1
pair_modify mix sixthpower tail yes
neighbor 2.0 bin
neigh_modify delay 0 every 1 check yes
neigh_modify one 4000
# KOKKOS: package loaded via -pk kokkos on the command line

read_data /home/arz2/PolyJarvis/data/PLA2/lammps/equil/npt_cool300/npt_cool300_out.data
Reading data file ...
  orthogonal box = (4.5063122 4.5063122 4.5063122) to (41.126811 41.126811 41.126811)
  1 by 1 by 1 MPI processor grid
  reading atoms ...
  4520 atoms
  reading velocities ...
  4520 velocities
  scanning bonds ...
  4 = max bonds/atom
  scanning angles ...
  12 = max angles/atom
  scanning dihedrals ...
  21 = max dihedrals/atom
  scanning impropers ...
  8 = max impropers/atom
  orthogonal box = (4.5063122 4.5063122 4.5063122) to (41.126811 41.126811 41.126811)
  1 by 1 by 1 MPI processor grid
  reading bonds ...
  4510 bonds
  reading angles ...
  8000 angles
  reading dihedrals ...
  9970 dihedrals
  reading impropers ...
  4500 impropers
Finding 1-2 1-3 1-4 neighbors ...
  special bond factors lj:    0        0        1       
  special bond factors coul:  0        0        1       
     4 = max # of 1-2 neighbors
     6 = max # of 1-3 neighbors
    10 = max # of special neighbors
  special bonds CPU = 0.004 seconds
  read_data CPU = 0.381 seconds
include /home/arz2/PolyJarvis/data/PLA2/lammps/equil/emc_build.params
# LAMMPS parameters created by EMC v9.4.4, build Jul 31 2025 20:33:44

# Variables

variable	seed		index	472913
variable	ntotal		index	4520
variable	fshape		index	1
variable	output		index	emc_build
variable	field		index	pcff/pcff
variable	location1	index	/home/arz2/emc/field/
variable	nav		index	0.6022141179
variable	temperature	index	300
variable	radius		index	5
variable	nrelax		index	100
variable	weight_nonbond	index	0.0001
variable	weight_bond	index	0.0001
variable	weight_focus	index	1
variable	cutoff		index	9.5
variable	charge_cutoff	index	9.5
variable	kappa		index	4
variable	density1	index	0.63
variable	lprevious	index	0
variable	lphase		index	45.6331234262
variable	f_poly		index	10
variable	chem_repeat	index	*C(C)C(=O)O*
variable	chem_cap	index	*[H]
variable	lg_repeat	index	9
variable	lg_cap		index	1
variable	norm_poly	index	100
variable	l_poly		index	452
variable	mg_repeat	index	44.05358
variable	mg_cap		index	0
variable	m_poly		index	2202.679
variable	n_poly		index	10
variable	mtotal		index	36052.2247
variable	nphase1		index	4520
variable	mphase1		index	36052.2247
variable	vphase1		index	95025.5927105
variable	lbox		index	45.6331234262
variable	lphase1		index	45.6331234262
variable	lxx		index	45.6331234262
variable	lyy		index	45.6331234262
variable	lzz		index	45.6331234262
variable	lzy		index	0
variable	lzx		index	0
variable	lyx		index	0
variable	vtotal		index	95025.5927105
variable	nl_poly		index	10

# Types

variable	type_c		index	1
variable	type_c1		index	2
variable	type_c_1	index	3
variable	type_hc		index	4
variable	type_ho2	index	5
variable	type_o_1	index	6
variable	type_o_2	index	7

variable	type_bond_c_c	index	1
variable	type_bond_c_c1	index	2
variable	type_bond_c_c_1	index	3
variable	type_bond_c_hc	index	4
variable	type_bond_c1_c_1 index	5
variable	type_bond_c1_hc	index	6
variable	type_bond_c1_o_2 index	7
variable	type_bond_c_1_o_1 index	8
variable	type_bond_c_1_o_2 index	9
variable	type_bond_ho2_o_2 index	10

variable	type_angle_c_c_c_1 index	1
variable	type_angle_c_c_hc index	2
variable	type_angle_c_c1_c_1 index	3
variable	type_angle_c_c1_hc index	4
variable	type_angle_c_c1_o_2 index	5
variable	type_angle_c_c_1_o_1 index	6
variable	type_angle_c_c_1_o_2 index	7
variable	type_angle_c1_c_hc index	8
variable	type_angle_c1_c_1_o_1 index	9
variable	type_angle_c1_c_1_o_2 index	10
variable	type_angle_c1_o_2_c_1 index	11
variable	type_angle_c_1_c_hc index	12
variable	type_angle_c_1_c1_hc index	13
variable	type_angle_c_1_c1_o_2 index	14
variable	type_angle_c_1_o_2_ho2 index	15
variable	type_angle_hc_c_hc index	16
variable	type_angle_hc_c1_o_2 index	17
variable	type_angle_o_1_c_1_o_2 index	18

# Clusters

variable	n0_poly		index	1
variable	n1_poly		index	10
variable	nl_poly		index	10

# Flags

variable	flag_charged	index	1

# Masses

mass		1    12.01115  # c
mass		2    12.01115  # c1
mass		3    12.01115  # c_1
mass		4     1.00797  # hc
mass		5     1.00800  # ho2
mass		6    15.99940  # o_1
mass		7    15.99940  # o_2

# Potentials

pair_modify	mix sixthpower tail yes
special_bonds	lj/coul 0 0 1

# Pair Coeffs

pair_coeff	 1  1    0.05400    4.01000  # c,c
pair_coeff	 2  2    0.05400    4.01000  # c1,c1
pair_coeff	 3  3    0.12000    3.81000  # c_1,c_1
pair_coeff	 4  4    0.02000    2.99500  # hc,hc
pair_coeff	 5  5    0.01300    1.11000  # ho2,ho2
pair_coeff	 6  6    0.26700    3.30000  # o_1,o_1
pair_coeff	 7  7    0.24000    3.42000  # o_2,o_2

# Bond Coeffs

bond_coeff	 1    1.53000  299.67000 -501.77000  679.81000  # c,c
bond_coeff	 2    1.53000  299.67000 -501.77000  679.81000  # c,c1
bond_coeff	 3    1.52020  253.70670 -423.03700  396.90000  # c,c_1
bond_coeff	 4    1.10100  345.00000 -691.89000  844.60000  # c,hc
bond_coeff	 5    1.52020  253.70670 -423.03700  396.90000  # c1,c_1
bond_coeff	 6    1.10100  345.00000 -691.89000  844.60000  # c1,hc
bond_coeff	 7    1.43000  326.72730 -608.53060  689.03330  # c1,o_2
bond_coeff	 8    1.20200  851.14030 -1918.48820 2160.76590  # c_1,o_1
bond_coeff	 9    1.36830  367.14810 -794.79080 1055.23190  # c_1,o_2
bond_coeff	10    0.95200  534.29940 -1287.19370 1889.13960  # ho2,o_2

# Angle Coeffs

angle_coeff	 1  108.52950   51.97470   -9.48510  -10.99850  # c,c,c_1
angle_coeff	 2  110.77000   41.45300  -10.60400    5.12900  # c,c,hc
angle_coeff	 3  108.52950   51.97470   -9.48510  -10.99850  # c,c1,c_1
angle_coeff	 4  110.77000   41.45300  -10.60400    5.12900  # c,c1,hc
angle_coeff	 5  107.41000   63.39070  -13.45130    1.66500  # c,c1,o_2
angle_coeff	 6  123.14510   55.54310  -17.21230    0.13480  # c,c_1,o_1
angle_coeff	 7  100.31820   38.86310   -3.83230   -7.98020  # c,c_1,o_2
angle_coeff	 8  110.77000   41.45300  -10.60400    5.12900  # c1,c,hc
angle_coeff	 9  123.14510   55.54310  -17.21230    0.13480  # c1,c_1,o_1
angle_coeff	10  100.31820   38.86310   -3.83230   -7.98020  # c1,c_1,o_2
angle_coeff	11  113.28800   61.28680  -28.97860    7.99290  # c1,o_2,c_1
angle_coeff	12  107.73360   40.60990  -28.81210    0.00000  # c_1,c,hc
angle_coeff	13  107.73360   40.60990  -28.81210    0.00000  # c_1,c1,hc
angle_coeff	14  109.50000   60.00000    0.00000    0.00000  # c_1,c1,o_2
angle_coeff	15  112.87400   53.25120  -14.99790    2.46400  # c_1,o_2,ho2
angle_coeff	16  107.66000   39.64100  -12.92100   -2.43180  # hc,c,hc
angle_coeff	17  107.68800   65.48010  -10.34980    5.88660  # hc,c1,o_2
angle_coeff	18  120.79700   95.34460  -32.28690    6.37780  # o_1,c_1,o_2

# BondBond Coeffs

angle_coeff	 1 bb    5.41990    1.53000    1.52020  # c,c,c_1
angle_coeff	 2 bb    3.38720    1.53000    1.10100  # c,c,hc
angle_coeff	 3 bb    5.41990    1.53000    1.52020  # c,c1,c_1
angle_coeff	 4 bb    3.38720    1.53000    1.10100  # c,c1,hc
angle_coeff	 5 bb   23.26470    1.53000    1.43000  # c,c1,o_2
angle_coeff	 6 bb   46.06850    1.52020    1.20200  # c,c_1,o_1
angle_coeff	 7 bb   19.10690    1.52020    1.36830  # c,c_1,o_2
angle_coeff	 8 bb    3.38720    1.53000    1.10100  # c1,c,hc
angle_coeff	 9 bb   46.06850    1.52020    1.20200  # c1,c_1,o_1
angle_coeff	10 bb   19.10690    1.52020    1.36830  # c1,c_1,o_2
angle_coeff	11 bb   45.45030    1.43000    1.36830  # c1,o_2,c_1
angle_coeff	12 bb    0.71150    1.52020    1.10100  # c_1,c,hc
angle_coeff	13 bb    0.71150    1.52020    1.10100  # c_1,c1,hc
angle_coeff	14 bb    0.00000    1.52020    1.43000  # c_1,c1,o_2
angle_coeff	15 bb    9.56710    1.36830    0.95200  # c_1,o_2,ho2
angle_coeff	16 bb    5.33160    1.10100    1.10100  # hc,c,hc
angle_coeff	17 bb    5.64540    1.10100    1.43000  # hc,c1,o_2
angle_coeff	18 bb  121.48800    1.20200    1.36830  # o_1,c_1,o_2

# BondAngle Coeffs

angle_coeff	 1 ba   18.16780   15.87580    1.53000    1.52020  # c,c,c_1
angle_coeff	 2 ba   20.75400   11.42100    1.53000    1.10100  # c,c,hc
angle_coeff	 3 ba   18.16780   15.87580    1.53000    1.52020  # c,c1,c_1
angle_coeff	 4 ba   20.75400   11.42100    1.53000    1.10100  # c,c1,hc
angle_coeff	 5 ba   23.39200   47.94870    1.53000    1.43000  # c,c1,o_2
angle_coeff	 6 ba   34.99820   37.12980    1.52020    1.20200  # c,c_1,o_1
angle_coeff	 7 ba    1.34350    4.69780    1.52020    1.36830  # c,c_1,o_2
angle_coeff	 8 ba   20.75400   11.42100    1.53000    1.10100  # c1,c,hc
angle_coeff	 9 ba   34.99820   37.12980    1.52020    1.20200  # c1,c_1,o_1
angle_coeff	10 ba    1.34350    4.69780    1.52020    1.36830  # c1,c_1,o_2
angle_coeff	11 ba   41.91160   46.46080    1.43000    1.36830  # c1,o_2,c_1
angle_coeff	12 ba   12.46320    9.17650    1.52020    1.10100  # c_1,c,hc
angle_coeff	13 ba   12.46320    9.17650    1.52020    1.10100  # c_1,c1,hc
angle_coeff	14 ba    0.00000    0.00000    1.52020    1.43000  # c_1,c1,o_2
angle_coeff	15 ba   37.91630   21.43640    1.36830    0.95200  # c_1,o_2,ho2
angle_coeff	16 ba   18.10300   18.10300    1.10100    1.10100  # hc,c,hc
angle_coeff	17 ba    8.68640   57.49750    1.10100    1.43000  # hc,c1,o_2
angle_coeff	18 ba   76.26140   71.87610    1.20200    1.36830  # o_1,c_1,o_2

# Dihedral Coeffs

dihedral_coeff	 1    0.04420    0.00000    0.02920    0.00000    0.05620    0.00000  # c,c,c_1,o_1
dihedral_coeff	 2    1.83410    0.00000    2.06030    0.00000   -0.01950    0.00000  # c,c,c_1,o_2
dihedral_coeff	 3    0.04420    0.00000    0.02920    0.00000    0.05620    0.00000  # c,c1,c_1,o_1
dihedral_coeff	 4    1.83410    0.00000    2.06030    0.00000   -0.01950    0.00000  # c,c1,c_1,o_2
dihedral_coeff	 5    0.00000    0.00000    0.00000    0.00000   -0.19320    0.00000  # c,c1,o_2,c_1
dihedral_coeff	 6   -2.55940    0.00000    2.20130    0.00000    0.03250    0.00000  # c,c_1,o_2,c1
dihedral_coeff	 7   -2.55940    0.00000    2.20130    0.00000    0.03250    0.00000  # c1,c_1,o_2,c1
dihedral_coeff	 8   -2.91260    0.00000    1.01990    0.00000   -0.20770    0.00000  # c1,c_1,o_2,ho2
dihedral_coeff	 9    0.00000    0.00000    2.20890    0.00000    0.00000    0.00000  # c1,o_2,c_1,o_1
dihedral_coeff	10   -0.02280    0.00000    0.02800    0.00000   -0.18630    0.00000  # c_1,c,c,hc
dihedral_coeff	11   -0.02280    0.00000    0.02800    0.00000   -0.18630    0.00000  # c_1,c1,c,hc
dihedral_coeff	12    0.00000    0.00000    0.00000    0.00000   -0.19320    0.00000  # c_1,c1,o_2,c_1
dihedral_coeff	13    0.00000    0.00000    0.00000    0.00000   -0.19320    0.00000  # c_1,o_2,c1,hc
dihedral_coeff	14   -0.14320    0.00000    0.06170    0.00000   -0.10830    0.00000  # hc,c,c,hc
dihedral_coeff	15   -0.14320    0.00000    0.06170    0.00000   -0.10830    0.00000  # hc,c,c1,hc
dihedral_coeff	16    0.00000    0.00000    0.00000    0.00000   -0.25000    0.00000  # hc,c,c1,o_2
dihedral_coeff	17   -0.18040    0.00000    0.00120    0.00000    0.03710    0.00000  # hc,c,c_1,o_1
dihedral_coeff	18   -0.63590    0.00000    1.48070    0.00000   -0.04380    0.00000  # hc,c,c_1,o_2
dihedral_coeff	19   -0.18040    0.00000    0.00120    0.00000    0.03710    0.00000  # hc,c1,c_1,o_1
dihedral_coeff	20   -0.63590    0.00000    1.48070    0.00000   -0.04380    0.00000  # hc,c1,c_1,o_2
dihedral_coeff	21    0.00000    0.00000    2.20890    0.00000    0.00000    0.00000  # ho2,o_2,c_1,o_1
dihedral_coeff	22    0.00000  180.00000    0.00000    0.00000    0.00000    0.00000  # o_1,c_1,c1,o_2
dihedral_coeff	23    0.00000  180.00000    0.00000    0.00000    0.00000    0.00000  # o_2,c1,c_1,o_2

# MiddleBondTorsion Coeffs

dihedral_coeff	 1 mbt    0.33880   -0.10960    0.12190    1.52020  # c,c,c_1,o_1
dihedral_coeff	 2 mbt  -17.32800   -5.79000   -3.21140    1.52020  # c,c,c_1,o_2
dihedral_coeff	 3 mbt    0.33880   -0.10960    0.12190    1.52020  # c,c1,c_1,o_1
dihedral_coeff	 4 mbt  -17.32800   -5.79000   -3.21140    1.52020  # c,c1,c_1,o_2
dihedral_coeff	 5 mbt   -5.43500    0.00000    0.00000    1.43000  # c,c1,o_2,c_1
dihedral_coeff	 6 mbt    1.34450    3.55150   -4.92020    1.36830  # c,c_1,o_2,c1
dihedral_coeff	 7 mbt    1.34450    3.55150   -4.92020    1.36830  # c1,c_1,o_2,c1
dihedral_coeff	 8 mbt    2.14520    0.54820   -2.36930    1.36830  # c1,c_1,o_2,ho2
dihedral_coeff	 9 mbt    4.26000    0.00000    0.00000    1.36830  # c1,o_2,c_1,o_1
dihedral_coeff	10 mbt   -3.50390    1.24580   -0.76100    1.53000  # c_1,c,c,hc
dihedral_coeff	11 mbt   -3.50390    1.24580   -0.76100    1.53000  # c_1,c1,c,hc
dihedral_coeff	12 mbt    0.00000    0.00000    0.00000    1.43000  # c_1,c1,o_2,c_1
dihedral_coeff	13 mbt    0.00000    0.00000    0.00000    1.43000  # c_1,o_2,c1,hc
dihedral_coeff	14 mbt  -14.26100   -0.53220   -0.48640    1.53000  # hc,c,c,hc
dihedral_coeff	15 mbt  -14.26100   -0.53220   -0.48640    1.53000  # hc,c,c1,hc
dihedral_coeff	16 mbt    0.00000    0.00000    0.00000    1.53000  # hc,c,c1,o_2
dihedral_coeff	17 mbt    0.23590    0.91390    0.95940    1.52020  # hc,c,c_1,o_1
dihedral_coeff	18 mbt  -13.76860   -2.59590    1.19340    1.52020  # hc,c,c_1,o_2
dihedral_coeff	19 mbt    0.23590    0.91390    0.95940    1.52020  # hc,c1,c_1,o_1
dihedral_coeff	20 mbt  -13.76860   -2.59590    1.19340    1.52020  # hc,c1,c_1,o_2
dihedral_coeff	21 mbt    4.26000    0.00000    0.00000    1.36830  # ho2,o_2,c_1,o_1
dihedral_coeff	22 mbt    0.00000    0.00000    0.00000    1.52020  # o_1,c_1,c1,o_2
dihedral_coeff	23 mbt    0.00000    0.00000    0.00000    1.52020  # o_2,c1,c_1,o_2

# EndBondTorsion Coeffs

dihedral_coeff	 1 ebt    0.26540    0.05030    0.10460   -0.28100    0.08160   -0.15220    1.53000    1.20200  # c,c,c_1,o_1
dihedral_coeff	 2 ebt    0.00000    0.00000    0.00000    0.00000    0.00000    0.00000    1.53000    1.36830  # c,c,c_1,o_2
dihedral_coeff	 3 ebt    0.26540    0.05030    0.10460   -0.28100    0.08160   -0.15220    1.53000    1.20200  # c,c1,c_1,o_1
dihedral_coeff	 4 ebt    0.00000    0.00000    0.00000    0.00000    0.00000    0.00000    1.53000    1.36830  # c,c1,c_1,o_2
dihedral_coeff	 5 ebt    0.00000    0.00000    0.00000    0.00000    0.00000    0.00000    1.53000    1.36830  # c,c1,o_2,c_1
dihedral_coeff	 6 ebt    0.00000    0.00000    0.00000    0.00000    0.00000    0.00000    1.52020    1.43000  # c,c_1,o_2,c1
dihedral_coeff	 7 ebt    0.00000    0.00000    0.00000    0.00000    0.00000    0.00000    1.52020    1.43000  # c1,c_1,o_2,c1
dihedral_coeff	 8 ebt    0.00000    0.00000    0.00000    0.00000    0.00000    0.00000    1.52020    0.95200  # c1,c_1,o_2,ho2
dihedral_coeff	 9 ebt    0.00000    0.00000    0.00000    0.00000    0.00000    0.00000    1.43000    1.20200  # c1,o_2,c_1,o_1
dihedral_coeff	10 ebt   -0.02040    0.36280   -0.44260   -0.00970   -0.03150   -0.07550    1.52020    1.10100  # c_1,c,c,hc
dihedral_coeff	11 ebt   -0.02040    0.36280   -0.44260   -0.00970   -0.03150   -0.07550    1.52020    1.10100  # c_1,c1,c,hc
dihedral_coeff	12 ebt    0.00000    0.00000    0.00000    0.00000    0.00000    0.00000    1.52020    1.36830  # c_1,c1,o_2,c_1
dihedral_coeff	13 ebt    0.00000    0.00000    0.00000    0.00000    0.00000    0.00000    1.36830    1.10100  # c_1,o_2,c1,hc
dihedral_coeff	14 ebt    0.21300    0.31200    0.07770    0.21300    0.31200    0.07770    1.10100    1.10100  # hc,c,c,hc
dihedral_coeff	15 ebt    0.21300    0.31200    0.07770    0.21300    0.31200    0.07770    1.10100    1.10100  # hc,c,c1,hc
dihedral_coeff	16 ebt    0.00000    0.00000    0.00000    0.00000    0.00000    0.00000    1.10100    1.43000  # hc,c,c1,o_2
dihedral_coeff	17 ebt    1.21430    0.28310    0.39160   -0.22980    0.03540    0.38530    1.10100    1.20200  # hc,c,c_1,o_1
dihedral_coeff	18 ebt    0.00000    0.00000    0.00000    0.00000    0.00000    0.00000    1.10100    1.36830  # hc,c,c_1,o_2
dihedral_coeff	19 ebt    1.21430    0.28310    0.39160   -0.22980    0.03540    0.38530    1.10100    1.20200  # hc,c1,c_1,o_1
dihedral_coeff	20 ebt    0.00000    0.00000    0.00000    0.00000    0.00000    0.00000    1.10100    1.36830  # hc,c1,c_1,o_2
dihedral_coeff	21 ebt    0.00000    0.00000    0.00000    0.00000    0.00000    0.00000    0.95200    1.20200  # ho2,o_2,c_1,o_1
dihedral_coeff	22 ebt    0.00000    0.00000    0.00000    0.00000    0.00000    0.00000    1.20200    1.43000  # o_1,c_1,c1,o_2
dihedral_coeff	23 ebt    0.00000    0.00000    0.00000    0.00000    0.00000    0.00000    1.43000    1.36830  # o_2,c1,c_1,o_2

# AngleTorsion Coeffs

dihedral_coeff	 1 at    0.08850   -1.37030   -0.54520    0.67500    0.59650    0.67250  108.52950  123.14510  # c,c,c_1,o_1
dihedral_coeff	 2 at    0.00000    0.00000    0.00000    0.00000    0.00000    0.00000  108.52950  100.31820  # c,c,c_1,o_2
dihedral_coeff	 3 at    0.08850   -1.37030   -0.54520    0.67500    0.59650    0.67250  108.52950  123.14510  # c,c1,c_1,o_1
dihedral_coeff	 4 at    0.00000    0.00000    0.00000    0.00000    0.00000    0.00000  108.52950  100.31820  # c,c1,c_1,o_2
dihedral_coeff	 5 at    0.00000    0.00000    0.00000    0.00000    0.00000    0.00000  107.41000  113.28800  # c,c1,o_2,c_1
dihedral_coeff	 6 at    0.00000    0.00000    0.00000    0.00000    0.00000    0.00000  100.31820  113.28800  # c,c_1,o_2,c1
dihedral_coeff	 7 at    0.00000    0.00000    0.00000    0.00000    0.00000    0.00000  100.31820  113.28800  # c1,c_1,o_2,c1
dihedral_coeff	 8 at    0.00000    0.00000    0.00000    0.00000    0.00000    0.00000  100.31820  112.87400  # c1,c_1,o_2,ho2
dihedral_coeff	 9 at    0.00000    0.00000    0.00000    0.00000    0.00000    0.00000  113.28800  120.79700  # c1,o_2,c_1,o_1
dihedral_coeff	10 at   -0.74660   -0.94480   -0.63210    0.01620    1.42110   -1.40920  108.52950  110.77000  # c_1,c,c,hc
dihedral_coeff	11 at   -0.74660   -0.94480   -0.63210    0.01620    1.42110   -1.40920  108.52950  110.77000  # c_1,c1,c,hc
dihedral_coeff	12 at    0.00000    0.00000    0.00000    0.00000    0.00000    0.00000  109.50000  113.28800  # c_1,c1,o_2,c_1
dihedral_coeff	13 at    0.00000    0.00000    0.00000    0.00000    0.00000    0.00000  113.28800  107.68800  # c_1,o_2,c1,hc
dihedral_coeff	14 at   -0.80850    0.55690   -0.24660   -0.80850    0.55690   -0.24660  110.77000  110.77000  # hc,c,c,hc
dihedral_coeff	15 at   -0.80850    0.55690   -0.24660   -0.80850    0.55690   -0.24660  110.77000  110.77000  # hc,c,c1,hc
dihedral_coeff	16 at    0.00000    0.00000    0.00000    0.00000    0.00000    0.00000  110.77000  107.41000  # hc,c,c1,o_2
dihedral_coeff	17 at    9.12990   -0.48470    0.35820   -1.49460    0.73080   -0.20830  107.73360  123.14510  # hc,c,c_1,o_1
dihedral_coeff	18 at    0.00000    0.00000    0.00000    0.00000    0.00000    0.00000  107.73360  100.31820  # hc,c,c_1,o_2
dihedral_coeff	19 at    9.12990   -0.48470    0.35820   -1.49460    0.73080   -0.20830  107.73360  123.14510  # hc,c1,c_1,o_1
dihedral_coeff	20 at    0.00000    0.00000    0.00000    0.00000    0.00000    0.00000  107.73360  100.31820  # hc,c1,c_1,o_2
dihedral_coeff	21 at    0.00000    0.00000    0.00000    0.00000    0.00000    0.00000  112.87400  120.79700  # ho2,o_2,c_1,o_1
dihedral_coeff	22 at    0.00000    0.00000    0.00000    0.00000    0.00000    0.00000  123.14510  109.50000  # o_1,c_1,c1,o_2
dihedral_coeff	23 at    0.00000    0.00000    0.00000    0.00000    0.00000    0.00000  109.50000  100.31820  # o_2,c1,c_1,o_2

# AngleAngleTorsion Coeffs

dihedral_coeff	 1 aat   -8.01900  108.52950  123.14510  # c,c,c_1,o_1
dihedral_coeff	 2 aat    0.00000  108.52950  100.31820  # c,c,c_1,o_2
dihedral_coeff	 3 aat   -8.01900  108.52950  123.14510  # c,c1,c_1,o_1
dihedral_coeff	 4 aat    0.00000  108.52950  100.31820  # c,c1,c_1,o_2
dihedral_coeff	 5 aat    0.00000  107.41000  113.28800  # c,c1,o_2,c_1
dihedral_coeff	 6 aat    0.00000  100.31820  113.28800  # c,c_1,o_2,c1
dihedral_coeff	 7 aat    0.00000  100.31820  113.28800  # c1,c_1,o_2,c1
dihedral_coeff	 8 aat    0.00000  100.31820  112.87400  # c1,c_1,o_2,ho2
dihedral_coeff	 9 aat    0.00000  113.28800  120.79700  # c1,o_2,c_1,o_1
dihedral_coeff	10 aat   -5.36240  108.52950  110.77000  # c_1,c,c,hc
dihedral_coeff	11 aat   -5.36240  108.52950  110.77000  # c_1,c1,c,hc
dihedral_coeff	12 aat    0.00000  109.50000  113.28800  # c_1,c1,o_2,c_1
dihedral_coeff	13 aat    0.00000  113.28800  107.68800  # c_1,o_2,c1,hc
dihedral_coeff	14 aat  -12.56400  110.77000  110.77000  # hc,c,c,hc
dihedral_coeff	15 aat  -12.56400  110.77000  110.77000  # hc,c,c1,hc
dihedral_coeff	16 aat    0.00000  110.77000  107.41000  # hc,c,c1,o_2
dihedral_coeff	17 aat  -15.34960  107.73360  123.14510  # hc,c,c_1,o_1
dihedral_coeff	18 aat    0.00000  107.73360  100.31820  # hc,c,c_1,o_2
dihedral_coeff	19 aat  -15.34960  107.73360  123.14510  # hc,c1,c_1,o_1
dihedral_coeff	20 aat    0.00000  107.73360  100.31820  # hc,c1,c_1,o_2
dihedral_coeff	21 aat    0.00000  112.87400  120.79700  # ho2,o_2,c_1,o_1
dihedral_coeff	22 aat    0.00000  123.14510  109.50000  # o_1,c_1,c1,o_2
dihedral_coeff	23 aat    0.00000  109.50000  100.31820  # o_2,c1,c_1,o_2

# BondBond13 Coeffs

dihedral_coeff	 1 bb13    0.00000    1.53000    1.20200  # c,c,c_1,o_1
dihedral_coeff	 2 bb13    0.00000    1.53000    1.36830  # c,c,c_1,o_2
dihedral_coeff	 3 bb13    0.00000    1.53000    1.20200  # c,c1,c_1,o_1
dihedral_coeff	 4 bb13    0.00000    1.53000    1.36830  # c,c1,c_1,o_2
dihedral_coeff	 5 bb13    0.00000    1.53000    1.36830  # c,c1,o_2,c_1
dihedral_coeff	 6 bb13    0.00000    1.52020    1.43000  # c,c_1,o_2,c1
dihedral_coeff	 7 bb13    0.00000    1.52020    1.43000  # c1,c_1,o_2,c1
dihedral_coeff	 8 bb13    0.00000    1.52020    0.95200  # c1,c_1,o_2,ho2
dihedral_coeff	 9 bb13    0.00000    1.43000    1.20200  # c1,o_2,c_1,o_1
dihedral_coeff	10 bb13    0.00000    1.52020    1.10100  # c_1,c,c,hc
dihedral_coeff	11 bb13    0.00000    1.52020    1.10100  # c_1,c1,c,hc
dihedral_coeff	12 bb13    0.00000    1.52020    1.36830  # c_1,c1,o_2,c_1
dihedral_coeff	13 bb13    0.00000    1.36830    1.10100  # c_1,o_2,c1,hc
dihedral_coeff	14 bb13    0.00000    1.10100    1.10100  # hc,c,c,hc
dihedral_coeff	15 bb13    0.00000    1.10100    1.10100  # hc,c,c1,hc
dihedral_coeff	16 bb13    0.00000    1.10100    1.43000  # hc,c,c1,o_2
dihedral_coeff	17 bb13    0.00000    1.10100    1.20200  # hc,c,c_1,o_1
dihedral_coeff	18 bb13    0.00000    1.10100    1.36830  # hc,c,c_1,o_2
dihedral_coeff	19 bb13    0.00000    1.10100    1.20200  # hc,c1,c_1,o_1
dihedral_coeff	20 bb13    0.00000    1.10100    1.36830  # hc,c1,c_1,o_2
dihedral_coeff	21 bb13    0.00000    0.95200    1.20200  # ho2,o_2,c_1,o_1
dihedral_coeff	22 bb13    0.00000    1.20200    1.43000  # o_1,c_1,c1,o_2
dihedral_coeff	23 bb13    0.00000    1.43000    1.36830  # o_2,c1,c_1,o_2

# Improper Coeffs

improper_coeff	 1    0.00000    0.00000  # c,c,hc,c_1
improper_coeff	 2    0.00000    0.00000  # c,c,hc,hc
improper_coeff	 3    0.00000    0.00000  # c,c1,hc,hc
improper_coeff	 4    0.00000    0.00000  # c,c_1,hc,hc
improper_coeff	 5    0.00000    0.00000  # c,hc,hc,hc
improper_coeff	 6    0.00000    0.00000  # c1,c,hc,c_1
improper_coeff	 7    0.00000    0.00000  # c1,c,hc,o_2
improper_coeff	 8    0.00000    0.00000  # c1,c,o_2,c_1
improper_coeff	 9    0.00000    0.00000  # c1,c_1,hc,o_2
improper_coeff	10   46.92640    0.00000  # c_1,c,o_2,o_1
improper_coeff	11   46.92640    0.00000  # c_1,c1,o_2,o_1

# AngleAngle Coeffs

improper_coeff	 1 aa    1.08270   -1.82020    2.04030  110.77000  108.52950  107.73360  # c,c,hc,c_1
improper_coeff	 2 aa    0.27380   -0.48250    0.27380  110.77000  110.77000  107.66000  # c,c,hc,hc
improper_coeff	 3 aa    0.27380   -0.48250    0.27380  110.77000  110.77000  107.66000  # c,c1,hc,hc
improper_coeff	 4 aa   -3.38670   -3.49760   -3.38670  107.73360  107.73360  107.66000  # c,c_1,hc,hc
improper_coeff	 5 aa   -0.31570   -0.31570   -0.31570  107.66000  107.66000  107.66000  # c,hc,hc,hc
improper_coeff	 6 aa    1.08270   -1.82020    2.04030  110.77000  108.52950  107.73360  # c1,c,hc,c_1
improper_coeff	 7 aa    0.00000    0.00000    0.00000  110.77000  107.41000  107.68800  # c1,c,hc,o_2
improper_coeff	 8 aa    0.00000    0.00000    0.00000  107.41000  108.52950  109.50000  # c1,c,o_2,c_1
improper_coeff	 9 aa    0.00000    0.00000    0.00000  107.73360  109.50000  107.68800  # c1,c_1,hc,o_2
improper_coeff	10 aa    0.00000    0.00000    0.00000  100.31820  123.14510  120.79700  # c_1,c,o_2,o_1
improper_coeff	11 aa    0.00000    0.00000    0.00000  100.31820  123.14510  120.79700  # c_1,c1,o_2,o_1


# --- Thermo Output ---
thermo_style custom step time temp press enthalpy etotal ke pe ebond eangle edihed eimp evdwl ecoul elong etail vol lx ly lz density pxx pyy pzz
thermo_modify flush yes
thermo 1000

# --- Trajectory ---
dump dump_npt all custom 1000 npt_prod300.dump id type mol x y z ix iy iz vx vy vz

# --- Restart Checkpointing ---
# No restart checkpointing

# --- Initial Velocities (optional) ---
# Velocities read from data file

# --- SHAKE Constraints ---
# SHAKE disabled

# --- NPT Thermostat + Barostat (Nose-Hoover) ---
# T_damp = 100.0 fs  (heat bath coupling)
# P_damp = 1000.0 fs  (pressure bath coupling, ~10x T_damp typical)
# Ramp: T=300.0->300.0K  P=1.0->1.0atm
timestep 1.0
fix npt_fix all npt temp 300.0 300.0 100.0 iso 1.0 1.0 1000.0

run 2000000
PPPM Kokkos initialization ...
  using 12-bit tables for long-range coulomb
  G vector (1/distance) = 0.34293742
  grid = 45 45 45
  stencil order = 5
  estimated absolute RMS force accuracy = 0.00025164231
  estimated relative force accuracy = 7.5781333e-07
  using double precision cuFFT
  3d grid and FFT values/proc = 140608 91125
Generated 21 of 21 mixed pair_coeff terms from sixthpower/sixthpower mixing rule
Neighbor list info ...
  update: every = 1 steps, delay = 0 steps, check = yes
  max neighbors/atom: 4000, page size: 100000
  master list distance cutoff = 11.5
  ghost atom cutoff = 11.5
  binsize = 11.5, bins = 4 4 4
  1 neighbor lists, perpetual/occasional/extra = 1 0 0
  (1) pair lj/class2/coul/long/kk, perpetual
      attributes: full, newton off, kokkos_device
      pair build: full/bin/kk/device
      stencil: full/bin/3d
      bin: kk/device
Per MPI rank memory allocation (min/avg/max) = 37.36 | 37.36 | 37.36 Mbytes
   Step          Time           Temp          Press         Enthalpy        TotEng         KinEng         PotEng         E_bond        E_angle        E_dihed        E_impro         E_vdwl         E_coul         E_long         E_tail         Volume           Lx             Ly             Lz          Density          Pxx            Pyy            Pzz      
         0   0              295.93979      940.99257      17040.148      16366.187      3986.392       12379.795      2072.168       3794.0059     -4038.91        142.8779      -2444.0233      44836.118     -31982.441     -385.09916      49110.321      36.620499      36.620499      36.620499      1.219013       2256.6305     -204.94641      771.29361    
      1000   1000           303.97808      1242.7349      17409.194      16522.451      4094.67        12427.781      2167.5725      3741.7703     -4014.4376      146.99437     -2477.7531      44853.789     -31990.155     -386.54664      48926.42       36.574732      36.574732      36.574732      1.223595       755.04249      1951.3965      1021.7656    
      2000   2000           302.25087     -1152.3473      15630.051      16460.623      4071.4041      12389.219      2217.4488      3691.2383     -4020.2546      149.81812     -2491.4274      44836.298     -31993.903     -382.67296      49421.688      36.697729      36.697729      36.697729      1.211333      -3266.3951     -2197.4502      2006.8035    
      3000   3000           303.63024     -127.10594      16357.603      16449.256      4089.9846      12359.272      2189.2986      3806.1878     -4118.2055      145.19864     -2474.4007      44803.446     -31992.253     -382.5065       49443.195      36.703052      36.703052      36.703052      1.2108061      1764.5191     -466.97332     -1678.8636    
      4000   4000           308.79071      1509.4553      17611.213      16529.586      4159.4975      12370.088      2209.244       3720.181      -4072.9676      131.23484     -2440.345       44819.862     -31997.121     -384.91406      49133.938      36.626368      36.626368      36.626368      1.2184271      1956.6263      738.72291      1833.0167    
      5000   5000           297.75746      1733.1711      17561.835      16318.678      4010.8766      12307.802      2053.9224      3721.3029     -4010.9434      152.46345     -2503.6848      44895.697     -32000.956     -384.53574      49182.277      36.638376      36.638376      36.638376      1.2172296      257.54711      2525.59        2416.3762    
      6000   6000           298.36512     -613.83912      15920.22       16362.444      4019.0619      12343.382      2127.441       3764.4202     -4040.5069      138.90054     -2468.4899      44819.244     -31997.626     -382.85476      49398.22       36.69192       36.69192       36.69192       1.2119085     -1135.039      -753.93555      47.457178    
      7000   7000           304.43612      1167.3261      17231.911      16397.988      4100.8399      12297.148      2103.7664      3752.5996     -4036.9489      137.82166     -2475.4995      44816.215     -32000.807     -386.08911      48984.399      36.589173      36.589173      36.589173      1.2221467      187.98645      2172.6687      1141.3232    
      8000   8000           299.29654     -520.1147       16113.531      16485.722      4031.6084      12454.114      2142.6398      3725.5036     -3988.2878      167.2979      -2447.9251      44848.303     -31993.417     -385.43735      49067.231      36.609786      36.609786      36.609786      1.2200836     -2757.5173     -543.86464      1741.0379    
      9000   9000           293.81461     -1096.9981      15469.455      16255.729      3957.7653      12297.964      2047.9209      3734.0326     -4002.3046      144.27223     -2499.9716      44865.835     -31991.821     -384.81615      49146.439      36.629474      36.629474      36.629474      1.2181172     -1469.0901     -831.34206     -990.562      
     10000   10000          298.87293     -1757.6895      15222.513      16476.954      4025.9022      12451.052      2122.4161      3942.4902     -4008.0175      131.05936     -2573.5177      44833.527     -31996.906     -386.46774      48936.409      36.57722       36.57722       36.57722       1.2233452     -876.17689     -1012.9122     -3383.9794    
     11000   11000          297.51838     -1174.1464      15556.818      16392.941      4007.6561      12385.285      2145.2747      3866.3141     -4030.0488      117.96725     -2538.0098      44824.2       -32000.413     -387.32327      48828.316      36.55027       36.55027       36.55027       1.2260534     -1502.7332     -1148.8504     -870.85555    
     12000   12000          298.68565     -867.3713       15726.271      16349.193      4023.3795      12325.814      2145.7122      3720.1673     -4015.8626      138.73694     -2548.047       44876.031     -31990.924     -384.05422      49243.941      36.653682      36.653682      36.653682      1.2157053     -1869.8567     -407.90323     -324.354      
     13000   13000          301.37584      163.94741      16554.855      16437.476      4059.6171      12377.859      2055.9405      3769.4026     -4008.361       137.07205     -2422.9437      44838.646     -31991.897     -385.24303      49091.981      36.61594       36.61594       36.61594       1.2194685     -80.974529      116.15374      456.66302    
     14000   14000          300.90731      785.85294      16942.054      16383.82       4053.3059      12330.514      2110.4384      3773.2615     -4008.3159      141.86197     -2492.3322      44801.172     -31995.572     -388.28096      48707.883      36.520195      36.520195      36.520195      1.2290849     -793.59967      1157.7196      1993.4389    
     15000   15000          299.35518      1494.3603      17398.303      16333.767      4032.3983      12301.369      2130.9309      3685.8981     -4019.6056      141.3298      -2494.6307      44856.203     -31998.757     -387.18287      48846.023      36.554687      36.554687      36.554687      1.2256089      1990.236       1492.3827      1000.4621    
     16000   16000          303.94518     -191.5469       16329.328      16466.334      4094.2268      12372.107      2118.9302      3757.566      -4033.8018      152.73324     -2488.1068      44861.537     -31996.751     -385.61888      49044.133      36.60404       36.60404       36.60404       1.2206582     -2230.7799     -362.80996      2018.9491    
     17000   17000          297.59402      2448.7847      18175.919      16415.812      4008.6749      12407.137      2124.6534      3759.2949     -4037.0858      143.0225      -2450.1217      44854.05      -31986.676     -383.73607      49284.769      36.663808      36.663808      36.663808      1.2146982      3575.9804      2490.1616      1280.2122    
     18000   18000          302.70187      1064.6698      17163.664      16401.288      4077.4791      12323.809      2133.6198      3778.0395     -4029.7607      147.4227      -2518.5769      44806.326     -31993.261     -385.18299      49099.633      36.617842      36.617842      36.617842      1.2192784      186.66469      2058.5391      948.80566    
     19000   19000          304.92001      1235.5874      17367.825      16488.133      4107.3581      12380.775      2180.0717      3749.7506     -4017.4312      138.57996     -2485.1032      44809.451     -31994.544     -387.40404      48818.137      36.547729      36.547729      36.547729      1.226309       782.17578      3101.6984     -177.11205    
     20000   20000          295.76401     -360.85339      16115.076      16372.703      3984.0242      12388.679      2161.4651      3775.7849     -3995.7014      161.45317     -2530.1578      44816.076     -32000.241     -386.33179      48953.63       36.58151       36.58151       36.58151       1.2229149      94.853052     -1160.8832     -16.530032    
     21000   21000          305.76693      465.7933       16816.689      16484.691      4118.7663      12365.925      2090.6879      3808.4146     -4069.8545      143.94896     -2485.4543      44871.162     -31992.98      -386.97138      48872.719      36.561345      36.561345      36.561345      1.2249395      184.97879      679.41978      532.98134    
     22000   22000          298.57446     -1219.265       15500.606      16375.417      4021.8818      12353.535      2143.2037      3772.7793     -3991.2991      143.60894     -2528.9347      44809.67      -31995.493     -384.41937      49197.165      36.642072      36.642072      36.642072      1.2168612     -1069.4416     -1982.5991     -605.7544     
     23000   23000          297.41228      1172.4938      17174.839      16341.02       4006.2268      12334.793      2196.936       3734.3924     -4096.3722      140.10298     -2466.8593      44820.804     -31994.212     -387.84654      48762.439      36.533825      36.533825      36.533825      1.2277098      579.19179      737.07802      2201.2115    
     24000   24000          306.05734     -816.69725      15858.647      16442.505      4122.6783      12319.827      2116.3266      3721.8507     -3983.8417      156.13413     -2503.0225      44814.604     -32002.224     -385.81136      49019.664      36.597952      36.597952      36.597952      1.2212675     -325.05815     -440.18315     -1684.8504    
     25000   25000          301.53388      328.6883       16732.84       16496.183      4061.7459      12434.437      2228.2087      3765.9536     -4062.9442      143.7037      -2449.5166      44809.798     -32000.766     -383.07722      49369.533      36.684816      36.684816      36.684816      1.2126127      161.45577      892.63495     -68.025818    
     26000   26000          301.0873      -689.60797      15982.631      16478.028      4055.7304      12422.298      2220.2581      3779.8025     -4034.7152      145.00708     -2492.1844      44804.138     -32000.008     -383.94571      49257.859      36.657134      36.657134      36.657134      1.2153619      525.87672     -1769.7746     -824.92602    
     27000   27000          299.08298     -894.9979       15826.141      16466.143      4028.7317      12437.411      2124.0454      3804.263      -4039.281       141.39827     -2513.3559      44914.096     -31993.755     -385.71106      49032.412      36.601124      36.601124      36.601124      1.22095       -1073.1724     -167.16349     -1444.6578    
     28000   28000          304.03185      902.83496      17048.289      16398.535      4095.3943      12303.141      2160.117       3701.4977     -4045.3424      140.67042     -2482.7474      44826.159     -31997.214     -383.24872      49347.44       36.679343      36.679343      36.679343      1.2131556      1224.4808     -395.94802      1879.9721    
     29000   29000          300.82909      887.79564      17060.366      16424.792      4052.2522      12372.539      2180.7058      3765.0109     -4065.4985      155.21783     -2495.9344      44832.256     -31999.218     -385.27223      49088.26       36.615015      36.615015      36.615015      1.2195609     -668.17387      1991.3082      1340.2526    
     30000   30000          305.03479     -1365.6096      15531.416      16510.059      4108.9042      12401.155      2158.9152      3742.9744     -4011.9506      152.26422     -2470.4372      44827.08      -31997.691     -384.87844      49138.485      36.627498      36.627498      36.627498      1.2183144     -944.73326     -1800.3367     -1351.7589    
     31000   31000          301.10401     -244.63857      16285.948      16461.354      4055.9554      12405.398      2144.8553      3763.6077     -4034.5213      159.43016     -2480.3238      44851.995     -31999.644     -384.68266      49163.493      36.633711      36.633711      36.633711      1.2176947     -1421.7229     -233.30745      921.11463    
     32000   32000          296.41146      1891.2786      17669.17       16324.924      3992.7456      12332.178      2082.8602      3701.5705     -4025.57        165.66503     -2433.9378      44835.047     -31993.457     -388.05913      48735.726      36.527152      36.527152      36.527152      1.2283827      1424.3988      1366.1523      2883.2847    
     33000   33000          299.55008      113.15391      16578.473      16497.636      4035.0236      12462.613      2122.8867      3813.2083     -4023.7005      160.57996     -2480.7999      44867.763     -31997.325     -386.08188      48985.317      36.589402      36.589402      36.589402      1.2221238     -561.60048      809.40805      91.65415     
     34000   34000          300.55651     -135.72291      16259.198      16355.94       4048.5806      12307.359      2087.309       3797.4641     -4034.0433      135.27918     -2514.9784      44841.099     -32004.771     -386.9546       48874.838      36.561874      36.561874      36.561874      1.2248863      1974.4792     -773.69415     -1607.9538    
     35000   35000          302.30618     -588.08957      16010.766      16431.217      4072.149       12359.068      2144.5901      3756.5654     -4012.1627      130.0369      -2517.3473      44847.451     -31990.066     -385.78814      49022.614      36.598686      36.598686      36.598686      1.221194      -487.58376      1434.6923     -2711.3773    
     36000   36000          308.60628      1749.717       17746.634      16493.146      4157.0132      12336.132      2110.1488      3771.4694     -4044.907       149.01596     -2514.1269      44861.726     -31997.194     -385.00718      49122.054      36.623415      36.623415      36.623415      1.2187219      468.87052      2917.9179      1862.3625    
     37000   37000          300.9018       456.06509      16736.332      16411.934      4053.2316      12358.702      2118.7071      3795.2429     -4043.7972      140.06484     -2516.9471      44862.315     -31996.883     -387.76583      48772.589      36.536359      36.536359      36.536359      1.2274543      338.52674      637.12878      392.53974    
     38000   38000          297.47977     -538.62981      15959.815      16346.615      4007.136       12339.479      2139.0364      3727.599      -4046.6176      142.2888      -2472.2003      44846.839     -31997.466     -384.08357      49240.179      36.652748      36.652748      36.652748      1.2157982      1151.0832     -2031.1022     -735.87044    
     39000   39000          303.05747     -258.27398      16354.473      16540.002      4082.2691      12457.733      2153.1566      3731.4073     -3986.9103      162.63968     -2464.1637      44853.284     -31991.681     -383.96199      49255.77       36.656616      36.656616      36.656616      1.2154134      658.17754     -795.9951      -637.00437    
     40000   40000          301.07411     -261.48026      16248.332      16435.648      4055.5527      12380.095      2079.735       3815.6557     -4035.75        166.45501     -2477.4259      44832.032     -32000.607     -385.02255      49120.093      36.622928      36.622928      36.622928      1.2187705      677.15638      276.48634     -1738.0835    
     41000   41000          295.41915     -1071.1479      15555.601      16321.462      3979.3789      12342.083      2151.5947      3732.8487     -4001.698       155.81314     -2531.5083      44839.808     -32004.775     -385.7632       49025.784      36.599475      36.599475      36.599475      1.221115      -1286.9752     -436.26525     -1490.2033    
     42000   42000          299.85248     -1110.2783      15664.778      16458.075      4039.097       12418.978      2119.9041      3822.5408     -4036.9584      156.68397     -2516.3877      44864.952     -31991.757     -386.02678      48992.309      36.591142      36.591142      36.591142      1.2219494     -2286.5538      1306.0771     -2350.3584    
     43000   43000          292.59906     -2100.3303      14800.717      16304.522      3941.3915      12363.131      2163.1091      3725.9028     -3980.4414      161.27611     -2535.4471      44817.536     -31988.805     -385.22755      49093.953      36.61643       36.61643       36.61643       1.2194195     -2645.6973     -2174.2681     -1481.0254    
     44000   44000          302.26296      1319.3644      17428.228      16487.584      4071.5668      12416.017      2156.3732      3737.952      -4052.3741      152.34693     -2452.4856      44862.992     -31988.787     -386.86589      48886.045      36.564668      36.564668      36.564668      1.2246056      414.94218      2069.3384      1473.8126    
     45000   45000          296.6653      -94.585678      16303.756      16371.618      3996.1649      12375.453      2226.2596      3744.5297     -4045.6737      143.86241     -2501.9858      44803.928     -31995.466     -384.43121      49195.651      36.641696      36.641696      36.641696      1.2168987     -2222.7212      1999.776      -60.811846    
     46000   46000          299.5583       609.34645      16855.213      16419.293      4035.1343      12384.158      2137.5193      3752.627      -4018.4896      141.77853     -2471.8007      44842.255     -31999.731     -385.54832      49053.108      36.606273      36.606273      36.606273      1.2204349      295.76627      670.63976      861.63333    
     47000   47000          290.52492     -365.77641      15978.403      16241.037      3913.4522      12327.585      2044.4411      3743.6352     -4004.9365      150.92434     -2492.213       44880.432     -31994.699     -384.13695      49233.336      36.65105       36.65105       36.65105       1.2159672     -1280.1521      394.40101     -211.57814    
     48000   48000          304.30676      921.46505      17157.251      16499.809      4099.0975      12400.712      2099.9721      3769.5472     -3981.9035      147.84746     -2528.8374      44884.93      -31990.844     -386.58339      48921.77       36.573573      36.573573      36.573573      1.2237113     -149.281        3158.1359     -244.45972    
     49000   49000          302.0154      -443.9998       16075.058      16394.714      4068.2322      12326.482      2113.3085      3690.8464     -3984.4894      146.69519     -2460.3723      44815.789     -31995.296     -383.1069       49365.709      36.683868      36.683868      36.683868      1.2127066      1118.6424     -222.14699     -2228.4948    
     50000   50000          302.26127      394.61066      16700.627      16416.321      4071.5441      12344.777      2112.0704      3745.0042     -4048.7924      142.766       -2486.6101      44869.839     -31989.501     -382.82791      49401.684      36.692777      36.692777      36.692777      1.2118235      204.38715     -499.64028      1479.0851    
     51000   51000          305.46225     -715.62892      16008.084      16522.279      4114.6622      12407.617      2147.5099      3771.1095     -4024.2143      151.22834     -2470.3622      44822.811     -31990.465     -383.86716      49267.938      36.659634      36.659634      36.659634      1.2151132     -653.88601     -2228.4013      735.40053    
     52000   52000          292.87553     -1263.5777      15518.662      16426.617      3945.1156      12481.501      2123.3444      3751.8945     -3934.8682      142.56976     -2518.5093      44911.043     -31993.973     -383.84761      49270.447      36.660257      36.660257      36.660257      1.2150513     -3927.656      -520.5472       657.47009    
     53000   53000          295.72712     -672.7515       15937.9        16422.517      3983.5272      12438.99       2142.8486      3744.2104     -4000.4639      151.77833     -2455.2733      44846.959     -31991.069     -382.89227      49393.38       36.690721      36.690721      36.690721      1.2120273     -156.85941     -1582.4079     -278.98723    
     54000   54000          296.65038      205.28205      16425.337      16277.598      3995.9639      12281.634      2123.9588      3692.6106     -3999.6984      138.34599     -2547.3166      44866.535     -31992.801     -383.24581      49347.815      36.679435      36.679435      36.679435      1.2131464     -1079.1871      1538.7558      156.27748    
     55000   55000          298.39063     -323.55449      16180.901      16413.64       4019.4055      12394.235      2116.6205      3775.8258     -4021.0107      151.4549      -2483.2818      44856.26      -32001.633     -383.44056      49322.752      36.673225      36.673225      36.673225      1.2137628     -1686.6338      891.28475     -175.31438    
     56000   56000          298.17835     -245.379        16195.559      16371.328      4016.5461      12354.782      2162.1025      3753.42       -4015.3288      135.82825     -2523.4417      44836.431     -31994.229     -385.04951      49116.654      36.622073      36.622073      36.622073      1.2188559     -906.91833      187.08319     -16.301863    
     57000   57000          305.08555      929.75443      17116.952      16455.497      4109.588       12345.909      2202.5277      3695.8467     -4036.9431      149.90582     -2520.3674      44851.616     -31996.677     -387.69423      48781.596      36.538608      36.538608      36.538608      1.2272276     -236.85983      2562.3491      463.77397    
     58000   58000          301.72709      929.53655      16943.55       16281.518      4064.3485      12217.17       2056.2482      3699.9911     -4005.8954      129.43588     -2514.4132      44849.425     -31997.622     -387.26528      48835.628      36.552094      36.552094      36.552094      1.2258698      626.86222      628.80973      1532.9377    
     59000   59000          301.11304      317.36083      16654.177      16425.865      4056.0771      12369.788      2131.4245      3772.6362     -4047.7728      154.31467     -2517.7637      44866.106     -31989.158     -383.39341      49328.817      36.674728      36.674728      36.674728      1.2136136      1472.3364      419.88062     -940.13459    
     60000   60000          302.96411     -1163.6819      15681.558      16521.308      4081.0115      12440.297      2187.0828      3775.9598     -3985.9997      134.85773     -2542.3137      44860.304     -31989.594     -382.21269      49481.203      36.712454      36.712454      36.712454      1.2098761     -897.38478     -341.90574     -2251.7553    
     61000   61000          296.40522     -1433.741       15343.155      16368.489      3992.6615      12375.827      2100.3798      3841.2019     -4044.1068      145.99302     -2515.4241      44836.706     -31988.923     -385.67961      49036.409      36.602118      36.602118      36.602118      1.2208504     -2354.873      -1296.5714     -649.77852    
     62000   62000          300.43414     -1873.4427      15030.572      16373.655      4046.9321      12326.723      2112.9347      3756.5982     -4049.1547      141.72457     -2477.2415      44842.441     -32000.58      -384.73255      49157.118      36.632127      36.632127      36.632127      1.2178526     -3397.4628     -2346.8246      123.95943    
     63000   63000          300.02407     -606.64615      16016.556      16450.388      4041.4084      12408.98       2090.2046      3784.5117     -4000.9343      150.29155     -2532.9843      44908.875     -31990.985     -385.6867       49035.508      36.601894      36.601894      36.601894      1.2208729     -165.12608     -936.57902     -718.23336    
     64000   64000          307.71678      109.65667      16653.638      16574.862      4145.0314      12429.831      2113.1538      3862.4038     -4022.4203      141.37237     -2505.5999      44826.208     -31985.287     -383.94242      49258.28       36.657239      36.657239      36.657239      1.2153515      346.83731      1271.7115     -1289.5787    
     65000   65000          299.28909      81.919978      16446.636      16387.971      4031.508       12356.463      2109.5496      3758.4602     -4056.7523      143.11922     -2487.2557      44876.77      -31987.427     -385.15462      49103.25       36.618741      36.618741      36.618741      1.2191886     -984.88837      1649.4431     -418.79484    
     66000   66000          301.1216      -599.97585      16042.372      16473          4056.1924      12416.807      2094.7446      3794.5375     -4018.9251      156.29424     -2486.7807      44869.015     -31992.078     -384.28439      49214.446      36.646362      36.646362      36.646362      1.2164339      1171.9966     -1225.7206     -1746.2036    
     67000   67000          303.39193      86.679247      16436.573      16374.573      4086.7744      12287.798      2135.2272      3750.0121     -4031.4984      142.23796     -2551.6102      44836.222     -31992.793     -385.60847      49045.457      36.604369      36.604369      36.604369      1.2206252      1025.6194      93.931862     -859.51349    
     68000   68000          304.2953       191.67459      16586.497      16449.41       4098.9431      12350.467      2096.2763      3751.3879     -4045.9621      132.69079     -2454.2585      44860.237     -31989.904     -385.6476       49040.48       36.603131      36.603131      36.603131      1.2207491     -515.08826     -566.90733      1657.0194    
     69000   69000          298.00453      34.90375       16514.956      16489.923      4014.2046      12475.719      2169.1277      3798.4677     -4030.8429      154.64968     -2455.7876      44827.997     -31987.893     -384.58237      49176.315      36.636895      36.636895      36.636895      1.2173772      259.65257      421.28853     -576.22985    
     70000   70000          297.89196      1166.3004      17203.958      16360.567      4012.6883      12347.878      2055.0492      3757.9733     -4043.6062      146.11809     -2436.0986      44859.908     -31991.466     -381.41926      49584.134      36.737893      36.737893      36.737893      1.2073645      527.43048      2523.7089      447.7617     
     71000   71000          310.56938      852.91378      17256.765      16641.665      4183.4567      12458.209      2133.1331      3818.6493     -4074.8475      158.06326     -2399.6496      44812.623     -31989.763     -382.45538      49449.804      36.704687      36.704687      36.704687      1.2106443      341.81128      1969.7715      247.15858    
     72000   72000          300.44695     -405.4853       16112.907      16403.734      4047.1047      12356.629      2170.8475      3708.0336     -4035.276       136.04069     -2487.3973      44854.871     -31990.49      -384.55826      49179.397      36.63766       36.63766       36.63766       1.2173009     -1659.6042      191.57305      251.57522    
     73000   73000          298.4543       675.28006      16795.829      16314.244      4020.2632      12293.981      2110.0552      3765.2728     -4014.0154      130.83846     -2514.7047      44813.903     -31997.368     -386.75125      48900.536      36.56828       36.56828       36.56828       1.2242427     -686.83275      1002.5755      1710.0974    
     74000   74000          300.10347     -880.65606      15776.664      16407.697      4042.478       12365.219      2135.5126      3822.0845     -4053.9704      126.47167     -2502.0943      44828.536     -31991.321     -384.92496      49132.546      36.626022      36.626022      36.626022      1.2184616     -1007.564      -1992.3226      357.9184     
     75000   75000          296.19498      726.38599      16882.514      16362.936      3989.8295      12373.107      2130.0159      3789.3241     -4023.9232      144.67247     -2540.1952      44862.008     -31988.796     -385.60117      49046.385      36.6046        36.6046        36.6046        1.2206021      274.7001       1022.5639      881.89398    
     76000   76000          301.60414      1809.8035      17730.436      16432.967      4062.6924      12370.274      2116.2653      3720.6949     -4079.8938      157.28606     -2429.8469      44877.013     -31991.244     -384.72966      49157.487      36.632219      36.632219      36.632219      1.2178434      992.76691      2727.5114      1709.132     
     77000   77000          298.66074     -1575.8457      15187.264      16318.136      4023.044       12295.092      2094.2122      3659.2679     -3996.6541      152.73123     -2461.9604      44839.438     -31991.943     -384.34541      49206.632      36.644422      36.644422      36.644422      1.2166271     -138.39437     -2459.9036     -2129.2391    
     78000   78000          299.96688      242.72321      16600.8        16426.3        4040.638       12385.662      2169.4758      3775.3517     -4073.9875      146.35204     -2444.1858      44804.36      -31991.704     -383.65167      49295.61       36.666497      36.666497      36.666497      1.2144311      745.57601     -598.83426      581.42787    
     79000   79000          296.95792      535.17651      16846.394      16461.866      4000.1065      12461.76       2124.7869      3823.8887     -4064.2349      158.01092     -2449.4018      44858.962     -31990.252     -383.87533      49266.89       36.659374      36.659374      36.659374      1.2151391     -204.89486      2081.7314     -271.30699    
     80000   80000          298.55719     -1345.9194      15528.904      16499.909      4021.6491      12478.26       2196.5478      3834.5356     -4054.5416      150.64318     -2468.9189      44812.285     -31992.29      -382.31283      49468.242      36.709248      36.709248      36.709248      1.210193      -2488.0956     -509.49783     -1040.1648    
     81000   81000          297.88818     -391.47653      16100.713      16383.335      4012.6374      12370.698      2143.4761      3727.6316     -4063.2446      150.77035     -2432.7529      44829.124     -31984.307     -382.05101      49502.142      36.717632      36.717632      36.717632      1.2093643     -849.21294     -40.609502     -284.60714    
     82000   82000          298.65517      625.29757      16797.438      16348.253      4022.9689      12325.284      2144.5354      3700.4099     -4032.8768      165.98187     -2505.4347      44845.17      -31992.501     -383.95698      49256.413      36.656776      36.656776      36.656776      1.2153975     -932.48823      1759.1284      1049.2526    
     83000   83000          304.58683      1301.2691      17416.51       16489.801      4102.8701      12386.931      2065.4604      3741.1714     -4006.8628      139.27931     -2457.5627      44893.18      -31987.735     -387.29754      48831.561      36.551079      36.551079      36.551079      1.2259719     -820.72075      1437.8128      3286.7152    
     84000   84000          299.7053      -1292.3896      15435.492      16361.586      4037.1145      12324.472      2095.4012      3677.8485     -4011.8348      141.72496     -2454.6583      44863.533     -31987.542     -384.91031      49134.416      36.626487      36.626487      36.626487      1.2184153     -2793.4609     -468.47042     -615.2374     
     85000   85000          305.09789      325.22207      16715.52       16481.873      4109.7542      12372.119      2049.5818      3762.1107     -4016.3076      161.42032     -2432.0895      44833.301     -31985.897     -383.9213       49260.991      36.657911      36.657911      36.657911      1.2152846     -34.77916      -276.87111      1287.3165    
     86000   86000          294.19954      855.46345      16956.901      16345.332      3962.9503      12382.381      2081.1608      3676.0257     -4000.3519      147.72725     -2446.0711      44918.075     -31994.184     -385.81311      49019.443      36.597896      36.597896      36.597896      1.221273       693.58528      237.2518       1635.5533    
     87000   87000          306.31447      543.38687      16917.654      16527.188      4126.1419      12401.046      2107.9767      3751.3339     -4053.2192      147.54383     -2413.5459      44859.131     -31998.174     -383.83735      49271.764      36.660583      36.660583      36.660583      1.2150189     -920.01287      2064.2051      485.96842    
     88000   88000          302.43713     -995.62121      15704.517      16418.217      4073.913       12344.304      2013.0485      3737.8821     -3976.4824      170.74681     -2486.2726      44869.058     -31983.676     -384.76822      49152.562      36.630995      36.630995      36.630995      1.2179655     -2849.2061      706.10371     -843.76121    
     89000   89000          304.33618     -2296.0943      14832.933      16480.337      4099.4937      12380.843      2130.6045      3776.9297     -4068.3839      151.07903     -2466.0601      44839.816     -31983.142     -384.42444      49196.517      36.641911      36.641911      36.641911      1.2168773     -1827.0776     -2992.2955     -2068.9097    
     90000   90000          302.49624      1926.3554      17742.357      16369.79       4074.7093      12295.081      2039.6233      3713.6657     -4036.048       137.29171     -2483.5414      44907.121     -31983.031     -387.10088      48856.369      36.557268      36.557268      36.557268      1.2253494      1012.389       2242.9348      2523.7422    
     91000   91000          296.19667     -551.91935      15991.181      16387.066      3989.8523      12397.214      2107.0364      3801.574      -3961.3856      151.71048     -2524.2563      44820.182     -31997.647     -384.52752      49183.329      36.638637      36.638637      36.638637      1.2172035     -1720.5882     -527.41992      592.25004    
     92000   92000          305.35975      1682.5493      17725.729      16505.907      4113.2815      12392.625      2173.2313      3698.8371     -4052.4241      158.7632      -2450.7141      44865.032     -32000.1       -380.44543      49711.054      36.769212      36.769212      36.769212      1.2042819      2828.2151      1874.2008      345.2321     
     93000   93000          294.94698      61.731358      16436.026      16391.485      3973.0186      12418.466      2199.9457      3711.0226     -4049.3144      156.9138      -2447.5749      44832.886     -31985.413     -382.27107      49473.645      36.710585      36.710585      36.710585      1.2100609     -4.3426148      962.16441     -772.62772    
     94000   94000          299.74237     -1840.0126      15147.735      16472.791      4037.6138      12435.177      2189.1347      3821.8865     -4029.7068      144.65493     -2526.187       44827.765     -31992.371     -383.00815      49378.436      36.687021      36.687021      36.687021      1.2123941     -1418.011      -2123.2275     -1978.7992    
     95000   95000          297.64994     -129.0127       16239.828      16332.248      4009.4283      12322.82       2147.4977      3727.4888     -4053.126       147.4993      -2500.3414      44840.73      -31986.929     -385.02621      49119.626      36.622812      36.622812      36.622812      1.2187821     -835.78334     -323.58413      772.32937    
     96000   96000          304.50151     -262.94759      16318.618      16506.853      4101.7208      12405.132      2181.0429      3762.2894     -4089.6871      143.10455     -2434.3406      44827.623     -31984.9       -385.29288      49085.629      36.61436       36.61436       36.61436       1.2196263     -1566.6415      327.49286      450.30588    
     97000   97000          307.63927      1256.3684      17440.657      16539.066      4143.9874      12395.079      2176.143       3762.2738     -4058.3135      152.85795     -2490.1088      44839.762     -31987.535     -384.35156      49205.845      36.644227      36.644227      36.644227      1.2166466     -58.927497      3175.6507      652.38201    
     98000   98000          296.33093     -1381.7954      15401.027      16390.622      3991.6608      12398.961      2182.5034      3776.9983     -4019.2674      153.35182     -2500.4569      44796.416     -31990.584     -385.13018      49106.366      36.619516      36.619516      36.619516      1.2191112     -1781.3015     -2452.8087      88.72394     
     99000   99000          303.38448      296.51732      16724.916      16511.856      4086.674       12425.182      2164.5332      3784.2371     -4030.6921      137.57268     -2482.2055      44843.453     -31991.716     -383.85651      49269.305      36.659973      36.659973      36.659973      1.2150795     -730.32618      1156.9069      462.97121    
    100000   100000         297.26786      739.11084      16876.488      16345.242      4004.2815      12340.96       2121.2173      3718.8949     -4047.2379      123.6071      -2448.5801      44867.528     -31994.469     -383.73815      49284.501      36.663742      36.663742      36.663742      1.2147048      891.18368     -604.1714       1930.3202    
    101000   101000         300.70446     -999.30541      15637.651      16355.954      4050.5735      12305.381      2078.9073      3751.9411     -4077.4486      161.35478     -2459.7176      44838.293     -31987.95      -383.71743      49287.163      36.664402      36.664402      36.664402      1.2146392     -935.00211     -2201.9552      139.04104    
    102000   102000         298.34796     -96.735305      16349.145      16418.478      4018.8308      12399.647      2051.0399      3826.7855     -4024.8308      145.90546     -2467.983       44853.441     -31984.711     -384.83068      49144.583      36.629013      36.629013      36.629013      1.2181632      292.44254     -63.874794     -518.77366    
    103000   103000         290.86827      903.81491      16934.766      16282.738      3918.0772      12364.661      2138.7029      3773.2943     -4069.4551      137.38849     -2462.0788      44840.489     -31993.68      -382.32646      49466.478      36.708812      36.708812      36.708812      1.2102362      991.83463      150.45519      1569.1549    
    104000   104000         300.5188      -588.58626      16042.709      16466.074      4048.0726      12418.001      2096.1867      3792.439      -4018.5481      165.4133      -2469.7569      44842.62      -31990.353     -383.45716      49320.616      36.672695      36.672695      36.672695      1.2138154      139.84067     -1960.3751      54.7757      
    105000   105000         297.19896      351.80912      16647.694      16394.055      4003.3534      12390.701      2082.9561      3734.459      -4015.916       149.19553     -2422.5539      44859.646     -31997.086     -382.57048      49434.927      36.701006      36.701006      36.701006      1.2110086      1092.4051      1017.0953     -1054.0731    
    106000   106000         302.63273     -295.08699      16249.962      16462.901      4076.5478      12386.353      2104.614       3732.1857     -4026.9731      150.98003     -2460.5215      44870.271     -31984.203     -382.22242      49479.943      36.712143      36.712143      36.712143      1.2099068      907.52826      1502.1096     -3294.8988    
    107000   107000         295.86601     -1228.6362      15450.815      16338.972      3985.3982      12353.574      2094.812       3769.6861     -4064.678       147.28235     -2445.2808      44839.373     -31987.621     -381.55263      49566.802      36.733612      36.733612      36.733612      1.2077867     -1734.6535     -1022.8365     -928.41847    
    108000   108000         304.6409      -1161.4935      15628.681      16463.414      4103.5983      12359.816      2119.6514      3742.6671     -4033.5081      139.99155     -2437.7824      44820.878     -31992.082     -383.78736      49278.182      36.662175      36.662175      36.662175      1.2148606     -2358.4057     -1018.4155     -107.65945    
    109000   109000         290.39846      1440.3283      17310.643      16274.511      3911.7488      12362.762      2109.2257      3687.8477     -4030.0453      151.84573     -2465.5056      44897.092     -31987.698     -383.41367      49326.21       36.674082      36.674082      36.674082      1.2136777      632.61189      1906.1974      1782.1755    
    110000   110000         303.55467     -1498.7925      15369.793      16443.089      4088.9665      12354.122      2098.4856      3751.4017     -4001.406       158.23136     -2545.9286      44886.974     -31993.636     -385.16197      49102.312      36.618508      36.618508      36.618508      1.2192119     -1282.124      -1811.5155     -1402.738     
    111000   111000         303.82467     -1078.982       15682.463      16457.199      4092.6035      12364.595      2120.5695      3740.1826     -4008.9415      153.10456     -2487.2486      44842.218     -31995.29      -384.13336      49233.796      36.651164      36.651164      36.651164      1.2159558     -3649.7325      597.59181     -184.80536    
    112000   112000         290.48037      854.40778      16881.885      16268.426      3912.852       12355.574      2085.1793      3739.8699     -4017.2463      144.34584     -2470.9911      44861.264     -31986.848     -384.14981      49231.687      36.650641      36.650641      36.650641      1.2160079      647.24999      1094.1833      821.7901     
    113000   113000         298.09137     -668.06678      15876.553      16357.258      4015.3744      12341.883      2090.0632      3697.5004     -4000.697       143.04448     -2491.5809      44893.903     -31990.349     -383.3211       49338.123      36.677034      36.677034      36.677034      1.2133847     -1826.216       299.37307     -477.35738    
    114000   114000         297.75042      1678.1754      17568.715      16363.392      4010.7817      12352.61       2074.2714      3761.8638     -4035.7884      158.80134     -2493.0717      44883.173     -31996.639     -384.02125      49248.169      36.65473       36.65473       36.65473       1.215601       1377.2936      2011.0448      1646.188     
    115000   115000         301.31213      1022.1041      17247.917      16510.86       4058.7589      12452.101      2070.0679      3794.4853     -4006.6214      168.88556     -2435.014       44853.947     -31993.649     -382.48612      49445.83       36.703704      36.703704      36.703704      1.2107416     -241.31885      1337.2407      1970.3906    
    116000   116000         291.7354       923.08935      17012.442      16351.155      3929.7577      12421.397      2114.746       3777.355      -4005.4576      143.8473      -2476.0805      44857.665     -31990.678     -385.01233      49121.396      36.623252      36.623252      36.623252      1.2187382      1263.7152      1657.1047     -151.55185    
    117000   117000         303.95338      439.55055      16820.997      16505.658      4094.3373      12411.321      2118.9293      3772.4392     -4027.5875      169.24507     -2484.8161      44855.027     -31991.916     -384.46189      49191.724      36.640721      36.640721      36.640721      1.2169958     -195.95096     -770.95222      2285.5548    
    118000   118000         303.34947     -662.22576      15888.846      16362.151      4086.2025      12275.949      2121.7333      3639.8136     -4010.9887      131.16936     -2477.7597      44863.162     -31991.181     -385.9099       49007.147      36.594836      36.594836      36.594836      1.2215794      706.14628     -1217.3641     -1475.4595    
    119000   119000         301.7474      -310.71526      16306.64       16528.165      4064.6222      12463.543      2146.886       3796.5439     -3987.0639      135.57884     -2469.1945      44841.495     -32000.703     -386.86652      48885.966      36.564648      36.564648      36.564648      1.2246075      395.80779     -1219.1517     -108.80182    
    120000   120000         300.47782     -30.281528      16355.439      16377.082      4047.5205      12329.562      2092.4045      3759.3865     -4062.9435      146.74324     -2492.6449      44878.744     -31992.129     -385.89733      49008.744      36.595234      36.595234      36.595234      1.2215396     -734.21315      617.2629       26.105674    
    121000   121000         298.74064     -548.21687      15923.687      16316.093      4024.1203      12291.973      2122.5276      3728.6273     -4048.7323      145.55495     -2490.507       44823.043     -31988.541     -385.33462      49080.312      36.613038      36.613038      36.613038      1.2197584      223.08256     -2937.3707      1069.6375    
    122000   122000         301.52825     -132.8666       16382.604      16478.246      4061.6701      12416.576      2119.1024      3775.7322     -4036.6886      139.86582     -2459.481       44865.82      -31987.775     -383.16714      49357.948      36.681946      36.681946      36.681946      1.2128973      1856.265      -1196.0991     -1058.7657    
    123000   123000         294.21493     -1180.1339      15572.946      16421.412      3963.1576      12458.254      2193.5355      3803.5661     -4109.365       149.92576     -2453.1875      44861.961     -31988.181     -383.63506      49297.745      36.667026      36.667026      36.667026      1.2143785     -1762.2329     -2866.7428      1088.5741    
    124000   124000         296.55376      605.96383      16867.224      16432.168      3994.6624      12437.505      2200.4547      3691.5418     -4018.932       158.4417      -2444.028       44845.944     -31995.916     -384.16871      49229.265      36.65004       36.65004       36.65004       1.2160678      323.87192      1146.7598      347.25983    
    125000   125000         297.10144     -1211.8172      15463.172      16330.197      4002.0397      12328.157      2158.3342      3735.0878     -4056.015       136.57982     -2473.1875      44821.544     -31994.186     -385.50232      49058.962      36.607729      36.607729      36.607729      1.2202892     -1378.9687     -734.1269      -1522.356     
    126000   126000         301.47204     -148.804        16273.807      16380.027      4060.913       12319.114      2121.4625      3756.81       -4008.543       154.14918     -2543.6852      44836.851     -31997.93      -386.39286      48945.893      36.579583      36.579583      36.579583      1.2231082     -615.96303     -884.30087      1053.8519    
    127000   127000         299.88729      752.27767      16968.608      16430.337      4039.566       12390.771      2062.138       3831.9956     -4034.6877      140.36811     -2487.5532      44869.315     -31990.805     -385.4771       49062.17       36.608527      36.608527      36.608527      1.2202094     -861.18759      1208.6712      1909.3494    
    128000   128000         294.92788      247.9101       16569.018      16391.662      3972.7613      12418.901      2138.0726      3806.2194     -4019.7343      134.89783     -2486.1101      44834.659     -31989.104     -385.54038      49054.119      36.606524      36.606524      36.606524      1.2204097     -409.03844      1212.3287     -59.559979    
    129000   129000         299.16163     -2725.8771      14395.725      16352.909      4029.7911      12323.118      2117.5908      3761.3579     -4033.5581      150.34902     -2525.052       44850.662     -31998.232     -384.14573      49232.21       36.650771      36.650771      36.650771      1.215995      -2539.1735     -2132.5008     -3505.9571    
    130000   130000         294.88503     -935.67402      15655.517      16326.506      3972.1841      12354.322      2155.7715      3699.3357     -4050.3747      156.26839     -2474.5068      44857.081     -31989.254     -384.61866      49171.674      36.635743      36.635743      36.635743      1.2174921     -1140.2937     -1641.8161     -24.912258    
    131000   131000         295.28477     -1275.2967      15453.271      16367.532      3977.5687      12389.963      2126.0354      3804.9648     -4030.4187      152.37842     -2484.9948      44822.345     -32000.347     -384.73553      49156.738      36.632033      36.632033      36.632033      1.217862      -1510.5374     -211.291       -2104.0617    
    132000   132000         305.91359      560.3082       16799.866      16399.472      4120.7419      12278.73       2154.752       3656.9317     -4056.4994      152.57274     -2475.7993      44840.899     -31994.127     -385.97638      48998.706      36.592735      36.592735      36.592735      1.2217899      230.05107     -343.0645       1793.938     
    133000   133000         302.74071      967.1201       17115.326      16420.252      4078.0023      12342.25       2089.5855      3757.006      -4066.1487      153.37824     -2433.8497      44840.235     -31997.956     -383.76964      49280.458      36.662739      36.662739      36.662739      1.2148045      1982.6819     -561.87163      1480.55      
    134000   134000         296.72001     -86.168311      16256.93       16318.626      3996.9018      12321.724      2082.2835      3729.1678     -4060.1677      155.68617     -2477.427       44890.007     -31997.826     -385.22478      49094.306      36.616518      36.616518      36.616518      1.2194107      476.34205     -345.3754      -389.47158    
    135000   135000         305.38127     -25.394438      16402.962      16421.046      4113.5713      12307.474      2132.9128      3756.242      -4059.8341      139.53513     -2473.0308      44808.193     -31996.544     -387.31403      48829.482      36.55056       36.55056       36.55056       1.2260241      1325.5544     -105.44022     -1296.2975    
    136000   136000         299.77104     -2257.1837      14824.292      16440.874      4038.0001      12402.874      2149.6697      3733.5442     -4063.724       168.96911     -2454.9974      44855.579     -31986.167     -385.11495      49108.308      36.619999      36.619999      36.619999      1.219063      -1849.7186     -3437.7514     -1484.081     
    137000   137000         302.31338      1380.7083      17439.369      16459.307      4072.246       12387.061      2138.4324      3772.8428     -4067.0116      159.4043      -2470.9012      44848.939     -31994.645     -388.5702       48671.627      36.511131      36.511131      36.511131      1.2300004      1370.4162      191.20834      2580.5003    
    138000   138000         298.90388      2465.5034      18106.293      16348.762      4026.3191      12322.443      2092.0851      3744.0729     -4094.3805      157.91884     -2448.9442      44863.442     -31991.751     -386.92253      48878.889      36.562884      36.562884      36.562884      1.2247848      2787.7097      1898.6692      2710.1313    
    139000   139000         303.19592     -716.8482       15959.672      16473.254      4084.1341      12389.12       2138.0543      3755.1589     -4072.9183      155.63233     -2449.9501      44861.898     -31998.755     -384.98042      49125.469      36.624264      36.624264      36.624264      1.2186372     -1787.7516     -1211.8668      849.07384    
    140000   140000         296.1056      -664.7485       15889.093      16363.885      3988.6255      12375.26       2100.0365      3766.251      -4031.4699      138.37903     -2477.5804      44871.718     -31992.075     -386.16699      48974.521      36.586713      36.586713      36.586713      1.2223932     -872.93752     -1211.4373      90.129302    
    141000   141000         299.72776      333.6727       16625.852      16386.54       4037.417       12349.123      2114.6567      3741.4421     -4020.2813      159.90625     -2443.944       44798.753     -32001.409     -384.57272      49177.548      36.637201      36.637201      36.637201      1.2173466     -974.53606      2199.1769     -223.6227     
    142000   142000         296.02554     -1248.8808      15508.981      16406.84       3987.5471      12419.293      2210.0545      3824.8408     -4105.5046      148.0894      -2499.5964      44836.86      -31995.45      -383.64893      49295.963      36.666584      36.666584      36.666584      1.2144224     -2698.5506     -852.06407     -196.02765    
    143000   143000         300.49614      457.794        16751.084      16425.497      4047.7674      12377.729      2047.0955      3795.4019     -3964.8745      141.286       -2503.4806      44858.3       -31995.999     -387.8138       48766.556      36.534853      36.534853      36.534853      1.2276061      591.84283      310.71341      470.82575    
    144000   144000         301.09312     -211.70046      16255.48       16406.427      4055.8088      12350.618      2129.4132      3789.7103     -4048.5191      138.44772     -2499.509       44835.854     -31994.78      -386.82899      48890.709      36.565831      36.565831      36.565831      1.2244887      733.32516      90.244593     -1458.6711    
    145000   145000         304.29519     -1.0525014      16470.948      16471.7        4098.9416      12372.758      2100.2363      3765.8257     -4023.6037      146.39232     -2490.5086      44868.35      -31993.934     -386.20119      48970.184      36.585633      36.585633      36.585633      1.2225015      527.03352     -424.94772     -105.2433     
    146000   146000         296.84573     -610.81537      15753.895      16189.317      3998.5953      12190.722      2051.1705      3694.6184     -4047.5547      141.44635     -2509.629       44857.307     -31996.636     -386.91907      48879.327      36.562993      36.562993      36.562993      1.2247739     -1434.0119     -1363.6541      965.2199     
    147000   147000         299.43427     -1037.4311      15742.305      16484.997      4033.4636      12451.534      2236.4459      3814.2098     -4093.7631      164.9752      -2465.6661      44787.729     -31992.397     -385.27543      49087.852      36.614913      36.614913      36.614913      1.219571      -1193.5691     -2183.7945      265.07027    
[...]
   1955000   1955000        297.59918      1981.4361      17670.84       16263.045      4008.7444      12254.3        2116.5643      3732.2711     -4109.0894      150.11821     -2475.6337      44842.367     -32002.297     -388.20574      48717.321      36.522553      36.522553      36.522553      1.2288468      2667.2048      1246.9451      2030.1585    
   1956000   1956000        300.70686      1026.9848      17080.647      16358.42       4050.6058      12307.814      2141.44        3756.3053     -4048.1247      137.94383     -2549.3532      44869.586     -31999.983     -392.2038       48220.704      36.398027      36.398027      36.398027      1.2415025      556.51871      1406.9899      1117.4457    
   1957000   1957000        302.61244     -1303.1274      15424.598      16355.162      4076.2745      12278.887      2143.0601      3767.2952     -4026.4009      124.34934     -2526.7743      44795.67      -31998.313     -386.24415      48964.738      36.584277      36.584277      36.584277      1.2226375     -1073.4558      4.5451804     -2840.4715    
   1958000   1958000        301.23642      106.50335      16440.003      16363.963      4057.7391      12306.224      2073.3195      3763.3644     -4039.2426      156.2448      -2496.79        44849.589     -32000.262     -386.3165       48955.567      36.581993      36.581993      36.581993      1.2228665     -116.91785      1229.0183     -792.59044    
   1959000   1959000        303.85766      1398.5418      17416.601      16414.623      4093.048       12321.575      2153.8115      3678.7201     -4052.6524      150.61388     -2436.1787      44825.665     -31998.404     -384.98034      49125.479      36.624266      36.624266      36.624266      1.2186369     -191.44215      1299.3109      3087.7566    
   1960000   1960000        307.26192     -209.52461      16366.163      16516.551      4138.9043      12377.647      2159.2023      3750.4966     -4031.8437      150.03404     -2518.5142      44848.087     -31979.815     -384.27434      49215.733      36.646681      36.646681      36.646681      1.2164021     -431.40478     -487.34263      290.17358    
   1961000   1961000        302.24545     -1229.6665      15567.666      16449.458      4071.3311      12378.127      2185.6482      3724.9878     -4057.3779      136.30273     -2463.893       44836.761     -31984.302     -384.62915      49170.333      36.635409      36.635409      36.635409      1.2175253     -1414.1644     -123.75598     -2151.0792    
   1962000   1962000        294.03125     -1347.1136      15284.08       16249.253      3960.6835      12288.57       2129.4812      3841.0224     -4043.8027      143.83108     -2567.8232      44779.956     -31994.095     -384.96412      49127.549      36.624781      36.624781      36.624781      1.2185856     -193.20081     -1409.4566     -2438.6834    
   1963000   1963000        295.56666     -1616.6768      15197.611      16356.817      3981.3658      12375.452      2149.1239      3790.8078     -4062.572       140.17791     -2463.6253      44812.662     -31991.123     -384.66598      49165.626      36.63424       36.63424       36.63424       1.2176418     -2058.7813     -558.06269     -2233.1863    
   1964000   1964000        300.13688     -199.65115      16246.419      16388.552      4042.928       12345.624      2119.1158      3837.1456     -4036.2034      155.03018     -2556.0848      44821.329     -31994.708     -387.43235      48814.57       36.546839      36.546839      36.546839      1.2263986     -323.60312      1308.4157     -1583.766     
   1965000   1965000        298.93656      718.946        16802.835      16290.314      4026.7593      12263.554      2094.6762      3716.8869     -4055.6828      133.90147     -2478.0969      44848.941     -31997.071     -386.90589      48880.992      36.563408      36.563408      36.563408      1.2247322      1149.0055      1410.3087     -402.47625    
   1966000   1966000        299.26599      1244.8773      17262.004      16365.285      4031.1969      12334.088      2162.0202      3748.9668     -4077.0661      134.86463     -2426.1365      44793.058     -32001.62      -382.9053       49391.699      36.690305      36.690305      36.690305      1.2120685      1922.5926      229.00091      1583.0383    
   1967000   1967000        301.16675     -628.36709      15936.743      16386.744      4056.8006      12329.944      2087.5344      3783.2687     -4018.1316      145.33787     -2529.338       44855.447     -31994.175     -385.14181      49104.882      36.619147      36.619147      36.619147      1.2191481      304.66737     -617.36856     -1572.4001    
   1968000   1968000        308.11681      1159.3359      17318.76       16489.841      4150.4199      12339.421      2162.9946      3765.4328     -4058.9787      149.67415     -2525.3959      44843.95      -31998.256     -385.76078      49026.092      36.599551      36.599551      36.599551      1.2211074      610.85786      1625.3468      1241.8029    
   1969000   1969000        300.36997      16.846534      16450.75       16438.758      4046.0678      12392.69       2201.8357      3812.2152     -4049.6758      144.86797     -2541.2853      44823.845     -31999.113     -387.45569      48811.629      36.546105      36.546105      36.546105      1.2264725      1250.7276     -540.83446     -659.35355    
   1970000   1970000        305.11509     -808.99539      15824.392      16401.289      4109.9859      12291.303      2087.9133      3692.4984     -3990.7488      166.37101     -2506.297       44838.601     -31997.035     -386.78498      48896.272      36.567218      36.567218      36.567218      1.2243494     -1809.7541     -263.79196     -353.4401     
   1971000   1971000        296.43668      355.85869      16526.411      16274.104      3993.0853      12281.019      2138.2265      3735.1524     -4037.8525      150.06095     -2532.1899      44825.222     -31997.601     -389.01715      48615.706      36.497143      36.497143      36.497143      1.2314153      310.661        274.32953      482.58554    
   1972000   1972000        305.40509      307.70523      16680.05       16461.658      4113.8923      12347.766      2104.7167      3810.89       -3975.4253      129.98243     -2551.1306      44819.607     -31990.874     -388.61508      48666.004      36.509725      36.509725      36.509725      1.2301425      362.0517       1396.9998     -835.93583    
   1973000   1973000        300.49301     -787.58095      15895.904      16460.785      4047.7252      12413.06       2139.8366      3777.3294     -4017.0271      156.74117     -2497.4257      44846.362     -31992.756     -384.5559       49179.7        36.637736      36.637736      36.637736      1.2172934     -1415.54       -52.554543     -894.64832    
   1974000   1974000        299.39801     -840.14738      15753.056      16353.92       4032.9752      12320.945      2071.0732      3773.9904     -4030.747       136.08807     -2484.0661      44846.527     -31991.921     -385.65674      49039.318      36.602842      36.602842      36.602842      1.220778       327.69382     -2358.4897     -489.64627    
   1975000   1975000        295.74669      347.07169      16729.412      16481.022      3983.7909      12497.231      2132.92        3849.953      -4026.0215      143.29043     -2482.324       44872.136     -31992.723     -385.39506      49072.615      36.611124      36.611124      36.611124      1.2199497      347.2479       507.50039      186.46678    
   1976000   1976000        296.55218      152.48983      16442.875      16333.096      3994.6411      12338.455      2196.0236      3710.9805     -4061.1983      136.54483     -2477.7563      44831.498     -31997.636     -383.12975      49362.764      36.683139      36.683139      36.683139      1.212779      -310.40374      715.11532      52.757902    
   1977000   1977000        305.32434     -729.96264      15992.741      16518.242      4112.8045      12405.437      2146.9761      3851.8282     -4039.9915      149.12714     -2556.2569      44852.067     -31998.313     -383.1322       49362.448      36.683061      36.683061      36.683061      1.2127867     -1938.1937     -704.67194      452.9777     
   1978000   1978000        298.87018      190.56246      16527.067      16389.855      4025.8652      12363.99       2142.8832      3745.8404     -4039.282       120.08012     -2470.5321      44859.296     -31994.296     -383.05984      49371.773      36.68537       36.68537       36.68537       1.2125577     -546.55516      871.61757      246.62495    
   1979000   1979000        301.14931      1504.6619      17532.241      16456.731      4056.5656      12400.165      2155.3249      3724.204      -4044.0773      158.50174     -2429.54        44835.272     -31999.52      -385.87392      49011.718      36.595974      36.595974      36.595974      1.2214655      855.46112      1728.6384      1929.8862    
   1980000   1980000        304.32034      1133.6324      17259.596      16448.332      4099.2803      12349.052      2149.4674      3681.4665     -4061.5565      148.96236     -2411.7629      44841.518     -31999.042     -385.41745      49069.764      36.610415      36.610415      36.610415      1.2200206      451.45954      2079.6469      869.79069    
   1981000   1981000        297.87073     -1337.086       15365.218      16325.205      4012.4023      12312.803      2092.6525      3737.2517     -4007.2949      142.36192     -2512.7197      44848.912     -31988.361     -384.16265      49230.042      36.650233      36.650233      36.650233      1.2160486     -820.60189     -2746.2804     -444.37565    
   1982000   1982000        298.262       -521.81847      15854.398      16228.518      4017.6728      12210.845      2069.9156      3715.1603     -4060.9112      146.31924     -2499.0737      44839.625     -32000.19      -384.70707      49160.373      36.632936      36.632936      36.632936      1.2177719     -451.01168     -670.43804     -444.0057     
   1983000   1983000        299.75985     -633.96721      15950.971      16407.254      4037.8493      12369.405      2149.5344      3755.8969     -4084.3393      154.39088     -2478.8127      44863.367     -31990.632     -383.22418      49350.6        36.680126      36.680126      36.680126      1.2130779      1086.9785     -1736.384      -1252.4961    
   1984000   1984000        296.34209      215.12038      16478.307      16324.854      3991.8111      12333.043      2134.5341      3736.055      -4020.8961      141.97288     -2489.7143      44829.762     -31998.67      -386.65802      48912.327      36.571219      36.571219      36.571219      1.2239475     -108.98884      690.5913       63.758686    
   1985000   1985000        302.25871     -749.57439      15836.236      16370.853      4071.5096      12299.343      2146.725       3767.883      -4062.7062      166.69513     -2558.1628      44836.074     -31997.164     -386.71712      48904.852      36.569356      36.569356      36.569356      1.2241346     -993.32192      1484.7901     -2740.1914    
   1986000   1986000        299.0951       1159.1699      17185.257      16360.698      4028.8949      12331.803      2194.2416      3770.0364     -4064.2382      137.10046     -2497.7268      44788.386     -31995.996     -387.7453       48775.171      36.537004      36.537004      36.537004      1.2273893      2176.7264      324.72352      976.05975    
   1987000   1987000        299.50034      54.290325      16330.155      16291.151      4034.3536      12256.797      2128.7752      3675.8202     -4042.5523      141.31403     -2449.3667      44805.685     -32002.879     -383.90657      49262.88       36.65838       36.65838       36.65838       1.215238      -1104.8244      1896.983      -629.28755    
   1988000   1988000        298.08802      1953.7525      17749.006      16357.063      4015.3293      12341.734      2116.7572      3747.9461     -4020.6855      165.09094     -2521.3462      44851.023     -31997.052     -387.1412       48851.28       36.555998      36.555998      36.555998      1.225477       2752.1292     -1032.9047      4142.0329    
   1989000   1989000        299.34878     -779.8526       15731.745      16289.28       4032.3121      12256.968      2081.9923      3695.3622     -4022.9625      136.85067     -2487.4007      44843.48      -31990.354     -385.79915      49021.216      36.598338      36.598338      36.598338      1.2212288     -566.50973     -983.32387     -789.72419    
   1990000   1990000        296.21938     -679.81635      15914.893      16400.592      3990.1581      12410.434      2207.9257      3793.2576     -4021.1087      150.68681     -2529.6293      44808.118     -31998.816     -386.05232      48989.068      36.590336      36.590336      36.590336      1.2220302     -678.03882     -1879.0979      517.68771    
   1991000   1991000        296.31795     -572.30277      15949.735      16357.438      3991.4859      12365.952      2204.999       3711.7967     -4014.0484      149.85721     -2518.9779      44838.364     -32006.039     -387.17084      48847.541      36.555066      36.555066      36.555066      1.2255708     -1762.425      -220.56348      266.08015    
   1992000   1992000        299.28634     -1036.7317      15617.757      16359.081      4031.471       12327.61       2126.1256      3792.5485     -4058.4684      164.44246     -2515.9578      44820.314     -32001.394     -385.72666      49030.429      36.60063       36.60063       36.60063       1.2209994     -111.89553     -13.110086     -2985.1895    
   1993000   1993000        293.48165      425.67652      16670.932      16366.343      3953.2802      12413.063      2161.8841      3791.0471     -4031.1708      153.65462     -2481.8295      44820.01      -32000.532     -385.46633      49063.542      36.608868      36.608868      36.608868      1.2201753      165.42631      1149.8057     -38.202459    
   1994000   1994000        295.20663      741.22752      16830.802      16303.857      3976.5161      12327.341      2193.8656      3751.0167     -4065.8923      145.90803     -2507.8353      44807.086     -31996.808     -387.97828      48745.882      36.529689      36.529689      36.529689      1.2281268      45.149418      920.00687      1258.5263    
   1995000   1995000        293.23108     -39.640567      16310.371      16338.628      3949.9049      12388.723      2146.5701      3803.3544     -4034.0697      157.60572     -2553.9191      44869.07      -31999.889     -386.93046      48877.888      36.562634      36.562634      36.562634      1.2248099      1337.8202     -597.68935     -859.05256    
   1996000   1996000        299.43238      890.70589      16994.357      16361.828      4033.4382      12328.39       2142.7785      3769.4758     -4022.7065      138.62416     -2503.2345      44800.669     -31997.217     -388.39642      48693.403      36.516575      36.516575      36.516575      1.2294504      1169.5364      882.75522      619.82603    
   1997000   1997000        300.11759      28.55465       16435.384      16415.165      4042.6682      12372.497      2208.0761      3758.6295     -4055.7113      147.08054     -2525.9186      44839.355     -31999.015     -389.52854      48551.881      36.481164      36.481164      36.481164      1.233034       1103.7503     -539.58146     -478.5049     
   1998000   1998000        301.64343     -421.87346      16095.1        16396.218      4063.2216      12332.996      2143.5709      3789.5381     -4049.4362      154.77272     -2523.8239      44819.193     -32000.818     -386.42577      48941.725      36.578545      36.578545      36.578545      1.2232124      587.72491      12.108272     -1865.4536    
   1999000   1999000        300.02098      52.497671      16340.524      16303.13       4041.3668      12261.764      2124.7507      3708.7445     -4036.3922      145.13455     -2510.9399      44826.681     -31996.215     -387.23134      48839.909      36.553162      36.553162      36.553162      1.2257624      169.49752     -590.503        578.49849    
   2000000   2000000        306.10324      643.43657      16925.682      16469.246      4123.2965      12345.95       2245.7125      3723.4434     -4054.5351      145.22679     -2522.832       44803.996     -31995.061     -388.81911      48640.467      36.503338      36.503338      36.503338      1.2307884     -605.17711     -1041.3729      3576.8597    
Loop time of 7375.88 on 1 procs for 2000000 steps with 4520 atoms

Performance: 23.428 ns/day, 1.024 hours/ns, 271.154 timesteps/s, 1.226 Matom-step/s
100.0% CPU use with 1 MPI tasks x 1 OpenMP threads

MPI task timing breakdown:
Section |  min time  |  avg time  |  max time  |%varavg| %total
---------------------------------------------------------------
Pair    | 2171.8     | 2171.8     | 2171.8     |   0.0 | 29.44
Bond    | 1220.4     | 1220.4     | 1220.4     |   0.0 | 16.55
Kspace  | 2502.1     | 2502.1     | 2502.1     |   0.0 | 33.92
Neigh   | 410.74     | 410.74     | 410.74     |   0.0 |  5.57
Comm    | 65.326     | 65.326     | 65.326     |   0.0 |  0.89
Output  | 18.157     | 18.157     | 18.157     |   0.0 |  0.25
Modify  | 591.37     | 591.37     | 591.37     |   0.0 |  8.02
Other   |            | 396        |            |       |  5.37

Nlocal:           4520 ave        4520 max        4520 min
Histogram: 1 0 0 0 0 0 0 0 0 0
Nghost:          15116 ave       15116 max       15116 min
Histogram: 1 0 0 0 0 0 0 0 0 0
Neighs:              0 ave           0 max           0 min
Histogram: 1 0 0 0 0 0 0 0 0 0
FullNghs:  2.67127e+06 ave 2.67127e+06 max 2.67127e+06 min
Histogram: 1 0 0 0 0 0 0 0 0 0

Total # of neighbors = 2671274
Ave neighs/atom = 590.98982
Ave special neighs/atom = 5.5353982
Neighbor list builds = 68044
Dangerous builds = 0

# --- Cleanup ---
unfix npt_fix

undump dump_npt

# --- Write Output ---
write_dump all custom npt_prod300_last.dump id type mol x y z xu yu zu vx vy vz modify sort id
write_data /home/arz2/PolyJarvis/data/PLA2/lammps/equil/npt_prod300/npt_prod300_out.data
System init for write_data ...
PPPM Kokkos initialization ...
  using 12-bit tables for long-range coulomb
  G vector (1/distance) = 0.34316179
  grid = 45 45 45
  stencil order = 5
  estimated absolute RMS force accuracy = 0.00024931228
  estimated relative force accuracy = 7.5079654e-07
  using double precision cuFFT
  3d grid and FFT values/proc = 140608 91125
Generated 21 of 21 mixed pair_coeff terms from sixthpower/sixthpower mixing rule

print "STAGE COMPLETE: NPT T=300.0->300.0K P=1.0->1.0atm steps=2000000"
STAGE COMPLETE: NPT T=300.0->300.0K P=1.0->1.0atm steps=2000000
quit
       |  5.37

Nlocal:           4520 ave        4520 max        4520 min
Histogram: 1 0 0 0 0 0 0 0 0 0
Nghost:          15116 ave       15116 max       15116 min
Histogram: 1 0 0 0 0 0 0 0 0 0
Neighs:              0 ave           0 max           0 min
Histogram: 1 0 0 0 0 0 0 0 0 0
FullNghs:  2.67127e+06 ave 2.67127e+06 max 2.67127e+06 min
Histogram: 1 0 0 0 0 0 0 0 0 0

Total # of neighbors = 2671274
Ave neighs/atom = 590.98982
Ave special neighs/atom = 5.5353982
Neighbor list builds = 68044
Dangerous builds = 0
System init for write_data ...
PPPM Kokkos initialization ...
  using 12-bit tables for long-range coulomb
  G vector (1/distance) = 0.34316179
  grid = 45 45 45
  stencil order = 5
  estimated absolute RMS force accuracy = 0.00024931228
  estimated relative force accuracy = 7.5079654e-07
  using double precision cuFFT
  3d grid and FFT values/proc = 140608 91125
Generated 21 of 21 mixed pair_coeff terms from sixthpower/sixthpower mixing rule
STAGE COMPLETE: NPT T=300.0->300.0K P=1.0->1.0atm steps=2000000
