LAMMPS data file via write_data, version 22 Jul 2025, timestep = 2000000, units = real

4520 atoms
7 atom types
4510 bonds
10 bond types
8000 angles
18 angle types
9970 dihedrals
23 dihedral types
4500 impropers
11 improper types

4.5648927166616176 41.068230713341976 xlo xhi
4.5648927166616176 41.068230713341976 ylo yhi
4.5648927166616176 41.068230713341976 zlo zhi

Masses

1 12.01115
2 12.01115
3 12.01115
4 1.00797
5 1.008
6 15.9994
7 15.9994

Pair Coeffs # lj/class2/coul/long/kk

1 0.054 4.01
2 0.054 4.01
3 0.12 3.81
4 0.02 2.995
5 0.013 1.11
6 0.267 3.3
7 0.24 3.42

Bond Coeffs # class2/kk

1 1.53 299.67 -501.77 679.81
2 1.53 299.67 -501.77 679.81
3 1.5202 253.707 -423.037 396.9
4 1.101 345 -691.89 844.6
5 1.5202 253.707 -423.037 396.9
6 1.101 345 -691.89 844.6
7 1.43 326.727 -608.531 689.033
8 1.202 851.14 -1918.49 2160.77
9 1.3683 367.148 -794.791 1055.23
10 0.952 534.299 -1287.19 1889.14

Angle Coeffs # class2/kk

1 108.53 51.9747 -9.4851 -10.9985
2 110.77 41.453 -10.604 5.129
3 108.53 51.9747 -9.4851 -10.9985
4 110.77 41.453 -10.604 5.129
5 107.41 63.3907 -13.4513 1.665
6 123.145 55.5431 -17.2123 0.1348
7 100.318 38.8631 -3.8323 -7.9802
8 110.77 41.453 -10.604 5.129
9 123.145 55.5431 -17.2123 0.1348
10 100.318 38.8631 -3.8323 -7.9802
11 113.288 61.2868 -28.9786 7.9929
12 107.734 40.6099 -28.8121 0
13 107.734 40.6099 -28.8121 0
14 109.5 60 0 0
15 112.874 53.2512 -14.9979 2.464
16 107.66 39.641 -12.921 -2.4318
17 107.688 65.4801 -10.3498 5.8866
18 120.797 95.3446 -32.2869 6.3778

BondBond Coeffs

1 5.4199 1.53 1.5202
2 3.3872 1.53 1.101
3 5.4199 1.53 1.5202
4 3.3872 1.53 1.101
5 23.2647 1.53 1.43
6 46.0685 1.5202 1.202
7 19.1069 1.5202 1.3683
8 3.3872 1.53 1.101
9 46.0685 1.5202 1.202
10 19.1069 1.5202 1.3683
11 45.4503 1.43 1.3683
12 0.7115 1.5202 1.101
13 0.7115 1.5202 1.101
14 0 1.5202 1.43
15 9.5671 1.3683 0.952
16 5.3316 1.101 1.101
17 5.6454 1.101 1.43
18 121.488 1.202 1.3683

BondAngle Coeffs

1 18.1678 15.8758 1.53 1.5202
2 20.754 11.421 1.53 1.101
3 18.1678 15.8758 1.53 1.5202
4 20.754 11.421 1.53 1.101
5 23.392 47.9487 1.53 1.43
6 34.9982 37.1298 1.5202 1.202
7 1.3435 4.6978 1.5202 1.3683
8 20.754 11.421 1.53 1.101
9 34.9982 37.1298 1.5202 1.202
10 1.3435 4.6978 1.5202 1.3683
11 41.9116 46.4608 1.43 1.3683
12 12.4632 9.1765 1.5202 1.101
13 12.4632 9.1765 1.5202 1.101
14 0 0 1.5202 1.43
15 37.9163 21.4364 1.3683 0.952
16 18.103 18.103 1.101 1.101
17 8.6864 57.4975 1.101 1.43
18 76.2614 71.8761 1.202 1.3683

Dihedral Coeffs # class2/kk

1 0.0442 0 0.0292 0 0.0562 0
2 1.8341 0 2.0603 0 -0.0195 0
3 0.0442 0 0.0292 0 0.0562 0
4 1.8341 0 2.0603 0 -0.0195 0
5 0 0 0 0 -0.1932 0
6 -2.5594 0 2.2013 0 0.0325 0
7 -2.5594 0 2.2013 0 0.0325 0
8 -2.9126 0 1.0199 0 -0.2077 0
9 0 0 2.2089 0 0 0
10 -0.0228 0 0.028 0 -0.1863 0
11 -0.0228 0 0.028 0 -0.1863 0
12 0 0 0 0 -0.1932 0
13 0 0 0 0 -0.1932 0
14 -0.1432 0 0.0617 0 -0.1083 0
15 -0.1432 0 0.0617 0 -0.1083 0
16 0 0 0 0 -0.25 0
17 -0.1804 0 0.0012 0 0.0371 0
18 -0.6359 0 1.4807 0 -0.0438 0
19 -0.1804 0 0.0012 0 0.0371 0
20 -0.6359 0 1.4807 0 -0.0438 0
21 0 0 2.2089 0 0 0
22 0 180 0 0 0 0
23 0 180 0 0 0 0

AngleAngleTorsion Coeffs

1 -8.019 108.53 123.145
2 0 108.53 100.318
3 -8.019 108.53 123.145
4 0 108.53 100.318
5 0 107.41 113.288
6 0 100.318 113.288
7 0 100.318 113.288
8 0 100.318 112.874
9 0 113.288 120.797
10 -5.3624 108.53 110.77
11 -5.3624 108.53 110.77
12 0 109.5 113.288
13 0 113.288 107.688
14 -12.564 110.77 110.77
15 -12.564 110.77 110.77
16 0 110.77 107.41
17 -15.3496 107.734 123.145
18 0 107.734 100.318
19 -15.3496 107.734 123.145
20 0 107.734 100.318
21 0 112.874 120.797
22 0 123.145 109.5
23 0 109.5 100.318

EndBondTorsion Coeffs

1 0.2654 0.0503 0.1046 -0.281 0.0816 -0.1522 1.53 1.202
2 0 0 0 0 0 0 1.53 1.3683
3 0.2654 0.0503 0.1046 -0.281 0.0816 -0.1522 1.53 1.202
4 0 0 0 0 0 0 1.53 1.3683
5 0 0 0 0 0 0 1.53 1.3683
6 0 0 0 0 0 0 1.5202 1.43
7 0 0 0 0 0 0 1.5202 1.43
8 0 0 0 0 0 0 1.5202 0.952
9 0 0 0 0 0 0 1.43 1.202
10 -0.0204 0.3628 -0.4426 -0.0097 -0.0315 -0.0755 1.5202 1.101
11 -0.0204 0.3628 -0.4426 -0.0097 -0.0315 -0.0755 1.5202 1.101
12 0 0 0 0 0 0 1.5202 1.3683
13 0 0 0 0 0 0 1.3683 1.101
14 0.213 0.312 0.0777 0.213 0.312 0.0777 1.101 1.101
15 0.213 0.312 0.0777 0.213 0.312 0.0777 1.101 1.101
16 0 0 0 0 0 0 1.101 1.43
17 1.2143 0.2831 0.3916 -0.2298 0.0354 0.3853 1.101 1.202
18 0 0 0 0 0 0 1.101 1.3683
19 1.2143 0.2831 0.3916 -0.2298 0.0354 0.3853 1.101 1.202
20 0 0 0 0 0 0 1.101 1.3683
21 0 0 0 0 0 0 0.952 1.202
22 0 0 0 0 0 0 1.202 1.43
23 0 0 0 0 0 0 1.43 1.3683

MiddleBondTorsion Coeffs

1 0.3388 -0.1096 0.1219 1.5202
2 -17.328 -5.79 -3.2114 1.5202
3 0.3388 -0.1096 0.1219 1.5202
4 -17.328 -5.79 -3.2114 1.5202
5 -5.435 0 0 1.43
6 1.3445 3.5515 -4.9202 1.3683
7 1.3445 3.5515 -4.9202 1.3683
8 2.1452 0.5482 -2.3693 1.3683
9 4.26 0 0 1.3683
10 -3.5039 1.2458 -0.761 1.53
11 -3.5039 1.2458 -0.761 1.53
12 0 0 0 1.43
13 0 0 0 1.43
14 -14.261 -0.5322 -0.4864 1.53
15 -14.261 -0.5322 -0.4864 1.53
16 0 0 0 1.53
17 0.2359 0.9139 0.9594 1.5202
18 -13.7686 -2.5959 1.1934 1.5202
19 0.2359 0.9139 0.9594 1.5202
20 -13.7686 -2.5959 1.1934 1.5202
21 4.26 0 0 1.3683
22 0 0 0 1.5202
23 0 0 0 1.5202

BondBond13 Coeffs

1 0 1.53 1.202
2 0 1.53 1.3683
3 0 1.53 1.202
4 0 1.53 1.3683
5 0 1.53 1.3683
6 0 1.5202 1.43
7 0 1.5202 1.43
8 0 1.5202 0.952
9 0 1.43 1.202
10 0 1.5202 1.101
11 0 1.5202 1.101
12 0 1.5202 1.3683
13 0 1.3683 1.101
14 0 1.101 1.101
15 0 1.101 1.101
16 0 1.101 1.43
17 0 1.101 1.202
18 0 1.101 1.3683
19 0 1.101 1.202
20 0 1.101 1.3683
21 0 0.952 1.202
22 0 1.202 1.43
23 0 1.43 1.3683

AngleTorsion Coeffs

1 0.0885 -1.3703 -0.5452 0.675 0.5965 0.6725 108.53 123.145
2 0 0 0 0 0 0 108.53 100.318
3 0.0885 -1.3703 -0.5452 0.675 0.5965 0.6725 108.53 123.145
4 0 0 0 0 0 0 108.53 100.318
5 0 0 0 0 0 0 107.41 113.288
6 0 0 0 0 0 0 100.318 113.288
7 0 0 0 0 0 0 100.318 113.288
8 0 0 0 0 0 0 100.318 112.874
9 0 0 0 0 0 0 113.288 120.797
10 -0.7466 -0.9448 -0.6321 0.0162 1.4211 -1.4092 108.53 110.77
11 -0.7466 -0.9448 -0.6321 0.0162 1.4211 -1.4092 108.53 110.77
12 0 0 0 0 0 0 109.5 113.288
13 0 0 0 0 0 0 113.288 107.688
14 -0.8085 0.5569 -0.2466 -0.8085 0.5569 -0.2466 110.77 110.77
15 -0.8085 0.5569 -0.2466 -0.8085 0.5569 -0.2466 110.77 110.77
16 0 0 0 0 0 0 110.77 107.41
17 9.1299 -0.4847 0.3582 -1.4946 0.7308 -0.2083 107.734 123.145
18 0 0 0 0 0 0 107.734 100.318
19 9.1299 -0.4847 0.3582 -1.4946 0.7308 -0.2083 107.734 123.145
20 0 0 0 0 0 0 107.734 100.318
21 0 0 0 0 0 0 112.874 120.797
22 0 0 0 0 0 0 123.145 109.5
23 0 0 0 0 0 0 109.5 100.318

Improper Coeffs # class2/kk

1 0 0
2 0 0
3 0 0
4 0 0
5 0 0
6 0 0
7 0 0
8 0 0
9 0 0
10 46.9264 0
11 46.9264 0

AngleAngle Coeffs

1 1.0827 -1.8202 2.0403 110.77 108.53 107.734
2 0.2738 -0.4825 0.2738 110.77 110.77 107.66
3 0.2738 -0.4825 0.2738 110.77 110.77 107.66
4 -3.3867 -3.4976 -3.3867 107.734 107.734 107.66
5 -0.3157 -0.3157 -0.3157 107.66 107.66 107.66
6 1.0827 -1.8202 2.0403 110.77 108.53 107.734
7 0 0 0 110.77 107.41 107.688
8 0 0 0 107.41 108.53 109.5
9 0 0 0 107.734 109.5 107.688
10 0 0 0 100.318 123.145 120.797
11 0 0 0 100.318 123.145 120.797

Atoms # full/kk

1108 3 4 0.053 8.767276003817823 10.03097001792561 8.690758635430928 0 0 1
1106 3 4 0.053 7.3281058937731665 9.974087058501258 9.688845620532339 0 0 1
1105 3 1 -0.159 8.144549512050052 9.385534677918274 9.254321605344808 0 0 1
1107 3 4 0.053 7.690346792370679 8.604261693863965 8.556868629472897 0 0 1
1486 4 4 0.053 9.3685528212673 7.11035186519703 6.7677080700819925 0 0 0
1081 3 4 0.053 8.275345419343239 10.988062206384786 5.19699678792501 0 0 1
1103 3 2 0.172 9.106966152189099 8.777610963527849 10.33571682705626 0 0 1
1485 4 1 -0.159 9.96148923537674 7.862615610866265 6.146803400051671 0 0 0
1481 4 6 -0.531 7.805145600567961 5.744975016200064 5.386835973392932 0 0 0
1070 3 4 0.053 5.027672814556065 8.708515239870366 5.73676427178727 0 0 1
1114 3 1 -0.159 6.322937593556864 5.3297982645530695 10.499406137571295 0 0 1
1104 3 4 0.053 10.027791785002918 8.403000780374931 9.979791726450225 0 0 1
1079 3 4 0.053 7.712214945237184 10.387395589659443 6.756886152045046 0 0 1
1116 3 4 0.053 6.258525369985886 5.64869272844068 9.489015910499848 0 0 1
1488 4 4 0.053 9.835365549932853 8.826190222087742 6.711253920118985 0 0 0
1117 3 4 0.053 7.342727265518379 4.899629824387875 10.641413735601857 0 0 1
1101 3 6 -0.531 10.928553830537039 10.867349035528886 9.983780890907708 0 0 1
1487 4 4 0.053 10.966227978059882 7.545395712842982 6.205725321374684 0 0 0
413 1 6 -0.531 15.67759512967297 5.918249799046988 7.651826819215461 1 0 1
430 1 3 0.702 12.77526104353905 10.39229065568965 7.284853695762815 1 0 1
1448 4 4 0.053 14.030749774071692 6.008726434075531 9.718254355327838 0 0 0
431 1 6 -0.531 11.65993046828704 10.617419239217352 6.792460917400523 1 0 1
419 1 4 0.053 13.410123014575204 5.219067493596498 6.128699302904908 1 0 1
427 1 4 0.053 15.257181630600037 9.532424359389122 8.779851908266835 1 0 1
428 1 4 0.053 13.782293961920814 9.381593447171731 9.851179621801709 1 0 1
426 1 1 -0.159 14.279274110650352 9.051911249585924 8.968258502668188 1 0 1
423 1 7 -0.396 13.642937832506416 7.927292187387119 6.894883398009249 1 0 1
1447 4 2 0.172 13.754820937383888 5.186053564356112 10.332276797423471 0 0 0
429 1 4 0.053 14.633389433609418 8.016409109365137 9.16886403859167 1 0 1
424 1 2 0.172 13.226395157291957 8.91909629569773 7.886290430301064 1 0 1
421 1 3 0.702 14.616955303176221 8.118460003079308 6.027015764246584 1 0 1
418 1 4 0.053 12.684074798934201 6.428466403798713 5.013376154393816 1 0 1
415 1 2 0.172 14.834384123741376 6.699810663589684 5.156328831514316 1 0 1
422 1 6 -0.531 15.231488748431504 9.131398566131697 5.800641448443872 1 0 1
425 1 4 0.053 12.215738066411827 8.535454720270927 8.392530178023137 1 0 1
417 1 1 -0.159 13.56233287690114 5.794077794599182 5.150387898618002 1 0 1
414 1 7 -0.396 16.020289513434346 5.8765291547932375 5.424556532798844 1 0 1
412 1 3 0.702 16.3416421518386 5.652281379429033 6.6937510878171125 1 0 1
1451 4 4 0.053 15.742817862295933 4.997953414570224 11.004609030146627 0 0 0
3164 7 5 0.423 16.981457598384036 9.663793574053555 5.178816908831138 0 0 1
3002 7 4 0.053 19.87964719135806 10.096147606799043 6.225807834136614 0 0 1
3076 7 4 0.053 22.14901781895187 5.0563528706813425 5.435077245162041 0 0 1
407 1 4 0.053 18.378810422499527 5.390163087497521 7.477171563634071 1 0 1
3061 7 3 0.702 20.862708911901954 40.85630824967839 9.391550539943601 0 -1 1
408 1 1 -0.159 18.522102566543403 4.758800001054466 5.4360591804602825 1 0 1
3001 7 2 0.172 19.983887806802876 9.77789063122194 7.289781856634459 0 0 1
410 1 4 0.053 18.62891524384684 5.718499063512613 4.926715179026858 1 0 1
3007 7 3 0.702 21.50436975881575 9.700976832761391 7.353036207315045 0 0 1
3004 7 4 0.053 19.170187046232662 8.498585423576113 8.966144480960828 0 0 1
3003 7 1 -0.159 19.147426953899192 8.621052899172264 7.879257059950239 0 0 1
406 1 2 0.172 17.77019199082773 4.798177586738161 6.75260330877584 1 0 1
3005 7 4 0.053 18.17054153308787 8.62585928089101 7.504048925461361 0 0 1
3006 7 4 0.053 19.5752738465905 7.6605911095614285 7.596275624883147 0 0 1
3009 7 7 -0.396 21.68616140168598 9.240874862578167 8.587879434882257 0 0 1
3062 7 6 -0.531 20.998378819248522 5.058025462811269 8.388334647532446 0 0 1
3008 7 6 -0.531 22.483745207610003 9.992697803270367 6.673431938724489 0 0 1
3077 7 4 0.053 23.180611375098724 6.357423090415421 6.127564984209776 0 0 1
3056 7 4 0.053 19.001078230314853 5.266979336465339 9.735512283564011 0 0 1
411 1 4 0.053 19.50820020161431 40.75756094227864 5.618030220276557 1 -1 1
409 1 4 0.053 17.987761669397997 40.60813710370831 4.666467887079231 1 -1 1
3162 7 7 -0.594 17.79590971042782 9.336342308770366 4.818587162227332 0 0 1
3075 7 1 -0.159 23.237427379325933 5.581064102203524 5.393369222447899 0 0 1
3073 7 2 0.172 24.3125261170582 4.603310662720521 5.851360968951262 0 0 1
3072 7 7 -0.396 24.107889843166216 40.739346891730534 7.263723531762772 0 -1 1
3078 7 4 0.053 23.361300766485076 5.89160200072989 40.87798779349979 0 0 0
3803 9 3 0.702 25.659243445410763 9.570710115909193 40.92182039217664 0 1 0
2645 6 3 0.702 27.623520067455342 5.392707208397104 8.696063230339071 0 2 1
3013 7 4 0.053 23.990081408179496 8.099718345798545 7.400472208555049 0 0 1
3023 7 4 0.053 27.683975751605338 9.761956301993997 9.427462359361378 0 0 1
3011 7 4 0.053 22.8370913721608 8.42973559053064 10.217832044602828 0 0 1
2652 6 4 0.053 27.943657823621113 6.858246087992936 5.397167547972655 0 2 1
3010 7 2 0.172 22.945929249531314 8.94932575885278 9.177540122322025 0 0 1
2640 6 4 0.053 26.48793769946597 5.149993529939746 10.387311139565737 0 2 1
3804 9 6 -0.531 26.718102894655544 9.351409674478695 4.872765788539968 0 1 1
2641 6 1 -0.159 27.19097147016981 7.230916132325233 10.480178368112389 0 2 1
3014 7 4 0.053 23.149494370659824 6.912225735960501 8.432841231212837 0 0 1
3018 7 7 -0.396 25.074209664298333 10.294158075547994 9.05208839059151 0 0 1
3016 7 3 0.702 23.765661280401304 10.184738885535127 9.586380136262052 0 0 1
3074 7 4 0.053 25.245595260337527 5.173122359207734 5.910497411004853 0 0 1
3015 7 4 0.053 24.611107195098842 7.723787452981723 9.038485134482636 0 0 1
2639 6 2 0.172 27.46896468119462 5.746182002488914 10.24305183888719 0 2 1
3012 7 1 -0.159 23.718707966192454 7.871680054248793 8.424606114929455 0 0 1
2647 6 7 -0.396 28.2388562850975 6.471910170110421 8.061647424372284 0 2 1
2643 6 4 0.053 26.3378915683985 7.5123133888903215 9.846519854371897 0 2 1
3067 7 4 0.053 23.78360104133408 5.161106613029909 9.765246171879149 0 0 1
2650 6 1 -0.159 28.436245224699242 5.948095254647574 5.695751870479445 0 2 1
2642 6 4 0.053 28.081336401934553 7.912868423689642 10.31992838304553 0 2 1
1141 3 1 -0.159 34.19672256249224 8.633189713653909 41.02726346851943 -1 0 0
1144 3 4 0.053 33.75390921018818 7.634434852451289 40.89892687847145 -1 0 0
1225 3 4 0.053 28.664222014061266 10.084975908737473 6.391921378727685 -1 0 1
2648 6 2 0.172 29.178768410018304 6.195378167273159 7.0040106839337515 0 2 1
2655 6 6 -0.531 30.82658256912851 4.875364783730277 8.443275609487284 0 2 1
1223 3 4 0.053 29.775401148770474 8.922011712016875 5.475441198648994 -1 0 1
2671 6 4 0.053 33.49583614221774 5.044725515053661 9.529548426816806 0 2 1
1220 3 2 0.172 31.038801679071177 10.446843220107096 6.312911633335513 -1 0 1
1222 3 1 -0.159 29.65089393814351 10.028735585815806 5.838098115523662 -1 0 1
1221 3 4 0.053 31.7482050488159 10.461737402519788 5.416667966769733 -1 0 1
2649 6 4 0.053 29.81585960898362 7.086709025354432 7.013856184134357 0 2 1
1217 3 3 0.702 31.131451949760837 9.43259064387705 8.4689510398027 -1 0 1
1210 3 7 -0.396 33.21962314421542 9.430145698696641 9.952342068240176 -1 0 1
1219 3 7 -0.396 31.492943482240435 9.414965720400257 7.148421223574597 -1 0 1
1218 3 6 -0.531 30.246732655612103 10.098190352575164 8.877757844250754 -1 0 1
1212 3 4 0.053 32.744191507497845 7.80414534370567 8.647732941173635 -1 0 1
1211 3 2 0.172 32.18109771424769 8.580236369682805 9.330536485330322 -1 0 1
1140 3 4 0.053 34.12249103775491 8.992193666912542 6.7163820026545284 -1 0 1
1214 3 4 0.053 30.671447462631942 7.194127491719204 10.086666332759554 -1 0 1
1208 3 3 0.702 34.472483874819304 8.868258706821635 10.091646818778768 -1 0 1
1137 3 6 -0.531 34.71667889981918 6.554192885355993 6.876006268799511 -1 0 1
1213 3 1 -0.159 31.48899142773216 7.839324176670358 10.449704105721814 -1 0 1
1139 3 2 0.172 34.833100050663234 9.05791689769234 5.849734253228211 -1 0 1
1069 3 1 -0.159 40.937051275874126 9.304214111610609 4.981768687648564 -1 0 1
1128 3 6 -0.531 37.8693954591913 5.433247555887682 9.94012450399051 -1 0 1
1126 3 4 0.053 39.836226572931906 9.101045006132487 9.030030096842347 -1 0 1
1135 3 4 0.053 38.050547740418644 5.9262991600489405 5.451164018160211 -1 0 1
1136 3 3 0.702 35.77825743669099 7.1039751718662245 6.788994649286608 -1 0 1
1202 3 2 0.172 35.69645350176708 9.91745143152442 10.30269118249487 -1 0 1
1068 3 4 0.053 39.437574431830214 10.166394812689013 6.346642906993848 -1 0 1
1129 3 7 -0.396 37.61243449453548 7.172471368405656 8.480143780237718 -1 0 1
1123 3 1 -0.159 39.33805370003267 8.987894785169132 9.97968233233669 -1 0 1
1209 3 6 -0.531 34.656170432683524 7.6994776650984775 9.894211708032438 -1 0 1
1067 3 2 0.172 40.2035407058181 10.484462849414363 5.606952904167735 -1 0 1
1138 3 7 -0.396 36.00062843529437 8.254748245646663 6.134806009732754 -1 0 1
1127 3 3 0.702 38.159524684845735 6.5246534090392085 9.54521876717455 -1 0 1
1125 3 4 0.053 39.95994953483633 9.538224964477374 10.676860718051227 -1 0 1
1130 3 2 0.172 37.100424260794476 6.455919232373217 7.300364900014869 -1 0 1
1131 3 4 0.053 36.75870935657333 5.451840599398698 7.6190200324336 -1 0 1
1120 3 7 -0.396 40.53545154504589 6.900499757654837 10.436975359465917 -1 0 1
2670 6 4 0.053 35.10111612269037 4.708266145485396 9.65499208844757 0 2 1
1203 3 4 0.053 36.43006389543772 9.633211381081171 9.581048300415429 -1 0 1
1132 3 1 -0.159 38.2957725028791 6.50833565003693 6.307815968790595 -1 0 1
1121 3 2 0.172 39.20184953247967 7.529114447676558 10.415083520773686 -1 0 1
1133 3 4 0.053 38.60375979011291 7.55825467096163 6.023519017396371 -1 0 1
1124 3 4 0.053 38.378769802315695 9.555341874178165 9.884580147239982 -1 0 1
1134 3 4 0.053 39.17284368372734 6.04558243071884 6.751066514928524 -1 0 1
2019 5 4 0.053 8.74727208640126 16.741819168221262 7.123549088724063 0 0 1
2053 5 4 0.053 9.88964349532603 17.049982919288894 9.462791585001954 0 0 1
2015 5 7 -0.396 6.84448067034597 16.493373064093873 5.0376333275049445 0 0 1
1091 3 3 0.702 8.83815662248925 13.59576808021538 10.268702357932536 0 0 1
1083 3 6 -0.531 6.315186631736572 14.440271837749979 7.154597754937602 0 0 1
1078 3 1 -0.159 8.078719901018836 11.252159215315997 6.166364233502372 0 0 1
1082 3 3 0.702 6.86010810006953 13.384201283250409 7.282657057211969 0 0 1
1080 3 4 0.053 8.968943068038193 11.501385953972218 6.794161201895528 0 0 1
443 1 4 0.053 9.465288875004234 14.404301747123805 5.51332921234178 1 0 1
1087 3 1 -0.159 6.248203725774357 13.729339032785463 10.306291020883094 0 0 1
1085 3 2 0.172 7.531097217306312 13.90233323173692 9.496529926053823 0 0 1
1075 3 7 -0.396 5.7507603447820745 11.781497549154805 5.628644697621708 0 0 1
1088 3 4 0.053 5.324531025277859 13.886860488852085 9.688045923482584 0 0 1
442 1 2 0.172 10.447827484405613 14.232265252749963 4.996815660642066 1 0 1
1077 3 4 0.053 7.190293259768506 13.201756486204935 5.2592861984650705 0 0 1
1076 3 2 0.172 7.053934489033102 12.438896808355041 6.0380017949331135 0 0 1
1092 3 6 -0.531 9.890584321343791 14.004806144107407 9.874820514302403 0 0 1
1086 3 4 0.053 7.654433834114256 14.933801909977667 9.17357057169772 0 0 1
1084 3 7 -0.396 7.510902322496027 12.985291654037104 8.390075352395328 0 0 1
1089 3 4 0.053 6.170858027513265 12.71266073983126 10.75865612321798 0 0 1
1073 3 3 0.702 4.736722127670394 11.312812994449532 6.37981420120511 0 0 1
1074 3 6 -0.531 4.695543835882829 11.452990116219752 7.569718495657168 0 0 1
1173 3 6 -0.531 40.42826194137932 16.353582911259704 9.3988843371079 -1 0 1
2057 5 4 0.053 11.882437657977373 17.153451099223226 11.183701907088537 0 0 1
441 1 7 -0.396 11.204332884563843 13.51820382624909 5.997315516803226 1 0 1
446 1 4 0.053 11.43816571053923 16.176713975634236 5.4180484365345345 1 0 1
2986 7 4 0.053 14.39084830803427 11.373554894291626 10.551981395595678 0 0 1
2491 6 4 0.053 15.495532845344176 14.606576502144934 8.97140523353144 0 1 1
436 1 4 0.053 11.571679599559463 12.747897050463362 8.641619559639183 1 0 1
437 1 4 0.053 13.065852832549492 13.543725300096732 9.390311229440881 1 0 1
2488 6 1 -0.159 15.619509431322717 15.488569812042304 8.29523472776928 0 1 1
2489 6 4 0.053 14.931060912658358 15.301224388136253 7.556727344671966 0 1 1
438 1 4 0.053 12.16303073336016 14.412365347752308 8.149817471647095 1 0 1
432 1 7 -0.396 13.692680841128295 11.372004987780468 7.536437002203086 1 0 1
435 1 1 -0.159 12.488420023060556 13.39166723448149 8.412718200300024 1 0 1
1558 4 4 0.053 17.171504029408773 16.6579016488461 5.532547356149434 0 0 0
2490 6 4 0.053 16.652421959055168 15.294300810477013 7.893947538337807 0 1 1
439 1 3 0.702 12.441971931059292 13.014178382918281 5.758871560226672 1 0 1
433 1 2 0.172 13.212056348295416 12.74126385755711 7.245554846761319 1 0 1
434 1 4 0.053 14.169946923769427 13.312066412931996 7.007859440744036 1 0 1
1553 4 6 -0.531 16.151607811767782 13.90791933550277 5.825887865784931 0 0 0
1552 4 3 0.702 16.735145974995213 13.64180493120932 4.843286972563057 0 0 0
2989 7 3 0.702 16.657499623551168 13.413221847860509 10.82818846361413 0 0 1
440 1 6 -0.531 12.958787532567692 12.970731906656429 4.658626542200531 1 0 1
444 1 1 -0.159 11.192623732866075 15.56327717051985 4.584453009127234 1 0 1
2990 7 6 -0.531 17.15029467842289 14.515228570291596 10.858752264799948 0 0 1
2497 6 1 -0.159 20.083268493032527 16.475894546318344 9.327012287745852 0 1 1
1557 4 1 -0.159 18.1628869765212 16.44757426383425 5.216032336455843 0 0 0
2991 7 7 -0.396 17.09306224953933 12.43791989675421 10.007472378205632 0 0 1
3000 7 7 -0.396 19.62445688485937 10.97456304281495 8.037593214985057 0 0 1
2993 7 4 0.053 18.087153225036737 13.57935872351067 8.6253318652674 0 0 1
2994 7 1 -0.159 19.45990183860158 12.750195649298043 10.131190874008912 0 0 1
2500 6 4 0.053 20.29779222818498 16.108515070608448 8.3274685349286 0 1 1
2999 7 6 -0.531 17.59236476490651 11.276229479441898 7.190659127071351 0 0 1
2992 7 2 0.172 18.253554965529073 12.659297633757978 9.177684283673804 0 0 1
2998 7 3 0.702 18.434619565828783 11.554987930900559 7.980615811432452 0 0 1
1556 4 4 0.053 18.387576354773927 14.602193983479646 6.6462970163199895 0 0 0
1555 4 2 0.172 18.570797677905997 14.964654773418616 5.634999295953912 0 0 0
1562 4 6 -0.531 20.687019532089717 14.128700850975148 6.555794988392777 0 0 0
1561 4 3 0.702 20.11457126321318 14.743666832095828 5.702109863854619 0 0 0
2995 7 4 0.053 20.441596810572737 12.819484498312454 9.576532429414256 0 0 1
1563 4 7 -0.396 20.75506428467977 15.498578143748055 4.746484379782242 0 0 0
1554 4 7 -0.396 18.030090491361662 14.100048909049223 4.63904053104181 0 0 0
1567 4 4 0.053 22.80274259594117 15.36200631426269 6.528684886166764 0 0 0
1565 4 4 0.053 22.329113296290874 14.250439582380245 40.8565540459215 0 0 -1
1566 4 1 -0.159 22.88391718535987 16.007521909648744 5.668964150662249 0 0 0
1564 4 2 0.172 22.142522708668114 15.367796616780673 40.98962357977283 0 0 -1
2997 7 4 0.053 19.579971742218973 11.925930749200369 10.808101145894474 0 0 1
2499 6 4 0.053 19.78764252150753 15.715036383267499 10.007380457378792 0 1 1
2898 7 4 0.053 22.45470839629454 14.856063664451275 10.21655698037945 0 0 1
3812 9 3 0.702 26.561291417092292 12.684229400191882 4.605212924907368 0 1 1
3881 9 4 0.053 26.723528099831352 16.52744746087321 8.040145188479842 0 1 1
3017 7 6 -0.531 23.353246896754065 11.037139213635058 10.321314575423907 0 0 1
3809 9 4 0.053 23.826442934868926 12.06710072948069 6.631137010377257 0 1 1
2897 7 4 0.053 23.308517324778954 13.257944817123505 10.118916541972247 0 0 1
3022 7 4 0.053 27.67188891303072 11.125273123246755 8.304299975610258 0 0 1
1569 4 4 0.053 23.948770604830365 16.314949711593883 5.61088391962369 0 0 0
3024 7 4 0.053 28.26762268811331 11.3310028983283 9.950056718436027 0 0 1
3021 7 1 -0.159 27.488096202383183 10.838437621949922 9.327957466025934 0 0 1
2896 7 4 0.053 24.116343292015472 14.780441335585433 9.725465837902009 0 0 1
3819 9 4 0.053 27.833409141360093 15.443874222164078 4.826772787166716 0 1 1
3805 9 7 -0.396 25.067533407877857 10.719517268839104 41.02716198129573 0 1 0
3019 7 2 0.172 26.05116274420821 11.153412300824584 9.771169715817068 0 0 1
3810 9 4 0.053 24.67091183588417 13.481854598691992 6.369524213975173 0 1 1
3808 9 1 -0.159 24.381681613302298 12.569640565526633 5.8820740524593855 0 1 1
3806 9 2 0.172 25.562929221743012 11.78824810141919 5.395893286643913 0 1 1
3807 9 4 0.053 26.12206704471035 11.385713553132366 6.1808216786727215 0 1 1
3020 7 4 0.053 25.749561072896103 12.184499800397699 9.503591515118536 0 0 1
3813 9 6 -0.531 27.743185892651795 12.585043280976981 4.822200631854122 0 1 1
1232 3 4 0.053 28.444092088481277 13.848042518805087 8.873632002609853 -1 0 1
3811 9 4 0.053 23.671825722709816 12.77200721013496 5.0556954602698285 0 1 1
1234 3 4 0.053 28.359443373877077 15.13059301944373 7.599583985119589 -1 0 1
1233 3 4 0.053 29.245268910223267 15.36080756704657 8.978983181940974 -1 0 1
1231 3 1 -0.159 29.06588331188144 14.536516428082997 8.29800167972279 -1 0 1
2895 7 1 -0.159 23.44207488957756 14.350127847772237 10.466593775352514 0 0 1
3901 9 4 0.053 27.714006353302544 13.850902638408124 11.523422396893116 0 1 1
1148 3 2 0.172 34.753486986520294 12.778765639868524 4.708943290913004 -1 0 1
1224 3 4 0.053 29.417628903480498 10.698143201737858 4.9544434947946705 -1 0 1
1243 3 4 0.053 33.59912248033429 16.270346556965066 6.436196008963124 -1 0 1
1237 3 7 -0.396 31.003397351523244 16.266096656008564 7.108569243048265 -1 0 1
1149 3 4 0.053 33.76929196976769 12.80138920535049 5.275588744082818 -1 0 1
1229 3 2 0.172 30.356515779074844 13.922205601038053 7.6706973586073515 -1 0 1
1230 3 4 0.053 30.942718489675645 13.890924753547333 8.622894465907013 -1 0 1
1236 3 6 -0.531 31.415795964849917 14.638874528118079 5.531463903852116 -1 0 1
1235 3 3 0.702 30.988669198888573 15.046773333355132 6.5553074062598 -1 0 1
1226 3 3 0.702 31.365471566541164 11.85925410616555 6.995803598089357 -1 0 1
1228 3 7 -0.396 30.23305502040764 12.537117803240712 7.202371918829274 -1 0 1
3900 9 4 0.053 29.366383119278957 13.236348245719064 11.027626968156275 0 1 1
1227 3 6 -0.531 32.481464210604415 12.239278911054633 7.206571984345583 -1 0 1
1206 3 4 0.053 34.82323494500554 11.629040322408574 9.11629447738292 -1 0 1
1207 3 4 0.053 34.791560354232274 11.875213834553126 10.84669721344263 -1 0 1
1163 3 3 0.702 38.62370349990385 14.758458319040766 5.986582431531807 -1 0 1
1170 3 4 0.053 38.36079375415107 12.594631947659948 7.736888748006675 -1 0 1
1146 3 6 -0.531 35.604182631697256 11.28480981208736 6.781574502405037 -1 0 1
1145 3 3 0.702 35.24228046520843 10.67808686494634 5.787656979312673 -1 0 1
1204 3 1 -0.159 35.33207047028562 11.339743904339059 10.028472091854264 -1 0 1
1295 3 4 0.053 35.674932303676954 14.50050634115644 10.556072907947595 -1 0 1
1147 3 7 -0.396 35.06746469682787 11.34772367926152 4.604337737580535 -1 0 1
1297 3 4 0.053 35.233442464453645 15.30649330694537 9.002996697904376 -1 0 1
1156 3 7 -0.396 36.43911312323928 14.603438442366452 41.044937544291315 -1 0 0
1157 3 2 0.172 37.48128573534281 15.525101840150906 4.997913285104353 -1 0 1
1205 3 4 0.053 36.2775505900572 11.928507267923845 10.021796255179279 -1 0 1
1294 3 1 -0.159 35.683271262515206 15.468502041383926 9.962937323811305 -1 0 1
1296 3 4 0.053 36.733693060746965 15.75236265723698 9.61668489826526 -1 0 1
1168 3 1 -0.159 38.67599248453518 13.069875761153526 8.618079306935853 -1 0 1
1169 3 4 0.053 39.31352740543231 12.439225554995193 9.261132142994864 -1 0 1
1155 3 6 -0.531 35.75060877294305 14.045643077957228 6.5841604843545385 -1 0 1
1165 3 7 -0.396 38.54433944112372 15.082736788416293 7.260292615889729 -1 0 1
1171 3 4 0.053 37.74544910718286 13.287046140127218 9.12270840697292 -1 0 1
1154 3 3 0.702 35.7479829109903 13.836005645031955 5.407454467642668 -1 0 1
1164 3 6 -0.531 39.42012153450693 13.981812381761896 5.545404025059687 -1 0 1
1172 3 3 0.702 39.757621239557764 15.337995671339119 9.473902468522324 -1 0 1
1167 3 4 0.053 40.290970570070996 14.083880823156434 7.736125043816545 -1 0 1
1166 3 2 0.172 39.36260741366636 14.381473388138224 8.214307095262061 -1 0 1
2023 5 6 -0.531 6.903505750872817 19.910791953344287 5.464212048358854 0 0 1
2041 5 6 -0.531 5.752979362498422 22.673341788536582 10.77018144880097 0 0 1
2465 6 3 0.702 10.074250070025897 22.033812254564786 5.346459638789894 0 1 1
2016 5 2 0.172 7.062410703799884 17.483037554662168 6.145213611850084 0 0 1
2045 5 1 -0.159 8.698855577822636 21.31038229246447 8.998690274531674 0 0 1
2046 5 4 0.053 8.622964055044688 22.37605169999883 8.797334394139307 0 0 1
2043 5 2 0.172 8.004770525181842 20.883496396159956 10.334053998535005 0 0 1
2052 5 2 0.172 9.879544667022053 17.703924887038717 10.335242757324783 0 0 1
2018 5 1 -0.159 8.568926540324403 17.555028825391208 6.495457014651822 0 0 1
2047 5 4 0.053 9.750632762589962 21.13146865353796 9.042331457958621 0 0 1
2021 5 4 0.053 8.740045957472063 18.43533704332704 7.205752408462172 0 0 1
2020 5 4 0.053 9.238600058617333 17.596571237541838 5.635548813858078 0 0 1
2048 5 4 0.053 8.327082060470664 20.765655609336328 8.147965975219151 0 0 1
2466 6 6 -0.531 10.093163954287624 20.82862670777379 5.602149356152883 0 1 1
2051 5 7 -0.396 9.176928242094775 18.907907159726815 9.996686687709483 0 0 1
2022 5 3 0.702 6.437181831506896 18.887337602386225 5.920916136529317 0 0 1
2024 5 7 -0.396 5.134183640515342 18.780146074402715 6.32100219814449 0 0 1
2017 5 4 0.053 6.602019005877556 17.036027754932086 7.074114736214012 0 0 1
2034 5 2 0.172 40.79831176931828 20.84775193168056 9.886590786278658 -1 0 1
2042 5 7 -0.396 6.632063734917864 20.704097462099003 10.11704836752494 0 0 1
2026 5 4 0.053 40.90680384952125 20.435576522980377 5.286237172594082 -1 0 1
2460 6 4 0.053 8.26049405471638 22.892806947068298 6.079451335155948 0 1 1
2031 5 3 0.702 40.751484143169684 20.896274540069566 7.383219048467968 -1 0 1
2040 5 3 0.702 5.628711226306501 21.581712113395994 10.216231335007892 0 0 1
2032 5 6 -0.531 40.81891846276072 22.09710210518033 7.465876003659456 -1 0 1
2025 5 2 0.172 40.679722401143344 19.921947651103864 6.215052133982227 -1 0 1
2467 6 7 -0.396 11.192659324015672 22.76905978952792 5.376784877330417 0 1 1
2472 6 4 0.053 11.409037796834218 21.319980614633774 7.760975872630829 0 1 1
2485 6 7 -0.396 14.977056018842523 17.804181173550013 7.806011510784054 0 1 1
2524 6 1 -0.159 15.97839731057433 21.233876846270952 7.633356091275659 0 1 1
2484 6 6 -0.531 12.921630418590574 17.09266576836601 8.19238043403388 0 1 1