LAMMPS data file via write_data, version 22 Jul 2025, timestep = 2000000, units = real

6420 atoms
4 atom types
6810 bonds
8 bond types
12000 angles
15 angle types
19110 dihedrals
24 dihedral types
5600 impropers
14 improper types

4.722200372298829 46.012484657692625 xlo xhi
4.722200372298829 46.012484657692625 ylo yhi
4.722200372298829 46.012484657692625 zlo zhi

Masses

1 12.01115
2 12.01115
3 12.01115
4 1.00797

Pair Coeffs # lj/class2/coul/long/kk

1 0.054 4.01
2 0.054 4.01
3 0.064 4.01
4 0.02 2.995

Bond Coeffs # class2/kk

1 1.53 299.67 -501.77 679.81
2 1.53 299.67 -501.77 679.81
3 1.501 321.902 -521.821 572.163
4 1.101 345 -691.89 844.6
5 1.501 321.902 -521.821 572.163
6 1.101 345 -691.89 844.6
7 1.417 470.836 -627.618 1327.63
8 1.0982 372.825 -803.453 894.317

Angle Coeffs # class2/kk

1 112.67 39.516 -7.443 -9.5583
2 108.4 43.9594 -8.3924 -9.3379
3 110.77 41.453 -10.604 5.129
4 112.67 39.516 -7.443 -9.5583
5 108.4 43.9594 -8.3924 -9.3379
6 110.77 41.453 -10.604 5.129
7 120.05 44.7148 -22.7352 0
8 112.67 39.516 -7.443 -9.5583
9 110.77 41.453 -10.604 5.129
10 120.05 44.7148 -22.7352 0
11 111 44.3234 -9.4454 0
12 111 44.3234 -9.4454 0
13 118.9 61.0226 -34.9931 0
14 117.94 35.1558 -12.4682 0
15 107.66 39.641 -12.921 -2.4318

BondBond Coeffs

1 0 1.53 1.53
2 0 1.53 1.501
3 3.3872 1.53 1.101
4 0 1.53 1.53
5 0 1.53 1.501
6 3.3872 1.53 1.101
7 12.0676 1.501 1.417
8 0 1.53 1.53
9 3.3872 1.53 1.101
10 12.0676 1.501 1.417
11 2.9168 1.501 1.101
12 2.9168 1.501 1.101
13 68.2856 1.417 1.417
14 1.0795 1.417 1.0982
15 5.3316 1.101 1.101

BondAngle Coeffs

1 8.016 8.016 1.53 1.53
2 0 0 1.53 1.501
3 20.754 11.421 1.53 1.101
4 8.016 8.016 1.53 1.53
5 0 0 1.53 1.501
6 20.754 11.421 1.53 1.101
7 47.0579 31.0771 1.501 1.417
8 8.016 8.016 1.53 1.53
9 20.754 11.421 1.53 1.101
10 47.0579 31.0771 1.501 1.417
11 26.4608 11.7717 1.501 1.101
12 26.4608 11.7717 1.501 1.101
13 28.8708 28.8708 1.417 1.417
14 20.0033 24.2183 1.417 1.0982
15 18.103 18.103 1.101 1.101

Dihedral Coeffs # class2/kk

1 0 0 0.0514 0 -0.143 0
2 0 0 0 0 0.158 180
3 0 0 0.0316 0 -0.1681 0
4 -0.2802 0 -0.0678 0 -0.0122 0
5 0 0 0.0514 0 -0.143 0
6 0 0 0.0316 0 -0.1681 0
7 -0.2802 0 -0.0678 0 -0.0122 0
8 0 0 4.4072 0 0 0
9 0 0 1.559 0 0 0
10 0 0 0 0 0.158 180
11 0 0 0.0316 0 -0.1681 0
12 0 0 0 0 0.158 180
13 0 0 0.0316 0 -0.1681 0
14 0 0 4.4072 0 0 0
15 0 0 1.559 0 0 0
16 -0.0228 0 0.028 0 -0.1863 0
17 -0.0228 0 0.028 0 -0.1863 0
18 -0.2801 0 -0.0678 0 -0.0122 0
19 -0.2801 0 -0.0678 0 -0.0122 0
20 8.3667 0 1.1932 0 0 0
21 0 0 3.9661 0 0 0
22 -0.1432 0 0.0617 0 -0.1083 0
23 -0.1432 0 0.0617 0 -0.1083 0
24 0 0 1.8769 0 0 0

AngleAngleTorsion Coeffs

1 -22.045 112.67 112.67
2 0 112.67 108.4
3 -16.164 112.67 110.77
4 0 108.4 120.05
5 -22.045 112.67 112.67
6 -16.164 112.67 110.77
7 0 108.4 120.05
8 -14.4097 120.05 118.9
9 4.4444 120.05 117.94
10 0 112.67 108.4
11 -16.164 112.67 110.77
12 0 112.67 108.4
13 -16.164 112.67 110.77
14 -14.4097 120.05 118.9
15 4.4444 120.05 117.94
16 0 108.4 110.77
17 0 108.4 110.77
18 -5.8888 120.05 111
19 -5.8888 120.05 111
20 0 118.9 118.9
21 -4.8141 118.9 117.94
22 -12.564 110.77 110.77
23 -12.564 110.77 110.77
24 0.3598 117.94 117.94

EndBondTorsion Coeffs

1 -0.0732 0 0 -0.0732 0 0 1.53 1.53
2 0 0 0 0 0 0 1.53 1.501
3 0.2486 0.2422 -0.0925 0.0814 0.0591 0.2219 1.53 1.101
4 0 0 0 0 0 0 1.53 1.417
5 -0.0732 0 0 -0.0732 0 0 1.53 1.53
6 0.2486 0.2422 -0.0925 0.0814 0.0591 0.2219 1.53 1.101
7 0 0 0 0 0 0 1.53 1.417
8 0 0.2421 0 0 -0.6918 0 1.501 1.417
9 0 -1.797 0 0 -0.4879 0 1.501 1.0982
10 0 0 0 0 0 0 1.53 1.501
11 0.2486 0.2422 -0.0925 0.0814 0.0591 0.2219 1.53 1.101
12 0 0 0 0 0 0 1.53 1.501
13 0.2486 0.2422 -0.0925 0.0814 0.0591 0.2219 1.53 1.101
14 0 0.2421 0 0 -0.6918 0 1.501 1.417
15 0 -1.797 0 0 -0.4879 0 1.501 1.0982
16 0 0 0 0 0 0 1.501 1.101
17 0 0 0 0 0 0 1.501 1.101
18 -0.5835 1.122 0.3978 1.3997 0.7756 0 1.417 1.101
19 -0.5835 1.122 0.3978 1.3997 0.7756 0 1.417 1.101
20 -0.1185 6.3204 0 -0.1185 6.3204 0 1.417 1.417
21 0 -6.8958 0 0 -0.4669 0 1.417 1.0982
22 0.213 0.312 0.0777 0.213 0.312 0.0777 1.101 1.101
23 0.213 0.312 0.0777 0.213 0.312 0.0777 1.101 1.101
24 0 -0.689 0 0 -0.689 0 1.0982 1.0982

MiddleBondTorsion Coeffs

1 -17.787 -7.1877 0 1.53
2 0 0 0 1.53
3 -14.879 -3.6581 -0.3138 1.53
4 0 0 0 1.501
5 -17.787 -7.1877 0 1.53
6 -14.879 -3.6581 -0.3138 1.53
7 0 0 0 1.501
8 0 9.1792 0 1.417
9 0 3.9421 0 1.417
10 0 0 0 1.53
11 -14.879 -3.6581 -0.3138 1.53
12 0 0 0 1.53
13 -14.879 -3.6581 -0.3138 1.53
14 0 9.1792 0 1.417
15 0 3.9421 0 1.417
16 0 0 0 1.53
17 0 0 0 1.53
18 -5.5679 1.4083 0.301 1.501
19 -5.5679 1.4083 0.301 1.501
20 27.5989 -2.312 0 1.417
21 0 -1.1521 0 1.417
22 -14.261 -0.5322 -0.4864 1.53
23 -14.261 -0.5322 -0.4864 1.53
24 0 4.8228 0 1.417

BondBond13 Coeffs

1 0 1.53 1.53
2 0 1.53 1.501
3 0 1.53 1.101
4 0 1.53 1.417
5 0 1.53 1.53
6 0 1.53 1.101
7 0 1.53 1.417
8 2.5085 1.501 1.417
9 0.8743 1.501 1.0982
10 0 1.53 1.501
11 0 1.53 1.101
12 0 1.53 1.501
13 0 1.53 1.101
14 2.5085 1.501 1.417
15 0.8743 1.501 1.0982
16 0 1.501 1.101
17 0 1.501 1.101
18 -3.4826 1.417 1.101
19 -3.4826 1.417 1.101
20 53 1.417 1.417
21 -6.2741 1.417 1.0982
22 0 1.101 1.101
23 0 1.101 1.101
24 -1.7077 1.0982 1.0982

AngleTorsion Coeffs

1 0.3886 -0.3139 0.1389 0.3886 -0.3139 0.1389 112.67 112.67
2 0 0 0 0 0 0 112.67 108.4
3 -0.2454 0 -0.1136 0.3113 0.4516 -0.1988 112.67 110.77
4 0 0 0 0 0 0 108.4 120.05
5 0.3886 -0.3139 0.1389 0.3886 -0.3139 0.1389 112.67 112.67
6 -0.2454 0 -0.1136 0.3113 0.4516 -0.1988 112.67 110.77
7 0 0 0 0 0 0 108.4 120.05
8 0 -4.4683 0 0 3.8987 0 120.05 118.9
9 0 -0.1242 0 0 3.4601 0 120.05 117.94
10 0 0 0 0 0 0 112.67 108.4
11 -0.2454 0 -0.1136 0.3113 0.4516 -0.1988 112.67 110.77
12 0 0 0 0 0 0 112.67 108.4
13 -0.2454 0 -0.1136 0.3113 0.4516 -0.1988 112.67 110.77
14 0 -4.4683 0 0 3.8987 0 120.05 118.9
15 0 -0.1242 0 0 3.4601 0 120.05 117.94
16 0 0 0 0 0 0 108.4 110.77
17 0 0 0 0 0 0 108.4 110.77
18 0.2251 0.6548 0.1237 4.6266 0.1632 0.0461 120.05 111
19 0.2251 0.6548 0.1237 4.6266 0.1632 0.0461 120.05 111
20 1.9767 1.0239 0 1.9767 1.0239 0 118.9 118.9
21 0 2.5014 0 0 2.7147 0 118.9 117.94
22 -0.8085 0.5569 -0.2466 -0.8085 0.5569 -0.2466 110.77 110.77
23 -0.8085 0.5569 -0.2466 -0.8085 0.5569 -0.2466 110.77 110.77
24 0 2.4501 0 0 2.4501 0 117.94 117.94

Improper Coeffs # class2/kk

1 0 0
2 0 0
3 0 0
4 0 0
5 0 0
6 0 0
7 0 0
8 0 0
9 0 0
10 0 0
11 0 0
12 7.8153 0
13 7.8153 0
14 4.8912 0

AngleAngle Coeffs

1 2.0403 -1.8202 1.0827 108.4 110.77 111
2 0.1184 -1.3199 -1.3199 110.77 112.67 110.77
3 1.0827 -1.8202 2.0403 110.77 108.4 111
4 0.2738 -0.4825 0.2738 110.77 110.77 107.66
5 -1.3199 -1.3199 0.1184 112.67 110.77 110.77
6 0.2738 -0.4825 0.2738 110.77 110.77 107.66
7 2.3794 3.0118 2.3794 111 111 107.66
8 -0.3157 -0.3157 -0.3157 107.66 107.66 107.66
9 0 0 0 112.67 108.4 108.4
10 -1.3199 -1.3199 0.1184 112.67 110.77 110.77
11 2.0403 -1.8202 1.0827 108.4 110.77 111
12 0 0 0 120.05 120.05 118.9
13 0 0 0 120.05 120.05 118.9
14 0 0 0 118.9 117.94 117.94

Atoms # full/kk

1744 3 4 0.1268 6.162676809373822 5.174443049691465 9.763246618844487 0 1 1
51 1 4 0.053 5.930766769499917 10.472049353322326 5.4330655641010015 1 0 0
31 1 3 -0.1268 7.4933339438851405 10.524252335895765 10.620073771557658 1 0 0
36 1 2 -0.053 7.666676900044596 10.07051344347922 6.682225021234867 1 0 0
44 1 4 0.1268 7.780968300916527 4.782665687017466 5.138296519235723 1 0 0
32 1 4 0.1268 7.861957053498632 9.610354299331632 11.104516057479412 1 0 0
45 1 3 -0.1268 6.920424630749811 6.254722773406581 6.371170206962702 1 0 0
47 1 3 -0.1268 6.9379314749767875 7.627431531236093 6.744167209186039 1 0 0
38 1 3 0 7.806510411347491 8.588312492523606 6.15618280162216 1 0 0
48 1 4 0.1268 6.166736546584614 7.957470775016504 7.431130199246869 1 0 0
21 1 4 0.053 9.108265770984897 9.331216425356025 9.020138619648144 1 0 0
43 1 3 -0.1268 7.90525662642728 5.818780822320681 5.404423869374556 1 0 0
39 1 3 -0.1268 8.783290874450904 8.057027549484918 5.299883643934023 1 0 0
46 1 4 0.1268 6.105584036076195 5.631570490895715 6.753461680586068 1 0 0
41 1 3 -0.1268 8.8492368782522 6.774694084946979 4.903528660522762 1 0 0
40 1 4 0.1268 9.440580972847245 8.808131700865147 4.840394006510898 1 0 0
42 1 4 0.1268 9.636473394637715 6.391452916573165 45.56923815115046 1 0 -1
1109 2 4 0.053 15.413211764577879 5.304602314771243 10.359790919830285 0 0 1
3848 6 4 0.1268 11.655683627731397 5.876245444564067 45.85098164745338 0 0 0
1774 3 4 0.1268 12.41308746027304 7.243858897760186 10.078624211957736 0 1 1
5 1 4 0.053 11.655359587701062 9.232651636195499 8.945070128719117 1 0 0
14 1 4 0.1268 13.259537353779013 9.433354134473612 45.76240081367025 1 0 -1
13 1 3 -0.1268 13.20892765158225 10.100969730151123 5.335370016319369 1 0 0
16 1 4 0.1268 12.173322941740969 8.837816414174554 6.7218803446874675 1 0 0
15 1 3 -0.1268 12.645512114599121 9.811470774030104 6.57361589892533 1 0 0
3846 6 4 0.1268 13.533824001976898 6.850765114163421 5.790996964030624 0 0 1
1108 2 4 0.053 16.9983544623703 5.496493114351667 9.864888133069028 0 0 1
916 2 4 0.053 21.50159527507702 10.385669056231208 5.638641752618795 0 0 1
924 2 4 0.1268 17.398182327544454 10.371436147375164 7.314323683226959 0 0 1
921 2 3 -0.1268 19.569946714949367 10.437288592044508 7.55683010050264 0 0 1
923 2 3 -0.1268 18.310537311814855 9.970475607204566 7.856985977895772 0 0 1
926 2 4 0.1268 17.177980497174012 8.315556044147476 8.851912863153245 0 0 1
1167 2 3 -0.1268 20.831965140660884 5.115053663538749 6.2140261165574415 0 0 1
928 2 4 0.1268 19.364638562304947 7.200744915521565 9.622433372429985 0 0 1
1168 2 4 0.1268 20.993801860025933 5.818954037511054 7.09413786063611 0 0 1
920 2 3 0 20.655677569934202 9.777591324847837 8.039065751844705 0 0 1
925 2 3 -0.1268 18.18576178335833 8.824237546744815 8.640754357779922 0 0 1
927 2 3 -0.1268 19.35779206872114 8.155594861955066 9.11331130468792 0 0 1
929 2 3 -0.1268 20.54725895814452 8.75714449953578 8.928840725365735 0 0 1
930 2 4 0.1268 21.46899241485454 8.218821936918161 9.294672265529293 0 0 1
917 2 4 0.053 21.829474857456734 8.743038130059979 6.290586321759857 0 0 1
889 2 3 -0.1268 27.260655569444133 8.292294634383993 5.061446966272929 0 0 1
918 2 2 -0.053 22.119764583710577 10.256463897911546 7.636272990933281 0 0 1
973 2 3 -0.1268 22.317786691825344 5.631936658270066 10.841074318876784 0 0 1
915 2 1 -0.106 22.186659298492607 9.761845289042682 6.240847639429793 0 0 1
951 2 4 0.053 22.5737682514674 9.796036615970454 10.934590338693777 0 0 1
919 2 4 0.053 22.751495435085705 9.740070225501134 8.283603054359306 0 0 1
896 2 4 0.1268 25.78929171924545 5.2965257723908294 7.1078947400989785 0 0 1
897 2 3 -0.1268 25.35618122941444 6.829905021572633 5.658548392839563 0 0 1
891 2 3 -0.1268 28.058188578857713 7.626540186587394 5.984353069095603 0 0 1
902 2 2 -0.053 23.59357186243079 9.683289664726104 5.585468608412881 0 0 1
972 2 4 0.1268 23.797581280683048 6.121553090162156 9.410576989113169 0 0 1
895 2 3 -0.1268 26.19402531202968 6.141954609426511 6.555119875042501 0 0 1
903 2 4 0.053 24.3276844245681 9.415219198509334 6.326507777998172 0 0 1
893 2 3 -0.1268 27.488664220162427 6.535186921126632 6.715511794528247 0 0 1
894 2 4 0.1268 28.097833617249034 6.013269567781768 7.486543265952164 0 0 1
971 2 3 -0.1268 23.455173001658714 6.407510771259592 10.410239095384114 0 0 1
3220 6 4 0.1268 29.040989102859275 9.667472881469187 7.9786869719280435 0 0 0
4426 7 4 0.1268 28.726886188353518 6.363968867855105 10.055480139317744 0 1 0
3222 6 4 0.1268 30.047473386105164 10.670069387640147 5.912185313356938 0 0 0
4425 7 3 -0.1268 29.807195263977892 6.54554668159518 10.348932983543206 0 1 0
892 2 4 0.1268 29.063955204300864 7.941628465506801 6.100954860477906 0 0 1
6062 10 4 0.1268 32.02312811005025 9.145212223147034 7.207114147887161 0 0 0
4424 7 4 0.1268 30.393149432123366 6.400259069067735 8.289691911072158 0 1 0
6063 10 3 -0.1268 32.165424051899436 7.770399753944215 5.500091727155322 0 0 0
4422 7 4 0.1268 32.72321354836379 6.153878959546666 8.82353541127653 0 1 0
6061 10 3 -0.1268 32.60337930004877 8.861235152168323 6.276070289345252 0 0 0
6064 10 4 0.1268 31.298383736743595 7.2041511521691675 5.801668289927375 0 0 0
4423 7 3 -0.1268 30.69788727880511 6.351123764204831 9.341069416836516 0 1 0
4421 7 3 -0.1268 32.05458233378478 6.371225035968767 9.652213293075677 0 1 0
5980 10 4 0.1268 33.90023699545664 5.648991378393917 6.331376396777311 0 0 0
6059 10 3 -0.1268 33.622048109398406 9.661627516882568 5.733148770528229 0 0 0
6060 10 4 0.1268 33.93816046042589 10.500091886448212 6.282152024704758 0 0 0
6057 10 3 -0.1268 34.11785587557396 9.427443864962903 45.710848054688356 0 0 -1
5962 10 4 0.1268 36.515130710099044 6.810120793316758 10.777997364619333 0 0 0
5979 10 3 -0.1268 34.73397335289454 5.313738538965627 7.0018132786496805 0 0 0
5988 10 4 0.053 38.160870600259585 5.370275796956626 5.610432484874736 0 0 0
5976 10 3 0 36.88648947994891 5.484134232408965 7.957723167717159 0 0 0
5977 10 3 -0.1268 35.86272684963965 6.0727562334321945 7.240412050471867 0 0 0
5989 10 4 0.053 38.015946038501646 7.114871870700204 5.911910710314079 0 0 0
5978 10 4 0.1268 35.92017338558615 7.0879166126978905 6.792661659848615 0 0 0
5974 10 2 -0.053 38.25002225278309 6.11974085503469 7.824644537191811 0 0 0
5971 10 1 -0.106 38.201985387737885 7.504842162158116 8.587405218852433 0 0 0
5972 10 4 0.053 37.19531752370013 7.754945909207665 8.770813259181757 0 0 0
5987 10 1 -0.106 38.525374981029685 6.21201789488568 6.284954760772559 0 0 0
5973 10 4 0.053 38.56057128527888 8.316784920397554 7.877415661851865 0 0 0
5975 10 4 0.053 38.99641777674491 5.46328623624622 8.250558471761659 0 0 0
5958 10 2 -0.053 38.96304005609846 7.605207343369024 9.882660495143755 0 0 0
5955 10 1 -0.106 38.829330564562156 9.01460660458712 10.451691685324596 0 0 0
5960 10 3 0 38.6097212134883 6.506272503588133 10.824487391275538 0 0 0
5943 10 4 0.053 39.54499954327593 10.071332384075994 8.692153214683394 0 0 0
5942 10 2 -0.053 39.69595694136804 10.14481175753382 9.782038777002324 0 0 0
5957 10 4 0.053 37.83656615849312 9.367396058329435 10.363189742795102 0 0 0
5961 10 3 -0.1268 37.29236215228031 6.126042136323185 11.156546489044759 0 0 0
4613 8 3 -0.1268 44.955934003398475 45.622661697400574 4.896987378424339 0 0 0
4614 8 4 0.1268 44.31097886619084 45.44554916604321 5.762059598884282 0 0 0
5959 10 4 0.053 40.10166908658774 7.433205676712671 9.738359528993266 0 0 0
6001 10 3 -0.1268 42.00715053241184 5.671146266366046 7.472483283562882 0 0 0
6002 10 4 0.1268 42.302326487832204 6.721151781952272 7.594675965669045 0 0 0
5950 10 4 0.1268 44.83942308558113 8.79363531494484 10.169834451193427 0 0 0
5992 10 3 0 40.90916656061836 5.2995112121278325 6.6500599521849 0 0 0
5953 10 3 -0.1268 41.94355654879042 9.879133544487072 8.829984433881547 0 0 0
5999 10 3 -0.1268 42.714446489640586 4.736425193715711 8.228952746263664 0 0 0
5990 10 2 -0.053 40.063521247032874 6.378747727223314 6.009256976181865 0 0 0
5952 10 4 0.1268 43.81474188431423 9.20191024421814 7.950218279785435 0 0 0
5944 10 3 0 41.194939545758096 9.944887934611842 9.966998661040614 0 0 0
5951 10 3 -0.1268 43.264686014425706 9.425972621059724 8.890560439198223 0 0 0
5991 10 4 0.053 40.37598435901519 7.38781877285735 6.4168232433564185 0 0 0
5954 10 4 0.1268 41.51420094378632 10.241865038261132 7.8489483248334055 0 0 0
6000 10 4 0.1268 43.546715122190825 5.139463003163328 8.856126528940099 0 0 0
5949 10 3 -0.1268 43.8790004855597 9.247644676239467 10.1567243102349 0 0 0
5947 10 3 -0.1268 43.20107355356453 9.363258531423298 11.321625809569305 0 0 0
5945 10 3 -0.1268 41.89058203785454 9.755710441240133 11.226746941604903 0 0 0
5970 10 4 0.1268 40.67463183361793 6.143339911128355 11.413027880772642 0 0 0
111 1 3 -0.1268 7.229089813431878 16.031729521516258 5.614826413500654 1 0 0
102 1 3 0 8.545058595954668 16.33870399070507 5.206807430194336 1 0 0
112 1 4 0.1268 6.45545712730909 15.74774122553481 4.862693501104811 1 0 0
23 1 3 -0.1268 7.405229014241117 12.270708643943319 8.983021779287025 1 0 0
109 1 3 -0.1268 6.807991039999472 16.012006497078872 6.917908625377669 1 0 0
24 1 4 0.1268 7.856223131521916 12.76522513814443 8.08933442492788 1 0 0
105 1 3 -0.1268 8.992330798168009 16.695050336417417 7.606765316044181 1 0 0
107 1 3 -0.1268 7.719885995304001 16.353066683845437 7.915644378353695 1 0 0
22 1 3 0 8.030194646116737 11.115037179799451 9.472789240154231 1 0 0
33 1 1 -0.106 9.049292936117075 10.501359158851013 7.1948987533856315 1 0 0
49 1 1 -0.106 6.940860164402766 10.870403950840949 5.557373077679983 1 0 0
20 1 2 -0.053 9.20208121092922 10.37721207535748 8.761889276473267 1 0 0
34 1 4 0.053 9.786755852508946 9.881043691993167 6.666131519396964 1 0 0
35 1 4 0.053 9.312684893764185 11.565603121296647 6.870563173197435 1 0 0
110 1 4 0.1268 5.761398589920107 15.72422304153431 7.044159789264193 1 0 0
108 1 4 0.1268 7.459680626501192 16.319818630509204 8.974855837259678 1 0 0
37 1 4 0.053 6.954099068687373 10.021629825190077 7.5180537173419015 1 0 0
50 1 4 0.053 6.7478367776420365 11.864790209191561 5.940850642722479 1 0 0
19 1 4 0.053 10.468319763303596 10.917389521027681 10.454104343487396 1 0 0
17 1 1 -0.106 10.512372819866737 10.983795942038892 9.341971010412221 1 0 0
18 1 4 0.053 10.665299526121535 12.102300979138372 9.109965310852184 1 0 0
2 1 4 0.053 13.534428621400789 11.655491039505431 9.718141527438373 1 0 0
1 1 1 -0.159 13.083372226901167 10.630780089215357 9.888841610518197 1 0 0
87 1 3 -0.1268 12.61612137332565 15.682512411849158 46.00075952809782 1 0 -1
3 1 4 0.053 13.753444337207464 9.899814958099807 9.526330246822246 1 0 0
191 1 3 -0.1268 13.91953892611429 15.756786899401009 8.3388774850006 1 0 0
192 1 4 0.1268 12.917010175896369 15.287694216483523 8.434905064513828 1 0 0
88 1 4 0.1268 12.100644828082123 15.44469137544407 5.663289292051897 1 0 0
189 1 3 -0.1268 15.022134527131234 15.02397009724843 7.898162461746769 1 0 0
190 1 4 0.1268 14.908666711045901 13.892147224707978 7.720879179974912 1 0 0
187 1 3 -0.1268 16.296844217320725 15.585923165843836 7.738070024116971 1 0 0
8 1 4 0.1268 12.38426080454056 12.94843997200398 7.87473929643179 1 0 0
10 1 4 0.1268 13.450109320741591 13.456086335939286 5.757906091859203 1 0 0
7 1 3 -0.1268 12.672987881585273 12.115319879102124 7.224023677552829 1 0 0
9 1 3 -0.1268 13.171488010129446 12.402683255275628 5.958904382167196 1 0 0
6 1 3 0 12.333124812583144 10.776568992026322 7.567129022415608 1 0 0
360 1 4 0.1268 16.644844432904954 14.503517941142341 4.822871865815437 1 0 0
4 1 2 -0.053 11.837937375534159 10.331461407153881 8.944982316959745 1 0 0
11 1 3 -0.1268 13.490223680506885 11.453038105102324 5.0806185907190144 1 0 0
365 1 3 -0.1268 18.70078625419488 11.611277732294397 44.61187951152529 1 0 -1
362 1 4 0.1268 16.023915316651326 12.350098648211656 5.4643067757580175 1 0 0
188 1 4 0.1268 17.212023850168126 14.972610730098351 7.574385789346059 1 0 0
361 1 3 -0.1268 16.853643851476214 12.389400499712194 4.755537296421243 1 0 0
359 1 3 -0.1268 17.31012046655918 13.709481147518115 45.69587695620915 1 0 -1
941 2 3 -0.1268 21.438015252810068 16.495933172768105 9.280993076252328 0 0 1
366 1 4 0.1268 19.067926086310294 10.735985945673669 43.98731623059681 1 0 -1
363 1 3 -0.1268 17.57826590015597 11.361838773186387 45.4880678108774 1 0 -1
364 1 4 0.1268 17.44452932374884 10.415745797153226 45.988213598097765 1 0 -1
944 2 4 0.1268 19.37799510086123 15.923767599311377 9.990155515641854 0 0 1
946 2 4 0.1268 19.876987846877224 13.547453812508785 10.025382099853353 0 0 1
943 2 3 -0.1268 20.390820825520564 15.581778822748536 9.590041050909958 0 0 1
945 2 3 -0.1268 20.64858347521433 14.194654211509185 9.704746308284896 0 0 1
932 2 4 0.053 21.625054609246572 12.391501019667515 7.212404468457385 0 0 1
935 2 4 0.053 21.256729587607836 11.732111647466592 9.721901355401474 0 0 1
922 2 4 0.1268 19.79486511302491 11.301747337658606 7.02216784600578 0 0 1
904 2 3 0 23.93272909018162 11.155939675893517 5.1925868188811 0 0 1
907 2 3 -0.1268 25.488628131147006 13.086030730228156 5.494422884608137 0 0 1
908 2 4 0.1268 26.33068535877979 13.556521996002022 6.038084101338271 0 0 1
934 2 2 -0.053 22.204373173663686 12.158907788065049 9.39994135113839 0 0 1
936 2 3 0 21.961165303363046 13.645136647449107 9.383889324215655 0 0 1
931 2 1 -0.106 22.270532593314307 11.765391299448728 7.896287246915715 0 0 1
939 2 3 -0.1268 22.68425769159178 15.92923818386449 9.023504643954887 0 0 1
937 2 3 -0.1268 22.905980260412353 14.589962075153961 9.04660783962566 0 0 1
940 2 4 0.1268 23.621434470739363 16.468386490747022 8.774179433592908 0 0 1
905 2 3 -0.1268 25.171413237267938 11.720386500319261 5.647499391935304 0 0 1
3212 6 4 0.053 25.956694461491654 13.431928275298594 8.718023327932615 0 0 0
3213 6 4 0.053 26.723270778238422 14.912543435234758 8.158396663837074 0 0 0
3211 6 1 -0.159 26.591973732010214 14.311083374020924 9.035426624507725 0 0 0
938 2 4 0.1268 23.9187692022631 14.244452808530259 8.832753011450505 0 0 1
933 2 4 0.053 23.3434690297829 12.033193326550133 7.69354596366439 0 0 1
3851 6 4 0.053 26.017330846445617 14.886079172820093 9.75519404501072 0 0 0
947 2 1 -0.106 23.354155391026232 11.67425094235041 10.35360347360233 0 0 1
906 2 4 0.1268 25.820653022783002 11.142856898120218 6.326374090842607 0 0 1
3218 6 4 0.1268 28.184873709688798 11.006085762995554 9.84211361056983 0 0 0
3217 6 3 -0.1268 28.599752637949923 11.513558820855774 8.897569740880867 0 0 0
948 2 4 0.053 24.26163688070949 11.364087818282407 9.7409643333258 0 0 1
3214 6 2 -0.053 27.97042973419234 13.863693467604072 9.680242043090606 0 0 0
3216 6 3 0 28.649992770757258 12.951812001277684 8.756920403964076 0 0 0
3266 6 4 0.1268 32.12691650261101 16.805709356225872 9.568811679598111 0 0 0
3215 6 4 0.053 28.488104037509622 14.8249430276535 9.862204127408726 0 0 0
3257 6 3 -0.1268 32.25268051454382 13.059647955127035 10.697789428492625 0 0 0
3265 6 3 -0.1268 33.12108735329235 16.585733242844274 9.970334910241887 0 0 0
3225 6 3 -0.1268 29.235317771572056 13.483890896746122 7.6014127003368595 0 0 0
3223 6 3 -0.1268 29.82954952733336 12.686971255376701 6.628978126081061 0 0 0
5405 9 3 -0.1268 31.957092999788937 15.824544709529672 6.40036796778283 0 0 0
5407 9 3 -0.1268 31.436862437272435 16.279362257296484 5.145662742225322 0 0 0
3226 6 4 0.1268 29.195089369096415 14.566542005748566 7.325791040404492 0 0 0
5406 9 4 0.1268 31.470841950448868 16.264668378981753 7.292689709135221 0 0 0
3258 6 4 0.1268 31.48845982937989 13.509973464216943 10.095748978832816 0 0 0
3255 6 3 -0.1268 33.163187984672206 12.363911557982856 10.021091400188526 0 0 0
3224 6 4 0.1268 30.246426806409897 13.132622522040284 5.691000299247202 0 0 0
3256 6 4 0.1268 33.0992873391696 12.208088907275103 8.975026057617075 0 0 0
5403 9 3 -0.1268 32.617472380242376 14.62945721444653 6.432167527446102 0 0 0
5404 9 4 0.1268 32.82769232228563 14.006324686020516 7.227603539700308 0 0 0
3219 6 3 -0.1268 29.17281341907325 10.752656433479267 7.902525782586566 0 0 0
3221 6 3 -0.1268 29.737095387265292 11.297976196894556 6.753503321202554 0 0 0
5924 10 4 0.053 38.50157941392354 14.391126910663694 9.893384805134353 0 0 0
5923 10 1 -0.106 39.60256201367117 14.191449945389444 9.864319521657102 0 0 0
3253 6 3 -0.1268 34.307971889428515 11.978995917313759 10.666298388248428 0 0 0
5941 10 4 0.053 38.27844739734232 11.574694060581365 10.374821701267212 0 0 0
3268 6 4 0.1268 33.8592882508164 16.410131141363422 7.949080573510875 0 0 0
3267 6 3 -0.1268 34.134622736478406 16.47734031465393 8.997345849079514 0 0 0
3270 6 4 0.1268 36.272815251697594 16.002077024522286 8.83418594391057 0 0 0
5939 10 1 -0.106 39.40476790490067 11.592067401344543 10.286839256118729 0 0 0
3269 6 3 -0.1268 35.38947623473477 16.159106674946507 9.471131995874417 0 0 0
5933 10 3 -0.1268 37.99258084051891 12.36737449399729 5.3909627728989316 0 0 0
5929 10 3 -0.1268 37.73897298039753 12.520508287418252 7.854428428934592 0 0 0
5931 10 3 -0.1268 37.18789714435244 12.35429824068863 6.565530335581386 0 0 0
5928 10 3 0 39.14270110574935 12.66760644159431 7.985708517659525 0 0 0
5930 10 4 0.1268 37.06280856538105 12.366982150996822 8.689620975884333 0 0 0
5932 10 4 0.1268 36.10335405263983 12.191359138269613 6.493174970473446 0 0 0
5935 10 3 -0.1268 39.349450919548715 12.673424117491802 5.48571505628782 0 0 0
3254 6 4 0.1268 35.010871049229465 11.373504731218793 10.109398033099623 0 0 0
5937 10 3 -0.1268 39.8738678816863 12.82626545647572 6.77146393370481 0 0 0
5926 10 2 -0.053 39.8676082402567 12.766550774934469 9.372436716088679 0 0 0
5925 10 4 0.053 40.07481907439058 14.915629842654125 9.144699902733644 0 0 0
5892 10 4 0.053 45.02564546949928 15.29154473100774 10.585923847731511 0 0 0
5898 10 4 0.1268 42.207296882579435 16.16124237501075 8.114890573972845 0 0 0
5894 10 2 -0.053 42.7917189814375 15.07155921661448 10.579404325167824 0 0 0
5905 10 3 -0.1268 43.7556042140544 13.336253767004806 9.06242611281511 0 0 0
5901 10 3 -0.1268 43.869427627094055 13.535806256663252 6.62375366231627 0 0 0
6012 10 4 0.1268 41.79579462045873 11.289213882006528 5.914590102153423 0 0 0
5906 10 4 0.1268 43.89405238368278 12.746052093547593 9.975022154257271 0 0 0
5896 10 3 0 43.08122072448573 14.535482039032697 9.222231797361612 0 0 0
5927 10 4 0.053 40.966793225298495 12.726068936518296 9.171115027306929 0 0 0
5904 10 4 0.1268 44.69400416595138 11.902006100418884 7.781672311144475 0 0 0
5938 10 4 0.1268 40.9539595128123 13.150193794474669 6.718422446810013 0 0 0
5902 10 4 0.1268 44.19536372235844 13.183594184367506 5.683894617975875 0 0 0
5900 10 4 0.1268 42.89003585895102 15.367078137269349 5.938671962147921 0 0 0
5903 10 3 -0.1268 44.23488654336087 12.875792168705496 7.8072887151520165 0 0 0
5899 10 3 -0.1268 43.2516852688398 14.77322633666544 6.793360115872237 0 0 0
5897 10 3 -0.1268 42.729259485438924 15.21426517313402 8.04957081178505 0 0 0
158 1 4 0.1268 7.17066375360203 19.696780235215144 10.47262124026108 1 0 0
148 1 2 -0.053 9.517175766992864 21.188913574180994 6.7491204674144445 1 0 0
157 1 3 -0.1268 7.576765386135657 20.51948771196735 9.92913767305966 1 0 0
160 1 4 0.1268 8.11656764524862 19.351948282378657 8.26307373785534 1 0 0
161 1 1 -0.106 10.607195017722598 20.067276752361142 6.836240210126828 1 0 0
165 1 4 0.053 10.675618546920225 19.555273688632074 8.926524310622574 1 0 0
106 1 4 0.1268 9.74977584910513 16.9379870013073 8.367603666957153 1 0 0
163 1 4 0.053 9.957582195040692 19.13342800448745 6.7366429473107585 1 0 0
103 1 3 -0.1268 9.367853589544122 16.695379665165188 6.27635993788272 1 0 0
104 1 4 0.1268 10.345535033901477 17.07792721147055 6.008680692690572 1 0 0
168 1 4 0.1268 11.169332442560659 21.07403330864545 10.604865168439957 1 0 0
147 1 4 0.053 7.7631651520571765 21.83579027154421 5.725469564459853 1 0 0
145 1 1 -0.106 8.467168007158882 20.927460237819457 5.671393429781626 1 0 0
150 1 3 0 8.850721983391 21.41819665500265 8.06320256290276 1 0 0
5628 9 4 0.1268 6.258328067621129 18.63954902786383 6.6885715291224646 1 0 0
155 1 3 -0.1268 7.626043532768746 21.780265051590277 10.597582118041174 1 0 0
149 1 4 0.053 10.050227219661014 22.157728788330633 6.466030825625139 1 0 0
159 1 3 -0.1268 8.168616108397138 20.365436185399346 8.702267079390934 1 0 0
146 1 4 0.053 7.865964551695006 20.089304286781946 5.9857703681404715 1 0 0
178 1 4 0.053 12.44311690792194 18.36634207550223 7.125397447093724 1 0 0
181 1 4 0.053 11.994292520057783 17.248453435978146 9.171421512789582 1 0 0
179 1 4 0.053 13.624500784489799 19.55260904932599 7.928853837236529 1 0 0
89 1 3 -0.1268 13.849385719208794 16.4721473788422 45.94953815590527 1 0 -1
194 1 4 0.053 14.02051530992798 19.240306178669773 10.474497209659624 1 0 0
183 1 3 -0.1268 15.26301980080277 17.66176672386719 8.473315397137357 1 0 0
193 1 1 -0.106 13.155473201558884 18.57681417059686 10.481537550404859 1 0 0
195 1 4 0.053 12.404851329355095 19.38009514501945 10.637667123889534 1 0 0
177 1 1 -0.106 12.62193698799543 18.988610132486063 7.981726696083312 1 0 0
185 1 3 -0.1268 16.407520740662804 16.917864397429803 8.048048467811938 1 0 0
90 1 4 0.1268 14.436358536772019 16.700341630913453 5.570300382209476 1 0 0
164 1 2 -0.053 11.444139005544965 19.955449669494918 8.172369391727443 1 0 0
180 1 2 -0.053 12.906315282329167 17.922914199033443 9.077069496287944 1 0 0
182 1 3 0 14.032415012693477 17.082177659273682 8.60735644820321 1 0 0
176 1 4 0.1268 12.933630295989612 21.789180074746707 6.79057535369106 1 0 0
166 1 3 0 12.049750334165143 21.282231332637426 8.616871410852772 1 0 0
184 1 4 0.1268 15.373434112517518 18.743113773623026 8.790796939869672 1 0 0
175 1 3 -0.1268 12.755713190657838 22.101523832525555 7.81680564990797 1 0 0
167 1 3 -0.1268 11.809473477450208 21.703719662209366 9.902991969359652 1 0 0
162 1 4 0.053 11.247041161098679 20.067086826065992 5.852761357783182 1 0 0
336 1 4 0.1268 15.684325202253406 19.680112450308307 45.72760543965994 1 0 -1
240 1 4 0.1268 17.18381138215443 20.11646253593235 10.805556597421367 1 0 0
355 1 4 0.053 19.124978900484784 15.921104343925878 5.194436868443792 1 0 0
238 1 4 0.1268 19.45324087144054 20.385107691812415 9.896148479121944 1 0 0
237 1 3 -0.1268 19.25935456320858 20.543852877368167 10.960306078496208 1 0 0
236 1 4 0.1268 21.436810813641447 21.041819363132156 11.421855723444716 1 0 0
235 1 3 -0.1268 20.357825221853798 20.91704152546853 11.740474922075812 1 0 0
186 1 4 0.1268 17.364373121210896 17.431344142971312 8.242177312599235 1 0 0
323 1 4 0.053 16.920008351098428 20.819249507359313 6.5931427725963925 1 0 0
354 1 4 0.053 17.57065669372409 16.521703494991044 4.826497134353247 1 0 0
338 1 4 0.053 17.502251570113547 18.436405868902433 5.5844712190225225 1 0 0
353 1 1 -0.106 18.5603426994304 16.454519459702173 45.65800407823756 1 0 -1
339 1 4 0.053 19.068301727750125 18.597883577087686 6.2237913116882195 1 0 0
337 1 1 -0.106 18.506046839340662 18.813539255371808 5.368017863292831 1 0 0
322 1 4 0.053 18.447412491641618 20.747816154390474 7.239167934506348 1 0 0
2226 4 4 0.1268 21.285095187503508 19.673005074023465 8.637914441819829 0 0 1