units real
atom_style full
boundary p p p

# --- Force Field Styles ---
pair_style lj/class2/coul/long 9.5 9.5
kspace_style pppm 1e-6
dielectric 1.000000
bond_style class2
angle_style class2
dihedral_style class2
improper_style class2
special_bonds lj/coul 0 0 1
pair_modify mix sixthpower tail yes
neighbor 2.0 bin
neigh_modify delay 0 every 1 check yes
neigh_modify one 4000
# KOKKOS: package loaded via -pk kokkos on the command line

read_data /home/arz2/PolyJarvis/data/PSU2/lammps/equil/npt_cool300/npt_cool300_out.data
Reading data file ...
  orthogonal box = (5.9819542 5.9819542 5.9819542) to (55.911627 55.911627 55.911627)
  1 by 1 by 1 MPI processor grid
  reading atoms ...
  10820 atoms
  reading velocities ...
  10820 velocities
  scanning bonds ...
  4 = max bonds/atom
  scanning angles ...
  16 = max angles/atom
  scanning dihedrals ...
  38 = max dihedrals/atom
  scanning impropers ...
  12 = max impropers/atom
  orthogonal box = (5.9819542 5.9819542 5.9819542) to (55.911627 55.911627 55.911627)
  1 by 1 by 1 MPI processor grid
  reading bonds ...
  11610 bonds
  reading angles ...
  19600 angles
  reading dihedrals ...
  29180 dihedrals
  reading impropers ...
  8000 impropers
Finding 1-2 1-3 1-4 neighbors ...
  special bond factors lj:    0        0        1       
  special bond factors coul:  0        0        1       
     4 = max # of 1-2 neighbors
    10 = max # of 1-3 neighbors
    14 = max # of special neighbors
  special bonds CPU = 0.006 seconds
  read_data CPU = 0.364 seconds
include /home/arz2/PolyJarvis/data/PSU2/lammps/equil/emc_build.params
# LAMMPS parameters created by EMC v9.4.4, build Jul 31 2025 20:33:44

# Variables

variable	seed		index	820419
variable	ntotal		index	10820
variable	fshape		index	1
variable	output		index	emc_build
variable	field		index	pcff/pcff
variable	location1	index	/home/arz2/emc/field/
variable	nav		index	0.6022141179
variable	temperature	index	300
variable	radius		index	5
variable	nrelax		index	100
variable	weight_nonbond	index	0.0001
variable	weight_bond	index	0.0001
variable	weight_focus	index	1
variable	cutoff		index	9.5
variable	charge_cutoff	index	9.5
variable	kappa		index	4
variable	density1	index	0.62
variable	lprevious	index	0
variable	lphase		index	61.8935814259
variable	f_poly		index	10
variable	chem_repeat	index	*Oc1ccc(C(C)(C)c2ccc(Oc3ccc(S(=O)(=O)c4ccc(*)cc4)cc3)cc2)cc1
variable	chem_cap	index	*[H]
variable	lg_repeat	index	54
variable	lg_cap		index	1
variable	norm_poly	index	100
variable	l_poly		index	1082
variable	mg_repeat	index	414.52744
variable	mg_cap		index	0
variable	m_poly		index	8290.5488
variable	n_poly		index	10
variable	mtotal		index	88527.7574
variable	nphase1		index	10820
variable	mphase1		index	88527.7574
variable	vphase1		index	237102.886232
variable	lbox		index	61.8935814259
variable	lphase1		index	61.8935814259
variable	lxx		index	61.8935814259
variable	lyy		index	61.8935814259
variable	lzz		index	61.8935814259
variable	lzy		index	0
variable	lzx		index	0
variable	lyx		index	0
variable	vtotal		index	237102.886232
variable	nl_poly		index	10

# Types

variable	type_c		index	1
variable	type_cp		index	2
variable	type_hc		index	3
variable	type_ho		index	4
variable	type_oe		index	5
variable	type_oc		index	6
variable	type_oh		index	7
variable	type_sf		index	8

variable	type_bond_c_c	index	1
variable	type_bond_c_cp	index	2
variable	type_bond_c_hc	index	3
variable	type_bond_cp_cp	index	4
variable	type_bond_cp_hc	index	5
variable	type_bond_cp_oc	index	6
variable	type_bond_cp_oh	index	7
variable	type_bond_cp_sf	index	8
variable	type_bond_ho_oh	index	9
variable	type_bond_oe_sf	index	10

variable	type_angle_c_c_c index	1
variable	type_angle_c_c_cp index	2
variable	type_angle_c_c_hc index	3
variable	type_angle_c_cp_cp index	4
variable	type_angle_cp_c_cp index	5
variable	type_angle_cp_cp_cp index	6
variable	type_angle_cp_cp_hc index	7
variable	type_angle_cp_cp_oc index	8
variable	type_angle_cp_cp_oh index	9
variable	type_angle_cp_cp_sf index	10
variable	type_angle_cp_oc_cp index	11
variable	type_angle_cp_oh_ho index	12
variable	type_angle_cp_sf_cp index	13
variable	type_angle_cp_sf_oe index	14
variable	type_angle_hc_c_hc index	15
variable	type_angle_oe_sf_oe index	16

# Clusters

variable	n0_poly		index	1
variable	n1_poly		index	10
variable	nl_poly		index	10

# Flags

variable	flag_charged	index	1

# Masses

mass		1    12.01115  # c
mass		2    12.01115  # cp
mass		3     1.00797  # hc
mass		4     1.00797  # ho
mass		5    15.99940  # o=
mass		6    15.99940  # oc
mass		7    15.99940  # oh
mass		8    32.06400  # sf

# Potentials

pair_modify	mix sixthpower tail yes
special_bonds	lj/coul 0 0 1

# Pair Coeffs

pair_coeff	 1  1    0.05400    4.01000  # c,c
pair_coeff	 2  2    0.06400    4.01000  # cp,cp
pair_coeff	 3  3    0.02000    2.99500  # hc,hc
pair_coeff	 4  4    0.01300    1.09800  # ho,ho
pair_coeff	 5  5    0.06000    3.53500  # o=,o=
pair_coeff	 6  6    0.24000    3.53500  # oc,oc
pair_coeff	 7  7    0.24000    3.53500  # oh,oh
pair_coeff	 8  8    0.25000    4.02700  # sf,sf

# Bond Coeffs

bond_coeff	 1    1.53000  299.67000 -501.77000  679.81000  # c,c
bond_coeff	 2    1.50100  321.90210 -521.82080  572.16280  # c,cp
bond_coeff	 3    1.10100  345.00000 -691.89000  844.60000  # c,hc
bond_coeff	 4    1.41700  470.83610 -627.61790 1327.63450  # cp,cp
bond_coeff	 5    1.09820  372.82510 -803.45260  894.31730  # cp,hc
bond_coeff	 6    1.37680  428.87980 -738.23510 1114.96550  # cp,oc
bond_coeff	 7    1.37680  428.87980 -738.23510 1114.96550  # cp,oh
bond_coeff	 8    1.72000  239.80240    0.00000    0.00000  # cp,sf
bond_coeff	 9    0.96500  532.50620 -1282.90500 2004.76580  # ho,oh
bond_coeff	10    1.43080  743.76000    0.00000    0.00000  # o=,sf

# Angle Coeffs

angle_coeff	 1  112.67000   39.51600   -7.44300   -9.55830  # c,c,c
angle_coeff	 2  108.40000   43.95940   -8.39240   -9.33790  # c,c,cp
angle_coeff	 3  110.77000   41.45300  -10.60400    5.12900  # c,c,hc
angle_coeff	 4  120.05000   44.71480  -22.73520    0.00000  # c,cp,cp
angle_coeff	 5  111.00000   44.32340   -9.44540    0.00000  # cp,c,cp
angle_coeff	 6  118.90000   61.02260  -34.99310    0.00000  # cp,cp,cp
angle_coeff	 7  117.94000   35.15580  -12.46820    0.00000  # cp,cp,hc
angle_coeff	 8  123.42000   73.67810  -21.67870    0.00000  # cp,cp,oc
angle_coeff	 9  123.42000   73.67810  -21.67870    0.00000  # cp,cp,oh
angle_coeff	10  120.00000   60.00000    0.00000    0.00000  # cp,cp,sf
angle_coeff	11  109.50000   60.00000    0.00000    0.00000  # cp,oc,cp
angle_coeff	12  108.19000   53.12500   -8.50160    0.00000  # cp,oh,ho
angle_coeff	13  102.00000   58.00000    0.00000    0.00000  # cp,sf,cp
angle_coeff	14  113.10000   42.30000    0.00000    0.00000  # cp,sf,o=
angle_coeff	15  107.66000   39.64100  -12.92100   -2.43180  # hc,c,hc
angle_coeff	16  119.32900  135.00000    0.00000    0.00000  # o=,sf,o=

# BondBond Coeffs

angle_coeff	 1 bb    0.00000    1.53000    1.53000  # c,c,c
angle_coeff	 2 bb    0.00000    1.53000    1.50100  # c,c,cp
angle_coeff	 3 bb    3.38720    1.53000    1.10100  # c,c,hc
angle_coeff	 4 bb   12.06760    1.50100    1.41700  # c,cp,cp
angle_coeff	 5 bb    0.00000    1.50100    1.50100  # cp,c,cp
angle_coeff	 6 bb   68.28560    1.41700    1.41700  # cp,cp,cp
angle_coeff	 7 bb    1.07950    1.41700    1.09820  # cp,cp,hc
angle_coeff	 8 bb   48.47540    1.41700    1.37680  # cp,cp,oc
angle_coeff	 9 bb   48.47540    1.41700    1.37680  # cp,cp,oh
angle_coeff	10 bb    0.00000    1.41700    1.72000  # cp,cp,sf
angle_coeff	11 bb    0.00000    1.37680    1.37680  # cp,oc,cp
angle_coeff	12 bb   20.65770    1.37680    0.96500  # cp,oh,ho
angle_coeff	13 bb    0.00000    1.72000    1.72000  # cp,sf,cp
angle_coeff	14 bb    0.00000    1.72000    1.43080  # cp,sf,o=
angle_coeff	15 bb    5.33160    1.10100    1.10100  # hc,c,hc
angle_coeff	16 bb   40.00000    1.43080    1.43080  # o=,sf,o=

# BondAngle Coeffs

angle_coeff	 1 ba    8.01600    8.01600    1.53000    1.53000  # c,c,c
angle_coeff	 2 ba    0.00000    0.00000    1.53000    1.50100  # c,c,cp
angle_coeff	 3 ba   20.75400   11.42100    1.53000    1.10100  # c,c,hc
angle_coeff	 4 ba   47.05790   31.07710    1.50100    1.41700  # c,cp,cp
angle_coeff	 5 ba    0.00000    0.00000    1.50100    1.50100  # cp,c,cp
angle_coeff	 6 ba   28.87080   28.87080    1.41700    1.41700  # cp,cp,cp
angle_coeff	 7 ba   20.00330   24.21830    1.41700    1.09820  # cp,cp,hc
angle_coeff	 8 ba   58.47900  107.68060    1.41700    1.37680  # cp,cp,oc
angle_coeff	 9 ba   58.47900  107.68060    1.41700    1.37680  # cp,cp,oh
angle_coeff	10 ba    0.00000    0.00000    1.41700    1.72000  # cp,cp,sf
angle_coeff	11 ba    0.00000    0.00000    1.37680    1.37680  # cp,oc,cp
angle_coeff	12 ba   53.86140   23.92240    1.37680    0.96500  # cp,oh,ho
angle_coeff	13 ba    0.00000    0.00000    1.72000    1.72000  # cp,sf,cp
angle_coeff	14 ba    0.00000    0.00000    1.72000    1.43080  # cp,sf,o=
angle_coeff	15 ba   18.10300   18.10300    1.10100    1.10100  # hc,c,hc
angle_coeff	16 ba    0.00000    0.00000    1.43080    1.43080  # o=,sf,o=

# Dihedral Coeffs

dihedral_coeff	 1    0.00000    0.00000    0.03160    0.00000   -0.16810    0.00000  # c,c,c,hc
dihedral_coeff	 2   -0.28020    0.00000   -0.06780    0.00000   -0.01220    0.00000  # c,c,cp,cp
dihedral_coeff	 3    0.00000    0.00000    4.40720    0.00000    0.00000    0.00000  # c,cp,cp,cp
dihedral_coeff	 4    0.00000    0.00000    1.55900    0.00000    0.00000    0.00000  # c,cp,cp,hc
dihedral_coeff	 5   -0.02280    0.00000    0.02800    0.00000   -0.18630    0.00000  # cp,c,c,hc
dihedral_coeff	 6   -0.28020    0.00000   -0.06780    0.00000   -0.01220    0.00000  # cp,c,cp,cp
dihedral_coeff	 7    8.36670    0.00000    1.19320    0.00000    0.00000    0.00000  # cp,cp,cp,cp
dihedral_coeff	 8    0.00000    0.00000    3.96610    0.00000    0.00000    0.00000  # cp,cp,cp,hc
dihedral_coeff	 9    0.00000    0.00000    4.84980    0.00000    0.00000    0.00000  # cp,cp,cp,oc
dihedral_coeff	10    0.00000    0.00000    4.84980    0.00000    0.00000    0.00000  # cp,cp,cp,oh
dihedral_coeff	11    0.00000    0.00000    3.00000    0.00000    0.00000    0.00000  # cp,cp,cp,sf
dihedral_coeff	12    0.00000    0.00000    1.80000    0.00000    0.00000    0.00000  # cp,cp,oc,cp
dihedral_coeff	13   -0.69000    0.00000    0.50970    0.00000    0.00950    0.00000  # cp,cp,oh,ho
dihedral_coeff	14    0.00000    0.00000    1.50000    0.00000    0.00000    0.00000  # cp,cp,sf,cp
dihedral_coeff	15    0.00000    0.00000    1.50000    0.00000    0.00000    0.00000  # cp,cp,sf,o=
dihedral_coeff	16    0.00000    0.00000    1.87690    0.00000    0.00000    0.00000  # hc,cp,cp,hc
dihedral_coeff	17    0.00000    0.00000    1.72340    0.00000    0.00000    0.00000  # hc,cp,cp,oc
dihedral_coeff	18    0.00000    0.00000    1.72340    0.00000    0.00000    0.00000  # hc,cp,cp,oh
dihedral_coeff	19    0.00000    0.00000    3.00000    0.00000    0.00000    0.00000  # hc,cp,cp,sf

# MiddleBondTorsion Coeffs

dihedral_coeff	 1 mbt  -14.87900   -3.65810   -0.31380    1.53000  # c,c,c,hc
dihedral_coeff	 2 mbt    0.00000    0.00000    0.00000    1.50100  # c,c,cp,cp
dihedral_coeff	 3 mbt    0.00000    9.17920    0.00000    1.41700  # c,cp,cp,cp
dihedral_coeff	 4 mbt    0.00000    3.94210    0.00000    1.41700  # c,cp,cp,hc
dihedral_coeff	 5 mbt    0.00000    0.00000    0.00000    1.53000  # cp,c,c,hc
dihedral_coeff	 6 mbt    0.00000    0.00000    0.00000    1.50100  # cp,c,cp,cp
dihedral_coeff	 7 mbt   27.59890   -2.31200    0.00000    1.41700  # cp,cp,cp,cp
dihedral_coeff	 8 mbt    0.00000   -1.15210    0.00000    1.41700  # cp,cp,cp,hc
dihedral_coeff	 9 mbt    0.00000    4.82550    0.00000    1.41700  # cp,cp,cp,oc
dihedral_coeff	10 mbt    0.00000    4.82550    0.00000    1.41700  # cp,cp,cp,oh
dihedral_coeff	11 mbt    0.00000    0.00000    0.00000    1.41700  # cp,cp,cp,sf
dihedral_coeff	12 mbt    0.00000    0.00000    0.00000    1.37680  # cp,cp,oc,cp
dihedral_coeff	13 mbt    1.15800    3.26970    3.51320    1.37680  # cp,cp,oh,ho
dihedral_coeff	14 mbt    0.00000    0.00000    0.00000    1.72000  # cp,cp,sf,cp
dihedral_coeff	15 mbt    0.00000    0.00000    0.00000    1.72000  # cp,cp,sf,o=
dihedral_coeff	16 mbt    0.00000    4.82280    0.00000    1.41700  # hc,cp,cp,hc
dihedral_coeff	17 mbt    0.00000    5.54320    0.00000    1.41700  # hc,cp,cp,oc
dihedral_coeff	18 mbt    0.00000    5.54320    0.00000    1.41700  # hc,cp,cp,oh
dihedral_coeff	19 mbt    0.00000    0.00000    0.00000    1.41700  # hc,cp,cp,sf

# EndBondTorsion Coeffs

dihedral_coeff	 1 ebt    0.24860    0.24220   -0.09250    0.08140    0.05910    0.22190    1.53000    1.10100  # c,c,c,hc
dihedral_coeff	 2 ebt    0.00000    0.00000    0.00000    0.00000    0.00000    0.00000    1.53000    1.41700  # c,c,cp,cp
dihedral_coeff	 3 ebt    0.00000    0.24210    0.00000    0.00000   -0.69180    0.00000    1.50100    1.41700  # c,cp,cp,cp
dihedral_coeff	 4 ebt    0.00000   -1.79700    0.00000    0.00000   -0.48790    0.00000    1.50100    1.09820  # c,cp,cp,hc
dihedral_coeff	 5 ebt    0.00000    0.00000    0.00000    0.00000    0.00000    0.00000    1.50100    1.10100  # cp,c,c,hc
dihedral_coeff	 6 ebt    0.00000    0.00000    0.00000    0.00000    0.00000    0.00000    1.50100    1.41700  # cp,c,cp,cp
dihedral_coeff	 7 ebt   -0.11850    6.32040    0.00000   -0.11850    6.32040    0.00000    1.41700    1.41700  # cp,cp,cp,cp
dihedral_coeff	 8 ebt    0.00000   -6.89580    0.00000    0.00000   -0.46690    0.00000    1.41700    1.09820  # cp,cp,cp,hc
dihedral_coeff	 9 ebt    0.00000    0.26550    0.00000    0.00000    4.89050    0.00000    1.41700    1.37680  # cp,cp,cp,oc
dihedral_coeff	10 ebt    0.00000    0.26550    0.00000    0.00000    4.89050    0.00000    1.41700    1.37680  # cp,cp,cp,oh
dihedral_coeff	11 ebt    0.00000    0.00000    0.00000    0.00000    0.00000    0.00000    1.41700    1.72000  # cp,cp,cp,sf
dihedral_coeff	12 ebt    0.00000    0.00000    0.00000    0.00000    0.00000    0.00000    1.41700    1.37680  # cp,cp,oc,cp
dihedral_coeff	13 ebt    0.90000   -1.34560    1.19000    3.41320    0.58730   -0.13230    1.41700    0.96500  # cp,cp,oh,ho
dihedral_coeff	14 ebt    0.00000    0.00000    0.00000    0.00000    0.00000    0.00000    1.41700    1.72000  # cp,cp,sf,cp
dihedral_coeff	15 ebt    0.00000    0.00000    0.00000    0.00000    0.00000    0.00000    1.41700    1.43080  # cp,cp,sf,o=
dihedral_coeff	16 ebt    0.00000   -0.68900    0.00000    0.00000   -0.68900    0.00000    1.09820    1.09820  # hc,cp,cp,hc
dihedral_coeff	17 ebt    0.00000   -1.58670    0.00000    0.00000    4.26410    0.00000    1.09820    1.37680  # hc,cp,cp,oc
dihedral_coeff	18 ebt    0.00000   -1.58670    0.00000    0.00000    4.26410    0.00000    1.09820    1.37680  # hc,cp,cp,oh
dihedral_coeff	19 ebt    0.00000    0.00000    0.00000    0.00000    0.00000    0.00000    1.09820    1.72000  # hc,cp,cp,sf

# AngleTorsion Coeffs

dihedral_coeff	 1 at   -0.24540    0.00000   -0.11360    0.31130    0.45160   -0.19880  112.67000  110.77000  # c,c,c,hc
dihedral_coeff	 2 at    0.00000    0.00000    0.00000    0.00000    0.00000    0.00000  108.40000  120.05000  # c,c,cp,cp
dihedral_coeff	 3 at    0.00000   -4.46830    0.00000    0.00000    3.89870    0.00000  120.05000  118.90000  # c,cp,cp,cp
dihedral_coeff	 4 at    0.00000   -0.12420    0.00000    0.00000    3.46010    0.00000  120.05000  117.94000  # c,cp,cp,hc
dihedral_coeff	 5 at    0.00000    0.00000    0.00000    0.00000    0.00000    0.00000  108.40000  110.77000  # cp,c,c,hc
dihedral_coeff	 6 at    0.00000    0.00000    0.00000    0.00000    0.00000    0.00000  111.00000  120.05000  # cp,c,cp,cp
dihedral_coeff	 7 at    1.97670    1.02390    0.00000    1.97670    1.02390    0.00000  118.90000  118.90000  # cp,cp,cp,cp
dihedral_coeff	 8 at    0.00000    2.50140    0.00000    0.00000    2.71470    0.00000  118.90000  117.94000  # cp,cp,cp,hc
dihedral_coeff	 9 at    0.00000   10.01550    0.00000    0.00000    1.74040    0.00000  118.90000  123.42000  # cp,cp,cp,oc
dihedral_coeff	10 at    0.00000   10.01550    0.00000    0.00000    1.74040    0.00000  118.90000  123.42000  # cp,cp,cp,oh
dihedral_coeff	11 at    0.00000    0.00000    0.00000    0.00000    0.00000    0.00000  118.90000  120.00000  # cp,cp,cp,sf
dihedral_coeff	12 at    0.00000    0.00000    0.00000    0.00000    0.00000    0.00000  123.42000  109.50000  # cp,cp,oc,cp
dihedral_coeff	13 at   -5.13600   -1.01220    0.00000    4.68520    0.02300   -0.59800  123.42000  108.19000  # cp,cp,oh,ho
dihedral_coeff	14 at    0.00000    0.00000    0.00000    0.00000    0.00000    0.00000  120.00000  102.00000  # cp,cp,sf,cp
dihedral_coeff	15 at    0.00000    0.00000    0.00000    0.00000    0.00000    0.00000  120.00000  113.10000  # cp,cp,sf,o=
dihedral_coeff	16 at    0.00000    2.45010    0.00000    0.00000    2.45010    0.00000  117.94000  117.94000  # hc,cp,cp,hc
dihedral_coeff	17 at    0.00000    1.87290    0.00000    0.00000    2.57060    0.00000  117.94000  123.42000  # hc,cp,cp,oc
dihedral_coeff	18 at    0.00000    1.87290    0.00000    0.00000    2.57060    0.00000  117.94000  123.42000  # hc,cp,cp,oh
dihedral_coeff	19 at    0.00000    0.00000    0.00000    0.00000    0.00000    0.00000  117.94000  120.00000  # hc,cp,cp,sf

# AngleAngleTorsion Coeffs

dihedral_coeff	 1 aat  -16.16400  112.67000  110.77000  # c,c,c,hc
dihedral_coeff	 2 aat    0.00000  108.40000  120.05000  # c,c,cp,cp
dihedral_coeff	 3 aat  -14.40970  120.05000  118.90000  # c,cp,cp,cp
dihedral_coeff	 4 aat    4.44440  120.05000  117.94000  # c,cp,cp,hc
dihedral_coeff	 5 aat    0.00000  108.40000  110.77000  # cp,c,c,hc
dihedral_coeff	 6 aat    0.00000  111.00000  120.05000  # cp,c,cp,cp
dihedral_coeff	 7 aat    0.00000  118.90000  118.90000  # cp,cp,cp,cp
dihedral_coeff	 8 aat   -4.81410  118.90000  117.94000  # cp,cp,cp,hc
dihedral_coeff	 9 aat  -21.02470  118.90000  123.42000  # cp,cp,cp,oc
dihedral_coeff	10 aat  -21.02470  118.90000  123.42000  # cp,cp,cp,oh
dihedral_coeff	11 aat    0.00000  118.90000  120.00000  # cp,cp,cp,sf
dihedral_coeff	12 aat    0.00000  123.42000  109.50000  # cp,cp,oc,cp
dihedral_coeff	13 aat   -4.60720  123.42000  108.19000  # cp,cp,oh,ho
dihedral_coeff	14 aat    0.00000  120.00000  102.00000  # cp,cp,sf,cp
dihedral_coeff	15 aat    0.00000  120.00000  113.10000  # cp,cp,sf,o=
dihedral_coeff	16 aat    0.35980  117.94000  117.94000  # hc,cp,cp,hc
dihedral_coeff	17 aat    4.22960  117.94000  123.42000  # hc,cp,cp,oc
dihedral_coeff	18 aat    4.22960  117.94000  123.42000  # hc,cp,cp,oh
dihedral_coeff	19 aat    0.00000  117.94000  120.00000  # hc,cp,cp,sf

# BondBond13 Coeffs

dihedral_coeff	 1 bb13    0.00000    1.53000    1.10100  # c,c,c,hc
dihedral_coeff	 2 bb13    0.00000    1.53000    1.41700  # c,c,cp,cp
dihedral_coeff	 3 bb13    2.50850    1.50100    1.41700  # c,cp,cp,cp
dihedral_coeff	 4 bb13    0.87430    1.50100    1.09820  # c,cp,cp,hc
dihedral_coeff	 5 bb13    0.00000    1.50100    1.10100  # cp,c,c,hc
dihedral_coeff	 6 bb13    0.00000    1.50100    1.41700  # cp,c,cp,cp
dihedral_coeff	 7 bb13   53.00000    1.41700    1.41700  # cp,cp,cp,cp
dihedral_coeff	 8 bb13   -6.27410    1.41700    1.09820  # cp,cp,cp,hc
dihedral_coeff	 9 bb13   -2.24360    1.41700    1.37680  # cp,cp,cp,oc
dihedral_coeff	10 bb13   -2.24360    1.41700    1.37680  # cp,cp,cp,oh
dihedral_coeff	11 bb13    0.00000    1.41700    1.72000  # cp,cp,cp,sf
dihedral_coeff	12 bb13    0.00000    1.41700    1.37680  # cp,cp,oc,cp
dihedral_coeff	13 bb13    1.15900    1.41700    0.96500  # cp,cp,oh,ho
dihedral_coeff	14 bb13    0.00000    1.41700    1.72000  # cp,cp,sf,cp
dihedral_coeff	15 bb13    0.00000    1.41700    1.43080  # cp,cp,sf,o=
dihedral_coeff	16 bb13   -1.70770    1.09820    1.09820  # hc,cp,cp,hc
dihedral_coeff	17 bb13    2.05170    1.09820    1.37680  # hc,cp,cp,oc
dihedral_coeff	18 bb13    2.05170    1.09820    1.37680  # hc,cp,cp,oh
dihedral_coeff	19 bb13    0.00000    1.09820    1.72000  # hc,cp,cp,sf

# Improper Coeffs

improper_coeff	 1    0.00000    0.00000  # c,c,c,cp
improper_coeff	 2    0.00000    0.00000  # c,c,cp,cp
improper_coeff	 3    0.00000    0.00000  # c,c,hc,hc
improper_coeff	 4    0.00000    0.00000  # c,hc,hc,hc
improper_coeff	 5    7.81530    0.00000  # cp,c,cp,cp
improper_coeff	 6    4.89120    0.00000  # cp,cp,cp,hc
improper_coeff	 7   13.04210    0.00000  # cp,cp,cp,oc
improper_coeff	 8   13.04210    0.00000  # cp,cp,cp,oh
improper_coeff	 9    0.00000    0.00000  # cp,cp,cp,sf
improper_coeff	10    0.00000    0.00000  # sf,cp,cp,o=
improper_coeff	11    0.00000    0.00000  # sf,cp,o=,o=

# AngleAngle Coeffs

improper_coeff	 1 aa    0.00000    0.00000    0.00000  112.67000  108.40000  108.40000  # c,c,c,cp
improper_coeff	 2 aa    0.00000    0.00000    0.00000  108.40000  108.40000  111.00000  # c,c,cp,cp
improper_coeff	 3 aa    0.27380   -0.48250    0.27380  110.77000  110.77000  107.66000  # c,c,hc,hc
improper_coeff	 4 aa   -0.31570   -0.31570   -0.31570  107.66000  107.66000  107.66000  # c,hc,hc,hc
improper_coeff	 5 aa    0.00000    0.00000    0.00000  120.05000  120.05000  118.90000  # cp,c,cp,cp
improper_coeff	 6 aa    0.00000    0.00000    0.00000  118.90000  117.94000  117.94000  # cp,cp,cp,hc
improper_coeff	 7 aa    0.00000    0.00000    0.00000  118.90000  123.42000  123.42000  # cp,cp,cp,oc
improper_coeff	 8 aa    0.00000    0.00000    0.00000  118.90000  123.42000  123.42000  # cp,cp,cp,oh
improper_coeff	 9 aa    0.00000    0.00000    0.00000  118.90000  120.00000  120.00000  # cp,cp,cp,sf
improper_coeff	10 aa    0.00000    0.00000    0.00000  102.00000  113.10000  113.10000  # sf,cp,cp,o=
improper_coeff	11 aa    0.00000    0.00000    0.00000  113.10000  113.10000  119.32900  # sf,cp,o=,o=


# --- Thermo Output ---
thermo_style custom step time temp press enthalpy etotal ke pe ebond eangle edihed eimp evdwl ecoul elong etail vol lx ly lz density pxx pyy pzz
thermo_modify flush yes
thermo 1000

# --- Trajectory ---
dump dump_npt all custom 1000 npt_prod300.dump id type mol x y z ix iy iz vx vy vz

# --- Restart Checkpointing ---
# No restart checkpointing

# --- Initial Velocities (optional) ---
# Velocities read from data file

# --- SHAKE Constraints ---
# SHAKE disabled

# --- NPT Thermostat + Barostat (Nose-Hoover) ---
# T_damp = 100.0 fs  (heat bath coupling)
# P_damp = 1000.0 fs  (pressure bath coupling, ~10x T_damp typical)
# Ramp: T=300.0->300.0K  P=1.0->1.0atm
timestep 1.0
fix npt_fix all npt temp 300.0 300.0 100.0 iso 1.0 1.0 1000.0

run 2000000
PPPM Kokkos initialization ...
  using 12-bit tables for long-range coulomb
  G vector (1/distance) = 0.30191644
  grid = 36 36 36
  stencil order = 5
  estimated absolute RMS force accuracy = 0.00029042739
  estimated relative force accuracy = 8.7461345e-07
  using double precision cuFFT
  3d grid and FFT values/proc = 79507 46656
Generated 28 of 28 mixed pair_coeff terms from sixthpower/sixthpower mixing rule
Neighbor list info ...
  update: every = 1 steps, delay = 0 steps, check = yes
  max neighbors/atom: 4000, page size: 100000
  master list distance cutoff = 11.5
  ghost atom cutoff = 11.5
  binsize = 11.5, bins = 5 5 5
  1 neighbor lists, perpetual/occasional/extra = 1 0 0
  (1) pair lj/class2/coul/long/kk, perpetual
      attributes: full, newton off, kokkos_device
      pair build: full/bin/kk/device
      stencil: full/bin/3d
      bin: kk/device
Per MPI rank memory allocation (min/avg/max) = 63.6 | 63.6 | 63.6 Mbytes
   Step          Time           Temp          Press         Enthalpy        TotEng         KinEng         PotEng         E_bond        E_angle        E_dihed        E_impro         E_vdwl         E_coul         E_long         E_tail         Volume           Lx             Ly             Lz          Density          Pxx            Pyy            Pzz      
         0   0              304.27317      27.623862      24435.065      24384.919      9812.6224      14572.297      4974.1829      5031.3928      3804.5395      387.41169     -562.25636      8131.6108     -7194.5848     -878.53499      124473.29      49.929673      49.929673      49.929673      1.1810067     -1298.1743      1426.464      -45.418147    
      1000   1000           299.55875     -754.56031      22828.952      24199.226      9660.5852      14538.641      4900.5433      5018.5641      3814.5193      386.17878     -516.44062      8129.2745     -7193.9981     -878.20844      124519.57      49.935861      49.935861      49.935861      1.1805677     -1411.1782     -214.93629     -637.56645    
      2000   2000           299.09193      266.5697       24662.16       24180.865      9645.5303      14535.334      5119.2085      4973.3315      3651.2474      369.18952     -510.95492      8127.6929     -7194.3805     -883.30334      123801.34      49.839666      49.839666      49.839666      1.1874167      426.31168      642.711       -269.31358    
      3000   3000           301.49412      1084.3123      26281.445      24315.56       9722.9997      14592.561      5054.1899      5064.8977      3683.5732      373.63974     -527.70833      8134.721      -7190.7525     -879.64517      124316.19      49.908659      49.908659      49.908659      1.1824991      807.20448      724.82554      1720.9069    
      4000   4000           299.85102      250.72725      24586.99       24134.78       9670.0105      14464.769      4871.7621      5073.6952      3784.3025      382.14518     -606.34584      8150.6879     -7191.478      -884.24314      123669.76      49.822002      49.822002      49.822002      1.1886801      154.83007      729.79292     -132.44125    
      5000   5000           300.14854     -804.56496      22761.146      24217.675      9679.6056      14538.069      4877.1416      5153.305       3753.9644      382.15981     -582.64052      8145.0205     -7190.8818     -880.9541       124131.48      49.883929      49.883929      49.883929      1.1842587     -329.18819     -1471.5121     -612.99463    
      6000   6000           300.29043     -769.83908      22921.517      24315.86       9684.1814      14631.679      4925.2586      5052.0367      3853.3371      382.75888     -535.5381       8144.5899     -7190.7643     -880.52415      124192.1       49.892047      49.892047      49.892047      1.1836807     -1210.99       -357.42078     -741.10643    
      7000   7000           300.32048     -873.94875      22552.661      24138.494      9685.1504      14453.343      4801.0503      4915.1791      3958.5266      386.9527      -559.81214      8143.555      -7192.1082     -878.90046      124421.53      49.922752      49.922752      49.922752      1.181498      -974.4167      -145.65289     -1501.7766    
      8000   8000           298.74441      62.130805      24483.19       24371.087      9634.3231      14736.764      5006.6975      5058.32        3808.4029      387.37228     -489.48888      8155.7046     -7190.2443     -883.89738      123718.14      49.828498      49.828498      49.828498      1.1882153     -563.39213      714.04172      35.74283     
      9000   9000           302.85513      215.36587      24576.217      24186.066      9766.8914      14419.174      4863.6         5050.1662      3775.6714      371.79099     -588.8398       8143.618      -7196.8326     -880.34984      124216.69      49.895339      49.895339      49.895339      1.1834464     -10.779928      390.95312      265.92442    
     10000   10000          303.08122      536.71109      25266.863      24291.381      9774.1826      14517.199      4992.7153      4944.7518      3748.5804      385.90728     -513.95399      8149.9063     -7190.7084     -877.47055      124624.29      49.949855      49.949855      49.949855      1.1795758      1424.6907     -362.52339      547.96596    
     11000   11000          303.48829      1105.3265      26410.875      24409.848      9787.3104      14622.538      5004.6144      5040.8307      3696.3323      385.68551     -472.8792       8154.1025     -7186.1486     -880.94509      124132.75      49.884099      49.884099      49.884099      1.1842466      1681.4154      491.32074      1143.2435    
     12000   12000          297.58143      266.12871      24584.612      24101.347      9596.8178      14504.529      4843.8109      5050.4861      3784.7346      393.63099     -525.14273      8147.6492     -7190.6403     -878.24735      124514.06      49.935123      49.935123      49.935123      1.18062        633.41408      57.800637      107.17141    
     13000   13000          302.67672     -519.84455      23331.961      24276.384      9761.1377      14515.246      4964.1675      5003.8884      3768.0355      360.03        -544.39047      8150.8701     -7187.3548     -877.84505      124571.12      49.94275       49.94275       49.94275       1.1800792     -1445.7341     -252.1843       138.38478    
     14000   14000          297.95828     -919.89459      22310.615      23987.73       9608.9708      14378.759      4895.0949      4973.9721      3721.2741      367.12246     -543.41903      8151.343      -7186.6284     -874.75474      125011.2       50.001493      50.001493      50.001493      1.1759249     -524.12561     -1468.9941     -766.56401    
     15000   15000          301.83381     -222.28081      23804.085      24208.416      9733.9545      14474.462      4828.7163      4984.4549      3839.4573      380.30297     -512.91384      8144.8091     -7190.3653     -876.75013      124726.69      49.963532      49.963532      49.963532      1.1786073     -1013.0653      949.18345     -602.9606     
     16000   16000          296.8461      -692.2434       22925.919      24180.052      9573.1039      14606.948      4990.5882      5063.2664      3793.9965      394.9948      -589.03456      8145.2075     -7192.0707     -880.2914       124224.93      49.896443      49.896443      49.896443      1.1833678     -621.61317     -760.69559     -694.42146    
     17000   17000          295.78777     -331.28155      23469.66       24071.351      9538.9734      14532.377      4997.7219      5021.3556      3745.2668      387.06047     -587.99236      8155.4507     -7186.4861     -878.08237      124537.45      49.938251      49.938251      49.938251      1.1803982      255.95142     -513.02595     -736.77012    
     18000   18000          298.68284     -496.16497      23353.923      24253.571      9632.3375      14621.233      4879.282       5102.2042      3840.0895      401.25972     -557.54722      8148.7483     -7192.8034     -879.55828      124328.48      49.910303      49.910303      49.910303      1.1823823     -341.6073      -1607.1777      460.29008    
     19000   19000          304.26637      217.38989      24795.351      24402.835      9812.4031      14590.432      4933.2801      5134.9583      3787.7185      379.31247     -586.31978      8133.1051     -7191.623      -883.26896      123806.16      49.840312      49.840312      49.840312      1.1873705     -577.15462      601.38349      627.9408     
     20000   20000          299.758       -769.39681      22811.93       24199.044      9667.0107      14532.033      4900.8134      5034.6336      3834.906       375.55482     -566.73462      8144.0113     -7191.1517     -884.60497      123619.18      49.815209      49.815209      49.815209      1.1891665     -1226.5177     -660.95051     -420.72224    
     21000   21000          300.32882     -409.03053      23646.832      24387.503      9685.4193      14702.084      4917.6942      5206.2129      3758.2378      389.45206     -516.34294      8140.5138     -7193.6839     -880.72708      124163.48      49.888214      49.888214      49.888214      1.1839535      417.21165     -771.27518     -873.02807    
     22000   22000          302.38095     -711.92377      22982.227      24271.939      9751.5993      14520.34       4942.3797      5064.8041      3695.3467      369.6788      -493.13708      8133.8346     -7192.5672     -880.3433       124217.61      49.895463      49.895463      49.895463      1.1834376     -657.53864     -960.50415     -517.72852    
     23000   23000          298.60556     -340.75848      23476.121      24092.938      9629.8454      14463.093      4958.491       5073.4775      3713.5351      376.62666     -619.64334      8151.3516     -7190.7459     -881.05197      124117.7       49.882082      49.882082      49.882082      1.1843902     -1233.4939      431.04473     -219.82629    
     24000   24000          299.45197      54.277309      24267.076      24169.029      9657.1416      14511.887      4928.0151      4984.2975      3790.2645      389.74212     -539.66354      8148.7889     -7189.5573     -882.86262      123863.15      49.847957      49.847957      49.847957      1.1868243     -141.30494     -528.10059      832.23745    
     25000   25000          301.23251      540.75561      25363.492      24384.177      9714.563       14669.614      4893.3956      5206.5834      3736.1993      385.55282     -503.83964      8140.7476     -7189.0251     -880.62236      124178.25      49.890192      49.890192      49.890192      1.1838127      1024.0419     -209.60638      807.8313     
     26000   26000          300.4883      -156.94247      23908.805      24193.215      9690.5624      14502.653      4978.2946      5035.6168      3695.7448      371.48932     -536.14147      8148.5042     -7190.8557     -880.04905      124259.14      49.901023      49.901023      49.901023      1.183042      -1456.5047      793.68602      191.99131    
     27000   27000          301.11912      112.5973       24446.481      24242.551      9710.906       14531.645      4967.9711      5042.9863      3757.2047      386.87973     -578.92695      8145.239      -7189.7089     -880.55921      124187.15      49.891384      49.891384      49.891384      1.1837278      112.32979      519.55979     -294.09766    
     28000   28000          298.32767     -219.68342      23691.836      24089.728      9620.8834      14468.845      4903.2307      5106.7746      3716.9057      380.24023     -596.43856      8148.0426     -7189.9108     -880.52766      124191.6       49.89198       49.89198       49.89198       1.1836854     -664.03765     -367.66743      372.65481    
     29000   29000          299.4766       288.63654      24793.212      24271.784      9657.9358      14613.848      4980.871       5108.5232      3764.8446      384.14559     -571.2785       8138.7723     -7192.0302     -882.81182      123870.27      49.848913      49.848913      49.848913      1.186756       961.222       -135.63452      40.322127    
     30000   30000          297.39961      828.54884      25741.129      24239.316      9590.9542      14648.362      4936.6439      5069.3156      3786.92        378.58246     -474.18035      8144.4302     -7193.3496     -879.86006      124285.83      49.904596      49.904596      49.904596      1.182788       1263.5524      814.49791      407.59619    
     31000   31000          298.97537      162.48237      24411.778      24117.097      9641.7716      14475.325      4807.5418      5052.9713      3780.7841      378.81314     -490.68575      8137.6123     -7191.7115     -879.35792      124356.8       49.914093      49.914093      49.914093      1.1821129      953.18235     -509.85242      44.117191    
     32000   32000          302.31257     -876.38099      22776.187      24373.505      9749.3941      14624.111      4990.6485      4992.6504      3842.1066      390.6899      -549.47316      8151.3641     -7193.8755     -875.00922      124974.84      49.996646      49.996646      49.996646      1.176267      -668.71567     -349.44827     -1610.979     
     33000   33000          297.43261     -247.27805      23583.796      24031.682      9592.0183      14439.664      4926.9808      4993.9814      3761.0471      395.67353     -589.79641      8143.4194     -7191.6421     -880.50042      124195.44      49.892495      49.892495      49.892495      1.1836488      486.23964     -189.15273     -1038.9211    
     34000   34000          303.48427      717.5516       25669.597      24373.46       9787.1807      14586.279      4947.284       5035.1592      3798.302       382.68659     -524.10042      8140.9484     -7194.0008     -882.90358      123857.4       49.847186      49.847186      49.847186      1.1868793      417.79899      792.07642      942.77939    
     35000   35000          296.65451      685.26142      25381.172      24140.116      9566.9252      14573.191      4884.3152      5067.4027      3795.2062      385.71858     -503.27867      8137.2636     -7193.4365     -880.59503      124182.1       49.890708      49.890708      49.890708      1.183776      -570.6905       1466.4272      1160.0476    
     36000   36000          301.12974     -1065.6127      22459.621      24399.391      9711.2486      14688.142      4894.3215      5199.4333      3819.6975      403.05388     -569.97449      8134.2453     -7192.6349     -876.11365      124817.3       49.975628      49.975628      49.975628      1.1777517     -1043.9474     -1094.5934     -1058.2974    
     37000   37000          302.37782      141.53379      24562.385      24306.252      9751.4984      14554.754      4902.3228      5077.8898      3753.1313      393.46587     -523.69337      8143.2215     -7191.5843     -881.26263      124088.03      49.878107      49.878107      49.878107      1.1846734      631.13512     -707.60123      501.0675     
     38000   38000          299.37329     -67.824144      24153.176      24276.207      9654.6041      14621.603      4947.9381      5133.1767      3756.1708      378.04321     -558.29081      8154.4867     -7189.9218     -879.18459      124381.32      49.917373      49.917373      49.917373      1.1818799     -462.94373      448.12809     -188.65679    
     39000   39000          298.09918      187.83138      24568.913      24228.029      9613.5149      14614.515      5016.4505      5000.3434      3765.7717      374.33534     -487.79322      8138.7733     -7193.3665     -878.76626      124440.53      49.925293      49.925293      49.925293      1.1813176      355.04921      182.71976      25.725181    
     40000   40000          304.70286     -851.76281      22824.751      24364.147      9826.4794      14537.667      4911.9211      5028.8058      3886.2987      383.97258     -632.77319      8151.4266     -7191.9844     -882.42865      123924.06      49.856128      49.856128      49.856128      1.1862409     -716.04184     -1031.9262     -807.32034    
     41000   41000          298.55062     -65.012539      23965.819      24083.389      9628.0737      14455.315      4992.771       5007.2417      3718.9489      378.27327     -590.95845      8141.2317     -7192.1929     -881.8842       124000.57      49.866385      49.866385      49.866385      1.185509       426.71885      1.1198579     -622.87632    
     42000   42000          299.50306      758.20049      25632.879      24260.728      9658.7893      14601.939      5003.69        5083.0154      3708.5213      385.28387     -540.91743      8152.7552     -7190.4096     -881.2382       124091.47      49.878567      49.878567      49.878567      1.1846406      515.94518     -232.1475       1990.8038    
     43000   43000          299.7273      -577.34317      23032.155      24078.149      9666.0209      14412.128      4893.1769      4948.0011      3797.5747      392.71527     -556.46641      8130.4496     -7193.323      -880.26975      124227.99      49.896852      49.896852      49.896852      1.1833387     -1065.9977     -1391.3557      725.32389    
     44000   44000          298.12709     -667.17317      22957.996      24170.564      9614.4151      14556.148      5014.5262      4985.2887      3750.361       360.61188     -505.77023      8141.8857     -7190.7549     -877.4931       124621.08      49.949427      49.949427      49.949427      1.1796061     -1703.1095      388.37161     -686.78162    
     45000   45000          300.977       -74.62642       24113.861      24249.26       9706.3227      14542.938      5040.2779      5097.727       3628.0839      372.01805     -541.42066      8135.9149     -7189.6636     -878.99867      124407.63      49.920892      49.920892      49.920892      1.18163       -81.916379     -146.62619      4.6633121    
     46000   46000          299.80286     -1062.7644      22343.666      24274.344      9668.4575      14605.886      4935.4369      5049.6565      3846.3077      375.12322     -537.29694      8128.1097     -7191.4508     -877.88628      124565.27      49.941968      49.941968      49.941968      1.1801346     -1632.2297      298.34813     -1854.4116    
     47000   47000          299.62765      488.08864      24941.849      24057.636      9662.8072      14394.828      4908.1541      5017.0012      3714.9548      373.46878     -577.77434      8150.407      -7191.3831     -880.34441      124217.45      49.895442      49.895442      49.895442      1.1834391      220.52786      281.30297      962.43507    
     48000   48000          300.74236     -867.33068      22791.459      24378.321      9698.7558      14679.565      4964.865       5072.4197      3778.8882      388.79461     -466.95783      8130.7483     -7189.1925     -871.67884      125452.33      50.060238      50.060238      50.060238      1.17179       -912.55284     -495.5221      -1193.9171    
     49000   49000          297.20993     -201.459        23687.134      24051.939      9584.837       14467.102      4780.7598      5067.3379      3810.6553      376.61639     -526.15939      8148.9266     -7191.0343     -880.7182       124164.73      49.888382      49.888382      49.888382      1.1839415     -669.40556     -48.381102      113.40966    
     50000   50000          301.66284     -986.41054      22424.936      24210.524      9728.4407      14482.083      4854.2497      5053.8301      3842.839       369.30048     -580.38729      8133.3446     -7191.0939     -881.024        124121.64      49.882609      49.882609      49.882609      1.1843526     -1086.5231     -1078.8439     -793.86456    
     51000   51000          300.14046     -1060.9611      22218.147      24141.324      9679.3448      14461.979      4904.2885      5009.7868      3776.8455      378.25059     -559.12845      8142.8861     -7190.9499     -879.81493      124292.21      49.905449      49.905449      49.905449      1.1827273     -731.71825     -1647.2943     -803.8707     
     52000   52000          299.76075     -589.72357      23320.359      24389.937      9667.0996      14722.837      4966.1941      5136.7349      3797.6438      378.9989      -494.74701      8130.7447     -7192.7323     -879.32082      124362.05      49.914795      49.914795      49.914795      1.1820631     -1334.9029     -729.64644      295.37861    
     53000   53000          301.51477     -918.27103      22459.274      24114.358      9723.6657      14390.693      4833.3657      4961.9571      3834.0009      370.66573     -532.85718      8120.7413     -7197.1811     -884.83404      123587.18      49.810909      49.810909      49.810909      1.1894744     -1542.4693     -642.734       -569.6098     
     54000   54000          298.80384     -117.33658      23849.83       24062.825      9636.2398      14426.585      4939.2566      5082.3931      3672.9568      369.73069     -582.96892      8139.2843     -7194.0675     -878.5666       124468.81      49.929074      49.929074      49.929074      1.1810492     -411.16937      782.43508     -723.27546    
     55000   55000          297.52621      1023.2019      26010.647      24155.479      9595.0371      14560.442      4890.5304      5059.8868      3726.5895      389.67397     -452.94255      8136.7171     -7190.013      -879.60846      124321.38      49.909354      49.909354      49.909354      1.1824497      1347.6034      642.61942      1079.3829    
     56000   56000          302.57706     -15.49539       24369.436      24397.612      9757.9238      14639.688      4895.9738      5028.5959      3854.2826      378.28716     -477.42288      8152.2517     -7192.2798     -877.06571      124681.81      49.957539      49.957539      49.957539      1.1790315      406.20855     -639.6676       186.97288    
     57000   57000          295.81946     -278.9658       23661.649      24166.774      9539.9954      14626.779      4932.0144      5077.0841      3806.3905      384.58346     -522.73518      8141.5027     -7192.0614     -880.77107      124157.28      49.887384      49.887384      49.887384      1.1840126      216.94659      271.12053     -1324.9645    
     58000   58000          296.54697     -430.82186      23227.193      24010.057      9563.4571      14446.6        4786.5447      5058.249       3789.2048      372.00618     -518.19355      8148.1375     -7189.3487     -877.65262      124598.43      49.9464        49.9464        49.9464        1.1798205      16.48976      -1016.0476     -292.90778    
     59000   59000          299.6921       242.2007       24650.466      24210.795      9664.8857      14545.909      4861.9171      5017.1538      3828.482       359.15026     -475.70875      8146.4016     -7191.4868     -878.53427      124473.39      49.929687      49.929687      49.929687      1.1810057      1104.1441     -134.23667     -243.30538    
     60000   60000          295.80136     -769.74974      22749.65       24149.114      9539.4115      14609.703      4885.8699      5083.4482      3794.0341      390.29044     -497.49979      8141.1889     -7187.6291     -877.20043      124662.66      49.954981      49.954981      49.954981      1.1792126     -1216.6612     -261.42881     -831.1592     
     61000   61000          296.38236     -788.48836      22712.693      24143.119      9558.1486      14584.97       4932.4847      5048.5392      3835.7549      361.97861     -545.09595      8141.5782     -7190.2692     -879.10529      124392.54      49.918874      49.918874      49.918874      1.1817733     -255.84465     -855.05078     -1254.5697    
     62000   62000          299.69309     -1821.1876      20945.547      24249.595      9664.9176      14584.678      5008.1977      4990.8599      3846.671       384.53171     -599.36861      8140.8327     -7187.0466     -879.06175      124398.7       49.919698      49.919698      49.919698      1.1817148     -1728.1713     -2250.1428     -1485.2485    
     63000   63000          299.61318      491.91508      24985.482      24095.321      9662.3406      14432.98       4866.6265      4977.9442      3782.9179      375.5432      -534.82046      8154.7808     -7190.0117     -881.31789      124080.25      49.877064      49.877064      49.877064      1.1847477     -186.75366      243.53686      1418.962     
     64000   64000          298.1426      -562.47249      23150.89       24171.682      9614.9151      14556.766      4871.5289      5047.6953      3869.9975      377.79295     -559.69697      8144.181      -7194.7322     -878.77042      124439.94      49.925214      49.925214      49.925214      1.1813232      305.36018     -1107.6894     -885.08822    
     65000   65000          296.56222      258.36875      24455.816      23991.879      9563.9489      14427.93       4891.4046      4934.005       3824.03        387.61677     -566.77397      8146.9944     -7189.3463     -888.16176      123124.13      49.748622      49.748622      49.748622      1.1939479      27.635901      1014.3962     -266.92587    
     66000   66000          300.19735      128.63851      24480.402      24247.191      9681.1795      14566.012      4918.5128      5063.1543      3733.6482      376.82777     -476.14676      8138.3029     -7188.2874     -879.69702      124308.87      49.907679      49.907679      49.907679      1.1825688     -276.97299      708.0115      -45.122987    
     67000   67000          302.09736      197.52238      24742.088      24383.283      9742.4536      14640.829      4984.5233      5118.1101      3718.7184      387.30812     -507.77483      8131.1105     -7191.1663     -877.94914      124556.35      49.940777      49.940777      49.940777      1.1802191      23.115745      789.67464     -220.22326    
     68000   68000          299.50986     -900.95675      22552.057      24186.187      9659.0084      14527.179      4915.7491      5036.588       3827.0912      393.83535     -596.78186      8145.4143     -7194.7173     -879.28249      124367.47      49.91552       49.91552       49.91552       1.1820115     -881.42014     -200.89639     -1620.5537    
     69000   69000          296.13477     -1470.0945      21439.678      24099.336      9550.1639      14549.172      4973.6293      4955.2576      3876.7064      388.31927     -585.00511      8129.7339     -7189.4691     -881.51686      124052.24      49.873311      49.873311      49.873311      1.1850152     -2005.934      -1795.5482     -608.80132    
     70000   70000          299.57691      185.37527      24508.882      24172.81       9661.1706      14511.64       4963.736       5034.3661      3739.7495      374.43395     -561.19683      8149.6373     -7189.0864     -879.69231      124309.53      49.907768      49.907768      49.907768      1.1825625      811.80728     -136.7158      -118.96566    
     71000   71000          298.97482     -46.0793        24184.929      24268.449      9641.7536      14626.696      4960.6174      5047.6272      3854.9072      402.64355     -584.57803      8138.4309     -7192.9524     -879.87857      124283.22      49.904246      49.904246      49.904246      1.1828128      93.038948     -1145.4329      914.15606    
     72000   72000          303.00707      41.613165      24292.296      24216.943      9771.7912      14445.152      4875.4067      5070.7624      3768.1241      385.18555     -606.682        8144.5444     -7192.1894     -880.72275      124164.09      49.888296      49.888296      49.888296      1.1839477      234.88249     -552.13807      442.09507    
     73000   73000          297.51927     -377.96664      23404.329      24089.814      9594.8131      14495.001      4964.181       5074.2711      3709.5655      386.03709     -589.15973      8140.5203     -7190.4144     -879.36037      124356.46      49.914047      49.914047      49.914047      1.1821162     -371.91081     -743.99955     -17.989566    
     74000   74000          298.03226      796.66883      25571.84       24130.271      9611.3569      14518.914      4870.1679      5113.3687      3757.3442      387.4075      -540.69438      8124.3673     -7193.0468     -881.36025      124074.28      49.876265      49.876265      49.876265      1.1848047      1949.9295      145.76613      294.31088    
     75000   75000          298.09428      132.78954      24481.158      24239.689      9613.357       14626.332      5011.092       5091.3324      3698.4371      378.53635     -524.36879      8156.9545     -7185.6515     -877.02953      124686.95      49.958226      49.958226      49.958226      1.1789829      1202.972       671.53144     -1476.1348    
     76000   76000          299.37797     -1303.0427      21856.454      24221.074      9654.755       14566.319      4938.8086      5003.9921      3864.8647      382.56232     -572.34531      8141.0339     -7192.5978     -878.83717      124430.49      49.92395       49.92395       49.92395       1.1814129     -1595.6873     -1928.456      -384.98468    
     77000   77000          303.58842      639.69699      25587.466      24430.563      9790.5395      14640.023      5011.4335      5018.7767      3752.6998      380.61622     -459.56146      8132.0446     -7195.9862     -881.83732      124007.16      49.867269      49.867269      49.867269      1.185446       1465.2122      249.87661      204.00218    
     78000   78000          298.21883      620.66278      25427.678      24304.178      9617.3735      14686.805      4984.8453      5148.8048      3818.6516      375.1233      -579.16948      8134.2833     -7195.7342     -881.03658      124119.86      49.882372      49.882372      49.882372      1.1843695      666.89071      911.94611      283.15153    
     79000   79000          299.084        1215.8045      26312.03       24106.121      9645.2748      14460.846      4991.4992      5060.7312      3575.8703      378.92814     -509.26981      8152.0668     -7188.9798     -878.99671      124407.91      49.920929      49.920929      49.920929      1.1816274      1643.8246      582.2954       1421.2936    
     80000   80000          301.36798     -50.557976      24125.054      24216.439      9718.9318      14497.507      4917.6847      5066.7292      3785.9318      380.4505      -598.03822      8138.6538     -7193.9048     -882.31834      123939.55      49.858205      49.858205      49.858205      1.1860926     -1007.3805      197.97691      657.7297     
     81000   81000          299.45587     -1264.7733      21871.948      24162.332      9657.2675      14505.065      4845.7239      5039.7095      3877.5748      381.0553      -580.56745      8134.5018     -7192.933      -880.67444      124170.9       49.889208      49.889208      49.889208      1.1838827     -1286.4202     -1709.9115     -797.98809    
     82000   82000          302.75136     -618.50232      23346.362      24471.452      9763.5448      14707.907      4901.2178      5147.7868      3862.6493      384.9251      -544.7132       8144.7824     -7188.741      -876.72881      124729.72      49.963937      49.963937      49.963937      1.1785787     -245.42489     -883.45097     -726.63112    
     83000   83000          300.34958      279.54889      24724.99       24215.631      9686.089       14529.542      4937.456       5037.1223      3725.3527      385.80168     -490.67521      8128.3511     -7193.8669     -875.27589      124936.77      49.991568      49.991568      49.991568      1.1766255      416.62785      207.61181      214.40702    
     84000   84000          299.5757      -517.45432      23205.262      24144.403      9661.1317      14483.272      4944.5668      4994.4867      3800.9198      402.52173     -615.45616      8148.1565     -7191.9237     -878.72349      124446.59      49.926103      49.926103      49.926103      1.1812601      397.48828     -990.45906     -959.39219    
     85000   85000          300.01101      1272.3394      26543.147      24242.615      9675.1704      14567.445      4952.3539      5056.2183      3731.0974      373.53268     -493.73661      8138.6464     -7190.6675     -882.03504      123979.36      49.863543      49.863543      49.863543      1.1857118      1271.5105      1527.1987      1018.3089    
     86000   86000          302.61936      741.30646      25662.649      24318.779      9759.2879      14559.491      4943.2137      5048.2368      3774.6434      387.05457     -523.10267      8124.1369     -7194.6915     -879.73489      124303.52      49.906962      49.906962      49.906962      1.1826197      656.2829       337.1855       1230.451     
     87000   87000          298.27423     -886.70401      22662.974      24268.218      9619.1601      14649.058      4893.8636      5047.6788      3878.1303      384.99859     -521.24986      8154.5993     -7188.9628     -880.94496      124132.77      49.884101      49.884101      49.884101      1.1842464     -1242.5637      392.63788     -1810.1863    
     88000   88000          296.75846     -322.58473      23467.456      24048.878      9570.2775      14478.601      4865.0891      5116.9562      3782.318       375.36433     -623.68371      8151.581      -7189.0241     -884.83755      123586.69      49.810843      49.810843      49.810843      1.1894792     -1289.7403      700.08067     -378.09457    
     89000   89000          301.6192      -217.28244      23758.568      24151.797      9727.0332      14424.763      4937.418       5108.7216      3691.1919      379.46281     -642.65383      8141.2472     -7190.6245     -881.23325      124092.16      49.878661      49.878661      49.878661      1.1846339      690.33016     -918.92571     -423.25177    
     90000   90000          299.41106      112.11466      24646.888      24444.05       9655.8224      14788.228      4985.8791      5121.2554      3822.8774      396.62838     -471.63397      8127.4566     -7194.2351     -881.50626      124053.73      49.873511      49.873511      49.873511      1.1850009      881.87146     -478.75386     -66.773612    
     91000   91000          297.82761     -166.19222      23910.779      24213.371      9604.7569      14608.614      4898.8061      5141.1243      3750.5358      380.06101     -507.98011      8138.869      -7192.8024     -875.92027      124844.86      49.979306      49.979306      49.979306      1.1774917      1356.5155     -1612.7296     -242.36254    
     92000   92000          298.85695     -267.99507      23738.451      24223.554      9637.9526      14585.601      4841.6548      5137.916       3811.9726      377.21003     -538.01233      8142.7162     -7187.8561     -881.05795      124116.85      49.881969      49.881969      49.881969      1.1843983      468.45992     -793.29137     -479.15377    
     93000   93000          300.08811     -291.45096      23659.275      24186.6        9677.6567      14508.943      4892.9414      5045.2722      3833.5916      369.97938     -577.43083      8136.8485     -7192.2591     -881.45138      124061.45      49.874546      49.874546      49.874546      1.1849272      299.37517     -780.28061     -393.44745    
     94000   94000          298.6428       414.97793      24849.467      24100.309      9631.0462      14469.262      4941.2123      4942.231       3763.9463      380.98701     -490.18465      8125.2394     -7194.169      -883.40969      123786.44      49.837666      49.837666      49.837666      1.1875597      317.0468       400.86676      527.02023    
     95000   95000          300.02256      649.44628      25415.045      24243.338      9675.5427      14567.796      4989.4752      5056.6512      3764.4865      399.36157     -584.03264      8132.2306     -7190.3768     -883.9657       123708.58      49.827214      49.827214      49.827214      1.1883071     -26.597448      1159.6559      815.28035    
     96000   96000          298.73333     -515.9839       23123.276      24055.822      9633.9659      14421.857      4934.3885      4982.7129      3760.7054      379.34923     -578.13702      8134.2398     -7191.4023     -882.42289      123924.87      49.856236      49.856236      49.856236      1.1862332     -829.1215      -557.02393     -161.80627    
     97000   97000          301.34271      855.66346      25837.622      24290.65       9718.1166      14572.533      5058.3826      5001.7613      3712.3299      367.38631     -500.82339      8128.9168     -7195.4204     -882.12788      123966.31      49.861793      49.861793      49.861793      1.1858366      885.43826      1017.3953      664.15685    
     98000   98000          300.26608     -270.22454      23822.106      24314.768      9683.3962      14631.371      5029.9323      5089.4742      3692.1019      381.00653     -516.88294      8143.5934     -7187.8538     -874.75569      125011.06      50.001475      50.001475      50.001475      1.1759262     -160.33541     -1152.3008      501.96261    
     99000   99000          298.60347     -35.010099      24254.183      24317.506      9629.7779      14687.728      4980.9406      5057.6407      3821.8023      386.6015      -494.60407      8127.9083     -7192.5615     -881.7558       124018.62      49.868806      49.868806      49.868806      1.1853364      712.15762     -856.62516      39.437239    
    100000   100000         298.58924     -308.10092      23733.474      24288.418      9629.3189      14659.099      4960.4459      5120.6431      3800.0499      382.27109     -549.12228      8135.9344     -7191.1229     -885.43084      123503.88      49.799715      49.799715      49.799715      1.1902767     -203.10895     -342.64364     -378.55018    
    101000   101000         302.05589     -422.67663      23532.103      24298.469      9741.1165      14557.353      4880.773       5016.496       3848.62        370.88838     -507.1535       8140.6745     -7192.9455     -879.59531      124323.24      49.909602      49.909602      49.909602      1.1824321     -80.123218     -361.13711     -826.76955    
    102000   102000         301.20334      157.02856      24511.733      24227.428      9713.622       14513.806      4989.5916      5077.372       3733.1439      374.38661     -606.33473      8137.2858     -7191.6393     -880.85556      124145.37      49.885789      49.885789      49.885789      1.1841262      534.60661      966.27224     -1029.7932    
    103000   103000         301.7627       58.036269      24429.075      24323.906      9731.661       14592.245      4977.3948      5018.5669      3774.9268      397.76866     -518.40758      8133.8245     -7191.8293     -880.08172      124254.53      49.900406      49.900406      49.900406      1.1830859      88.690389     -143.62029      229.03871    
    104000   104000         301.22141      450.48707      25119.152      24305.083      9714.2048      14590.878      5039.875       5045.7637      3745.2963      379.7573      -573.22062      8146.8612     -7193.455      -882.53497      123909.13      49.854126      49.854126      49.854126      1.1863838      482.17303      548.77861      320.50957    
    105000   105000         303.65131      413.07629      24991.039      24239.087      9792.5676      14446.519      4933.9811      4992.6671      3777.0479      382.83297     -593.81068      8146.1543     -7192.3536     -876.09464      124820.01      49.97599       49.97599       49.97599       1.1777261      706.83209      153.44427      378.95253    
    106000   106000         300.14056      229.86067      24700.249      24283.373      9679.3482      14604.025      4887.2462      5185.2374      3783.5154      376.54517     -563.10696      8129.4005     -7194.8129     -879.36532      124355.76      49.913953      49.913953      49.913953      1.1821229      73.615216      966.52065     -350.55386    
    107000   107000         302.8379      -443.20284      23685.404      24494.489      9766.3358      14728.154      5031.6584      5113.7781      3849.8718      372.97772     -583.70403      8137.262      -7193.6903     -873.61381      125174.46      50.023251      50.023251      50.023251      1.1743912     -734.79399      406.5334      -1001.3479    
    108000   108000         296.7012      -461.19192      23378.737      24217.676      9568.431       14649.245      5017.8146      5006.5451      3825.2843      383.25039     -542.28021      8152.5825     -7193.9515     -876.7228       124730.58      49.964051      49.964051      49.964051      1.1785706     -626.55848     -184.87422     -572.14306    
    109000   109000         295.81741     -184.80701      23790.36       24125.491      9539.9293      14585.562      5019.8984      5024.5643      3815.7959      379.99791     -617.04149      8153.9827     -7191.6361     -879.4584       124342.6       49.912192      49.912192      49.912192      1.182248      -1068.1959      910.274       -396.49907    
    110000   110000         304.52177      1653.5737      27403.201      24410.667      9820.6394      14590.028      5008.3213      5071.661       3633.6698      374.54222     -440.06229      8134.401      -7192.5056     -881.24272      124090.83      49.878482      49.878482      49.878482      1.1846467      1677.1453      1102.9707      2180.6051    
    111000   111000         298.42522     -900.95157      22548.47       24181.482      9624.0296      14557.452      4904.5735      5009.1243      3892.5573      382.64692     -565.22829      8128.3447     -7194.5661     -879.87965      124283.07      49.904225      49.904225      49.904225      1.1828143     -532.71859     -1943.1077     -227.0284     
    112000   112000         303.44549      557.35538      25398.673      24389.7        9785.9302      14603.77       5018.8263      5089.6876      3709.2354      381.91436     -538.77466      8133.393      -7190.5124     -880.97486      124128.56      49.883537      49.883537      49.883537      1.1842866      867.20611      440.41414      364.44588    
    113000   113000         299.14167     -106.66714      23981.906      24175.062      9647.1345      14527.927      4982.4774      5045.2875      3746.2962      382.82421     -579.39523      8143.4945     -7193.0576     -880.71396      124165.33      49.888462      49.888462      49.888462      1.1839359      303.11933      451.13517     -1074.2559    
    114000   114000         298.50128      439.77278      25036.015      24239.789      9626.4825      14613.306      5073.3489      4995.1159      3726.1687      391.04893     -518.32023      8139.0626     -7193.1184     -880.85213      124145.86      49.885854      49.885854      49.885854      1.1841216      364.7601       847.14616      107.41209    
    115000   115000         300.19703     -82.653088      24120.969      24271.205      9681.1692      14590.035      5008.4494      5036.7932      3734.2191      372.71632     -508.31094      8138.332      -7192.1638     -877.39921      124634.42      49.951208      49.951208      49.951208      1.1794799      552.17648     -1299.2384      499.10264    
    116000   116000         301.1938      -36.861245      24224.495      24291.308      9713.3146      14577.993      4968.9306      5086.7197      3755.563       398.26484     -574.39102      8135.9889     -7193.0832     -879.88589      124282.18      49.904108      49.904108      49.904108      1.1828227      543.30848     -80.259059     -573.63315    
    117000   117000         298.66259     -536.43291      23363.336      24336.836      9631.6845      14705.152      4982.4028      5064.0889      3873.731       388.35093     -556.70915      8141.8352     -7188.548      -878.80097      124435.62      49.924635      49.924635      49.924635      1.1813642     -390.97058     -322.63704     -895.69111    
    118000   118000         301.4815       1677.1292      27280.339      24254.64       9722.5928      14532.048      5053.1983      5041.6145      3623.8297      369.80617     -507.31549      8142.8999     -7191.9855     -883.99933      123703.87      49.826582      49.826582      49.826582      1.1883524      1729.5717      2277.6997      1024.1163    
    119000   119000         295.22347     -170.05679      23624.054      23931.859      9520.7752      14411.084      4959.5363      5012.8222      3702.8624      371.84103     -567.81633      8125.6313     -7193.7931     -881.10944      124109.6       49.880997      49.880997      49.880997      1.1844675     -730.15421      554.44592     -334.46208    
    120000   120000         299.85805      5.6308021      24244.725      24234.552      9670.2373      14564.314      4962.5546      5026.9346      3792.1394      372.54107     -537.48238      8139.0696     -7191.4426     -882.68342      123888.29      49.851331      49.851331      49.851331      1.1865834     -181.62606     -76.577229      275.09569    
    121000   121000         301.78549     -548.35187      23176.418      24168.915      9732.3961      14436.519      4919.8153      5012.1021      3729.5919      377.19871     -555.24432      8141.7988     -7188.7431     -881.13246      124106.36      49.880563      49.880563      49.880563      1.1844984      1075.3013     -1772.0686     -948.28832    
    122000   122000         306.45187     -709.12592      23127.074      24414.253      9882.8841      14531.369      4980.1448      5064.1403      3750.782       379.60988     -587.87734      8138.8956     -7194.3263     -878.6088       124462.83      49.928275      49.928275      49.928275      1.1811059     -634.22087     -900.74865     -592.40823    
    123000   123000         300.61852      202.24806      24536.735      24170.128      9694.7621      14475.365      4985.8904      5012.9361      3690.6453      368.71952     -533.11858      8139.5973     -7189.3046     -879.82096      124291.36      49.905335      49.905335      49.905335      1.1827354     -361.11617      791.65094      176.20941    
    124000   124000         298.82206     -391.74781      23473.429      24182.119      9636.8275      14545.291      4889.0667      5044.6817      3820.612       382.02334     -543.12114      8139.587      -7187.558      -881.57932      124043.45      49.872133      49.872133      49.872133      1.1850991      463.56408     -1092.4686     -546.33889    
    125000   125000         301.67883     -669.5981       23172.698      24388.437      9728.9565      14659.481      4977.9376      5059.5937      3797.9866      386.09055     -524.79012      8150.9244     -7188.2621     -878.38475      124494.58      49.93252       49.93252       49.93252       1.1808047     -866.64244     -113.30764     -1028.8442    
    126000   126000         297.39602     -343.2007       23639.977      24261.503      9590.8384      14670.665      5015.3157      5127.8711      3740.6184      380.38354     -549.37462      8148.8863     -7193.0358     -880.64299      124175.34      49.889802      49.889802      49.889802      1.1838405     -365.44869      501.22898     -1165.3824    
    127000   127000         298.38302     -506.32806      23423.966      24341.864      9622.6686      14719.195      4944.0683      5141.62        3805.4076      393.88655     -518.02244      8140.2009     -7187.9657     -879.72887      124304.37      49.907076      49.907076      49.907076      1.1826116     -603.15298     -85.852239     -829.97897    
    128000   128000         305.75014     -392.17836      23621.47       24335.067      9860.2538      14474.814      4872.7769      4988.5726      3811.0452      374.27377     -520.93454      8140.3417     -7191.2622     -876.47924      124765.24      49.968679      49.968679      49.968679      1.1782432     -696.84996     -458.06299     -21.62214     
    129000   129000         301.71013     -147.54577      23921.076      24188.232      9729.9659      14458.266      4952.8965      4974.4192      3751.6739      369.22483     -550.41974      8152.0159     -7191.5441     -880.78966      124154.66      49.887033      49.887033      49.887033      1.1840376      171.35839     -384.31187     -229.68383    
    130000   130000         297.54662      466.43913      24965.385      24122.192      9595.6953      14526.497      4949.1267      5019.7449      3755.0614      384.99046     -525.69576      8135.2471     -7191.9782     -882.22385      123952.83      49.859985      49.859985      49.859985      1.1859656     -211.12465      683.92203      926.52003    
    131000   131000         299.25585      1895.6075      27646.318      24202.154      9650.8167      14551.337      4941.2085      5016.4654      3704.8009      384.32738     -440.19865      8135.1808     -7190.4473     -877.75979      124583.22      49.944367      49.944367      49.944367      1.1799646      2053.0321      1610.4124      2023.378     
    132000   132000         298.2823       564.22933      25350.132      24327.424      9619.4203      14708.003      5039.7272      5084.0317      3776.8592      385.56808     -542.34705      8155.2783     -7191.1141     -879.86268      124285.46      49.904546      49.904546      49.904546      1.1827915      436.64384      1065.3947      190.64944    
    133000   133000         297.9978       89.764414      24165.021      24002.511      9610.2456      14392.265      4853.8848      4984.5295      3801.7771      367.21202     -563.91551      8143.7797     -7195.0026     -880.91447      124137.07      49.884677      49.884677      49.884677      1.1842054     -248.3547      -466.67713      984.32507    
    134000   134000         299.5436       597.05783      25406.271      24321.313      9660.0966      14661.217      5037.352       5075.6388      3694.0249      373.20897     -466.36013      8138.6774     -7191.3251     -877.6367       124600.69      49.946702      49.946702      49.946702      1.1797991      403.1492      -266.13031      1654.1546    
    135000   135000         300.20613      339.69714      24775.684      24160.596      9681.4627      14479.134      4883.8838      5054.0191      3819.6617      383.47531     -611.93819      8142.4099     -7192.378      -880.77667      124156.49      49.887278      49.887278      49.887278      1.1840201      1498.8937     -228.79126     -251.01104    
    136000   136000         300.9786       82.233258      24592.503      24443.699      9706.3746      14737.324      5134.8491      5038.617       3812.738       382.22753     -576.76583      8135.6102     -7189.9515     -881.34009      124077.12      49.876645      49.876645      49.876645      1.1847775     -326.48173     -425.04087      998.22237    
    137000   137000         302.80662      260.38833      24703.231      24230.37       9765.3268      14465.044      4932.573       4989.8294      3710.0396      373.0608      -498.93264      8148.5472     -7190.0738     -878.21314      124518.91      49.935772      49.935772      49.935772      1.180574       107.60145      1242.4732     -568.90969    
    138000   138000         300.15003     -632.80907      23245.843      24395.043      9679.6535      14715.39       4915.9432      5063.9896      3873.2157      379.27027     -472.19512      8146.0135     -7190.8472     -878.18934      124522.28      49.936223      49.936223      49.936223      1.180542      -706.58623     -1471.8412      280.00026    
    139000   139000         299.74682     -721.36019      22974.22       24272.77       9666.6503      14606.119      4967.5044      5111.1827      3759.4262      377.90033     -565.39876      8146.8201     -7191.3156     -885.94051      123432.82      49.790164      49.790164      49.790164      1.1909619     -1390.0135     -640.62219     -133.4449     
    140000   140000         302.56318     -619.91522      23089.217      24211.72       9757.4762      14454.244      4864.2042      5056.8963      3789.7188      380.96518     -578.12551      8132.2443     -7191.659      -880.75651      124159.33      49.887659      49.887659      49.887659      1.1839931      93.326848     -1722.0642     -231.00832    
    141000   141000         298.48022     -597.31134      23176.639      24257.566      9625.8034      14631.763      4974.8325      5066.6171      3833.5721      375.3015      -582.18708      8154.6611     -7191.0344     -881.2828       124085.19      49.877726      49.877726      49.877726      1.1847005      373.21562     -615.32838     -1549.8212    
    142000   142000         295.66711      770.21132      25487.389      24094.887      9535.0821      14559.805      4987.6621      4992.406       3730.7288      378.14685     -474.74339      8137.9614     -7192.3568     -882.11473      123968.16      49.862041      49.862041      49.862041      1.1858189     -36.926275      1965.7289      381.8313     
    143000   143000         297.70212      445.71538      25077.16       24269.054      9600.7101      14668.344      5026.4987      5123.701       3736.0907      380.26207     -544.54747      8138.3129     -7191.9738     -879.6309       124318.21      49.908929      49.908929      49.908929      1.1824799      677.42619     -301.02675      960.74671    
    144000   144000         297.58597      313.69701      24671.356      24100.544      9596.9642      14503.579      4945.5275      5075.2986      3683.5429      379.59941     -527.65948      8141.9015     -7194.631      -876.4518       124769.14      49.9692        49.9692        49.9692        1.1782063      1342.3826     -62.373596     -338.91802    
    145000   145000         306.06067     -463.00606      23802.789      24645.671      9870.2682      14775.402      4940.4291      5134.6986      3857.5536      380.84551     -501.34651      8153.4957     -7190.2736     -876.05418      124825.77      49.976759      49.976759      49.976759      1.1776718     -259.52866     -534.36299     -595.12651    
    146000   146000         298.60593     -933.42842      22516.887      24218.262      9629.8574      14588.405      4873.8285      5089.4485      3807.1413      381.2832      -488.3216       8120.4123     -7195.3874     -874.96755      124980.79      49.997439      49.997439      49.997439      1.176211      -419.23685     -970.27787     -1410.7706    
    147000   147000         298.89449     -241.72138      23806.68       24246.692      9639.163       14607.529      4797.5435      5139.685       3820.0568      373.91588     -473.74282      8140.2227     -7190.1519     -876.11528      124817.07      49.975597      49.975597      49.975597      1.1777539      1101.4772     -199.36417     -1627.2771    
    148000   148000         299.68734     -653.23494      23134.797      24327.205      9664.732       14662.473      4921.3382      5098.7123      3811.7283      392.90818     -509.1601       8139.5762     -7192.63       -873.6868       125164.01      50.021858      50.021858      50.021858      1.1744893     -1150.4192      132.69606     -941.98171    
    149000   149000         303.11078      331.15225      24944.101      24342.34       9775.1358      14567.204      4932.9858      5035.5396      3764.6285      375.49467     -507.75921      8154.8861     -7188.5715     -877.63643      124600.73      49.946707      49.946707      49.946707      1.1797988      393.45449     -164.52046      764.52273    
    150000   150000         300.0853       348.68309      24894.883      24260.305      9677.5661      14582.739      4906.1594      4996.9111      3782.1152      389.38375     -444.73129      8145.5491     -7192.6483     -876.30856      124789.54      49.971923      49.971923      49.971923      1.1780137      149.11734      222.84668      674.08524    
    151000   151000         297.36886     -1087.5317      22177.951      24147.979      9589.9626      14558.017      4884.8588      5113.1511      3837.0473      375.79472     -604.1922       8142.905      -7191.5479     -880.40119      124209.44      49.894369      49.894369      49.894369      1.1835154     -2096.9721      84.821256     -1250.4442    
    152000   152000         300.72761      739.51676      25566.408      24227.978      9698.2803      14529.697      4940.6166      5006.3426      3803.7122      372.89284     -539.05615      8141.2176     -7196.0282     -881.17747      124100.02      49.879713      49.879713      49.879713      1.184559       1268.1977      303.14915      647.20345    
    153000   153000         299.68287     -31.22399       24016.633      24073.16       9664.5878      14408.572      4843.4935      5058.3972      3671.2277      364.00901     -486.16457      8146.4832     -7188.874      -880.93904      124133.61      49.884213      49.884213      49.884213      1.1842384      370.12887     -625.70018      161.89934    
    154000   154000         301.33541      238.29177      24699.157      24267.543      9717.8814      14549.662      5053.5282      5055.398       3643.0966      380.68854     -543.2582       8148.4737     -7188.2653     -880.48992      124196.92      49.892693      49.892693      49.892693      1.1836347      934.74613     -949.96925      730.09845    
    155000   155000         304.85573     -218.37372      24109.78       24505.913      9831.4095      14674.504      5056.7041      5025.6988      3763.2646      369.96102     -483.33437      8133.7543     -7191.5449     -879.16414      124384.21      49.91776       49.91776       49.91776       1.1818524      351.49068     -1030.251       23.639178    
    156000   156000         296.27107      308.53542      24744.352      24185.71       9554.5596      14631.151      5042.886       5087.6368      3694.0017      399.69025     -552.26071      8148.6304     -7189.4337     -880.81181      124151.54      49.886615      49.886615      49.886615      1.1840674     -1270.8095      1380.3309      816.08494    
[...]
   1955000   1955000        302.00761      408.95995      25107.481      24366.282      9739.5593      14626.722      4959.6691      5127.2588      3748.9559      373.21371     -535.36399      8145.1624     -7192.1736     -879.94751      124273.48      49.902942      49.902942      49.902942      1.1829055      1905.0123     -488.12471     -190.00772    
   1956000   1956000        303.47605      8.7810201      24330.849      24314.943      9786.9158      14528.027      4933.1377      5028.3184      3760.1644      392.09897     -527.46368      8132.48       -7190.7086     -880.44201      124203.68      49.893598      49.893598      49.893598      1.1835703     -824.42763      199.20117      651.56952    
   1957000   1957000        297.2056      -813.87093      22553.651      24028.298      9584.6975      14443.601      4864.3515      5131.9491      3718.3462      374.97257     -590.49632      8135.8571     -7191.3795     -880.19444      124238.62      49.898276      49.898276      49.898276      1.1832375     -907.30856     -233.61177     -1300.6924    
   1958000   1958000        301.78674     -413.30494      23450.05       24199.566      9732.4365      14467.13       4847.584       5137.4466      3726.8407      379.13039     -575.14685      8141.8628     -7190.5881     -879.4285       124346.82      49.912758      49.912758      49.912758      1.1822078     -701.00662     -582.7909       43.882682    
   1959000   1959000        303.51553     -421.58556      23516.832      24278.597      9788.1888      14490.408      4930.3444      5079.3412      3734.1777      370.24561     -556.05087      8126.201      -7193.851      -882.62408      123896.62      49.852448      49.852448      49.852448      1.1865036     -893.8357       82.169577     -453.09057    
   1960000   1960000        293.62327     -1270.4867      21719.812      24019.519      9469.1695      14550.349      4871.6379      4964.0879      3906.1745      374.95502     -498.98123      8126.9108     -7194.4355     -881.06642      124115.66      49.881809      49.881809      49.881809      1.1844097     -946.14369     -1138.3296     -1726.9868    
   1961000   1961000        303.99912      341.10408      24867.768      24252.572      9803.7843      14448.788      4912.46        5121.1429      3695.8849      355.99042     -591.62528      8143.5118     -7188.5769     -884.27002      123666         49.821497      49.821497      49.821497      1.1887162      1165.6296     -774.22658      631.90922    
   1962000   1962000        298.3601      -52.426774      24034.824      24129.964      9621.9294      14508.035      4920.056       5080.8199      3732.6711      380.3155      -546.00787      8131.2379     -7191.0575     -878.8218       124432.67      49.924241      49.924241      49.924241      1.1813922     -1483.4441     -557.71533      1883.8791    
   1963000   1963000        298.43982      1043.8296      26031.119      24145.241      9624.5002      14520.741      4919.7555      5055.8641      3708.6888      380.62623     -478.18288      8127.5875     -7193.5979     -882.72849      123881.97      49.850482      49.850482      49.850482      1.186644       1244.9545      572.02134      1314.5129    
   1964000   1964000        301.69505      101.68901      24523.019      24339.133      9729.4796      14609.653      4996.7427      5079.4062      3788.85        380.27304     -576.19288      8136.8338     -7196.2596     -881.93574      123993.32      49.865414      49.865414      49.865414      1.1855783     -309.07518     -1499.5027      2113.6449    
   1965000   1965000        295.92599      550.9364       25099.914      24101.517      9543.431       14558.086      5043.4946      5045.9295      3692.3667      382.00491     -551.23713      8136.5972     -7191.0693     -880.0542       124258.41      49.900926      49.900926      49.900926      1.1830489     -7.7437419      642.15176      1018.4012    
   1966000   1966000        298.68205      1635.3015      27217.094      24257.548      9632.3121      14625.236      4937.1402      5026.4251      3785.6111      392.29332     -461.82724      8137.4127     -7191.8191     -881.21909      124094.16      49.878928      49.878928      49.878928      1.1846149      2442.807       1852.0061      611.09136    
   1967000   1967000        298.45802      769.96557      25508.089      24110.646      9625.0874      14485.559      4917.2734      4993.5575      3739.0484      390.09803     -508.68816      8147.7751     -7193.5055     -878.7159       124447.66      49.926246      49.926246      49.926246      1.1812499      808.3172       273.42793      1228.1516    
   1968000   1968000        302.14894      58.291927      24332.055      24226.738      9744.1173      14482.62       4904.9512      5074.2901      3717.862       381.05925     -551.30285      8146.3419     -7190.5814     -882.71382      123884.02      49.850758      49.850758      49.850758      1.1866242      186.38265     -402.14048      390.63361    
   1969000   1969000        297.43314     -442.82453      23273.967      24074.577      9592.0357      14482.541      4880.261       5130.7427      3737.1653      383.79317     -603.96731      8149.2019     -7194.6554     -882.10804      123969.1       49.862167      49.862167      49.862167      1.1858099     -1237.7033      574.4727      -665.24299    
   1970000   1970000        303.67702     -106.64354      24119.867      24312.236      9793.3967      14518.839      4993.518       5049.7156      3774.7835      371.94061     -616.65712      8135.4382     -7189.8998     -884.12087      123686.87      49.824299      49.824299      49.824299      1.1885157      248.80923     -909.36764      340.62779    
   1971000   1971000        299.84304      317.74083      24691.017      24116.65       9669.7533      14446.897      4924.2527      5023.1383      3731.8833      386.79641     -556.68778      8131.7664     -7194.2528     -882.25622      123948.28      49.859375      49.859375      49.859375      1.1860091      1408.8403     -524.7287       69.110913    
   1972000   1972000        298.0098      -619.23858      23050.127      24168.963      9610.6326      14558.33       4860.9411      5085.1489      3873.0258      387.48837     -578.87609      8124.2682     -7193.6657     -882.67912      123888.89      49.851411      49.851411      49.851411      1.1865776     -2083.1088     -20.441121      245.83421    
   1973000   1973000        301.91594     -841.37595      22700.771      24228.01       9736.603       14491.407      4859.5824      5153.3615      3702.13        389.38583     -539.52105      8121.7392     -7195.2712     -878.60603      124463.23      49.928327      49.928327      49.928327      1.1811022     -631.97622     -901.07986     -991.07176    
   1974000   1974000        300.43402      742.06247      25515.018      24177.136      9688.812       14488.324      4918.1333      5065.948       3719.5239      380.66299     -539.54213      8136.3321     -7192.734      -884.57349      123623.58      49.815799      49.815799      49.815799      1.1891242      953.16699      595.88653      677.13388    
   1975000   1975000        299.81001      510.02741      25107.395      24181.85       9668.6881      14513.162      4955.8443      5010.5607      3739.6651      376.26052     -512.0824       8135.1894     -7192.2755     -878.8343       124430.9       49.924004      49.924004      49.924004      1.181409       526.75384      581.65646      421.67193    
   1976000   1976000        299.50661     -510.29722      23137.768      24063.865      9658.9036      14404.961      4930.8263      4995.5152      3718.6997      375.74995     -554.15424      8133.807      -7195.4827     -878.77554      124439.22      49.925117      49.925117      49.925117      1.1813301     -438.57844     -295.65366     -796.65957    
   1977000   1977000        298.90354      1249.6155      26402.745      24140.132      9639.455       14500.677      5015.6856      5072.1625      3654.3481      377.32456     -548.88397      8126.8026     -7196.7628     -880.79965      124153.25      49.886844      49.886844      49.886844      1.184051       961.65445      1687.7459      1099.4462    
   1978000   1978000        302.37084      407.83363      25200.761      24458.413      9751.2734      14707.139      5057.8755      5027.2452      3768.353       383.66784     -470.5996       8129.9194     -7189.3221     -876.1656       124809.9       49.97464       49.97464       49.97464       1.1778215     -239.18968      2001.5333     -538.84269    
   1979000   1979000        298.48813      51.550615      24324.059      24230.801      9626.0582      14604.743      5040.3481      5102.2268      3724.1673      379.21224     -570.86354      8124.0934     -7194.441      -881.58117      124043.19      49.872098      49.872098      49.872098      1.1851016      1229.8684     -245.82776     -829.38883    
   1980000   1980000        296.83175     -1207.8924      21905.903      24085.072      9572.6409      14512.431      4935.2298      4967.1511      3902.2217      401.11964     -636.96943      8137.267      -7193.5887     -883.99235      123704.85      49.826713      49.826713      49.826713      1.188343      -2057.569      -996.01898     -570.08925    
   1981000   1981000        299.26215      913.04596      25979.845      24324.492      9651.0198      14673.472      5002.1764      5111.389       3746.932       377.64727     -503.02948      8134.1562     -7195.7992     -879.65652      124314.59      49.908445      49.908445      49.908445      1.1825143      559.36361      865.1488       1314.6255    
   1982000   1982000        302.17396      125.28221      24457.518      24232.078      9744.9241      14487.154      4977.302       5113.019       3690.2233      371.64428     -610.94561      8138.3629     -7192.4516     -886.27669      123386         49.783868      49.783868      49.783868      1.1914138      772.17232     -775.43745      379.11175    
   1983000   1983000        302.40115     -1132.6364      22374.977      24424.953      9752.2507      14672.702      5075.8172      5052.2958      3836.7502      383.22891     -596.93368      8117.8012     -7196.2571     -881.15621      124103.01      49.880114      49.880114      49.880114      1.1845304     -1858.1394     -1631.4112      91.641444    
   1984000   1984000        302.80941     -1364.0328      21690.382      24172.121      9765.4168      14406.704      4867.9776      5063.7611      3793.3566      380.0653      -645.01361      8139.0271     -7192.4703     -876.55665      124754.22      49.967208      49.967208      49.967208      1.1783472     -1303.7439     -1098.8669     -1689.4876    
   1985000   1985000        302.65206      121.2208       24603.87       24384.461      9760.3424      14624.119      5038.6396      5081.8553      3761.5732      391.82978     -602.45481      8144.9871     -7192.3111     -881.11835      124108.34      49.880829      49.880829      49.880829      1.1844795      704.19734     -1003.2449      662.71       
   1986000   1986000        298.642        28.355666      24243.435      24192.142      9631.0204      14561.122      5044.8311      4888.124       3858.6874      390.60452     -552.23329      8126.4822     -7195.3739     -881.65068      124033.41      49.870788      49.870788      49.870788      1.1851951     -379.28588     -159.44649      623.79937    
   1987000   1987000        301.73868      316.01789      24744.032      24173.488      9730.8866      14442.601      4993.8855      4975.7612      3774.6588      376.97041     -608.96192      8125.9253     -7195.638      -883.35224      123794.49      49.838746      49.838746      49.838746      1.1874825     -88.89958       469.66787      567.28537    
   1988000   1988000        299.90877     -806.99093      22867.199      24330.331      9671.8731      14658.458      4992.7153      5074.3285      3833.2477      380.61384     -569.39196      8139.2606     -7192.3157     -879.622        124319.47      49.909097      49.909097      49.909097      1.1824679     -1726.1094     -165.1864      -529.67698    
   1989000   1989000        299.00849      397.90407      24958.224      24237.903      9642.8396      14595.063      5078.9984      5013.3018      3695.6872      379.40176     -502.40454      8122.8795     -7192.8008     -880.97474      124128.58      49.883539      49.883539      49.883539      1.1842864      555.2127       1117.3848     -478.88525    
   1990000   1990000        300.61317      775.87714      25624.95       24229.408      9694.5895      14534.819      5065.7334      5044.7202      3644.7095      368.696       -516.11553      8122.8657     -7195.7907     -886.66829      123331.51      49.776538      49.776538      49.776538      1.1919402     -212.45033      975.33137      1564.7504    
   1991000   1991000        302.0588      -446.57707      23563.737      24369.974      9741.2101      14628.764      5090.035       4961.6228      3793.4997      375.95426     -532.86682      8134.4811     -7193.9623     -883.37516      123791.28      49.838315      49.838315      49.838315      1.1875133     -1121.4045     -1500.4271      1282.1004    
   1992000   1992000        299.65532     -229.69133      23742.546      24157.856      9663.6996      14494.157      4964.3993      4991.4654      3773.7559      382.16177     -565.58851      8139.9953     -7192.0324     -882.02926      123980.17      49.863652      49.863652      49.863652      1.185704       258.00555     -1402.2549      455.17538    
   1993000   1993000        298.68659     -208.15359      23866.912      24242.58       9632.4584      14610.121      4956.2428      5105.7266      3779.3605      379.07894     -555.33853      8139.6038     -7194.5529     -883.6718       123749.72      49.832737      49.832737      49.832737      1.187912      -747.74316     -485.63841      608.92079    
   1994000   1994000        304.36642      1201.6435      26531.102      24362.794      9815.6294      14547.164      4987.9099      5071.5703      3684.3188      376.41042     -521.08269      8141.6993     -7193.6616     -883.82392      123728.42      49.829878      49.829878      49.829878      1.1881165      1757.2604      457.62823      1390.0417    
   1995000   1995000        298.11963      74.23105       24303.73       24169.384      9614.1745      14555.21       4939.8179      5117.8483      3741.1831      367.27133     -549.53986      8130.2505     -7191.6215     -881.19877      124097.02      49.879311      49.879311      49.879311      1.1845876      1172.4786     -1087.162       137.37653    
   1996000   1996000        300.23119     -254.14483      23860.872      24321.594      9682.271       14639.323      5059.8271      5068.5989      3727.3149      380.47458     -538.33402      8134.3487     -7192.9069     -879.73854      124303         49.906894      49.906894      49.906894      1.1826246     -722.72916      109.83471     -149.54005    
   1997000   1997000        301.99974      285.28421      24684.849      24169.387      9739.3054      14430.081      5061.1164      4961.6344      3609.0585      375.13383     -518.42883      8136.1744     -7194.6072     -882.6572       123891.97      49.851824      49.851824      49.851824      1.1865481      988.13551      368.67294     -500.95582    
   1998000   1998000        297.25264     -1317.3665      21799.385      24183.146      9586.2144      14596.931      4886.7772      5082.7336      3906.292       389.34142     -615.92534      8137.8259     -7190.1133     -881.36364      124073.8       49.876201      49.876201      49.876201      1.1848092     -2417.0591     -637.8589      -897.18141    
   1999000   1999000        303.08228     -1139.059       22380.849      24450.065      9774.2168      14675.848      4952.7766      5069.3894      3865.4333      388.93963     -541.21499      8133.0889     -7192.5645     -877.91298      124561.48      49.941462      49.941462      49.941462      1.1801705     -2363.0691     -317.64004     -736.46794    
   2000000   2000000        300.36251      303.62145      24706.999      24157.713      9686.5059      14471.208      4945.6345      5047.7355      3708.2193      393.15156     -572.64231      8139.5471     -7190.4381     -881.54659      124048.05      49.87275       49.87275       49.87275       1.1850552      1006.3502     -47.039495     -48.446334    
Loop time of 15240.8 on 1 procs for 2000000 steps with 10820 atoms

Performance: 11.338 ns/day, 2.117 hours/ns, 131.226 timesteps/s, 1.420 Matom-step/s
99.8% CPU use with 1 MPI tasks x 1 OpenMP threads

MPI task timing breakdown:
Section |  min time  |  avg time  |  max time  |%varavg| %total
---------------------------------------------------------------
Pair    | 5743.4     | 5743.4     | 5743.4     |   0.0 | 37.68
Bond    | 2335.2     | 2335.2     | 2335.2     |   0.0 | 15.32
Kspace  | 4892.7     | 4892.7     | 4892.7     |   0.0 | 32.10
Neigh   | 636.5      | 636.5      | 636.5      |   0.0 |  4.18
Comm    | 116.15     | 116.15     | 116.15     |   0.0 |  0.76
Output  | 47.702     | 47.702     | 47.702     |   0.0 |  0.31
Modify  | 1138.3     | 1138.3     | 1138.3     |   0.0 |  7.47
Other   |            | 330.9      |            |       |  2.17

Nlocal:          10820 ave       10820 max       10820 min
Histogram: 1 0 0 0 0 0 0 0 0 0
Nghost:          22897 ave       22897 max       22897 min
Histogram: 1 0 0 0 0 0 0 0 0 0
Neighs:              0 ave           0 max           0 min
Histogram: 1 0 0 0 0 0 0 0 0 0
FullNghs:  6.00478e+06 ave 6.00478e+06 max 6.00478e+06 min
Histogram: 1 0 0 0 0 0 0 0 0 0

Total # of neighbors = 6004776
Ave neighs/atom = 554.97006
Ave special neighs/atom = 5.7689464
Neighbor list builds = 66630
Dangerous builds = 0

# --- Cleanup ---
unfix npt_fix

undump dump_npt

# --- Write Output ---
write_dump all custom npt_prod300_last.dump id type mol x y z xu yu zu vx vy vz modify sort id
write_data /home/arz2/PolyJarvis/data/PSU2/lammps/equil/npt_prod300/npt_prod300_out.data
System init for write_data ...
PPPM Kokkos initialization ...
  using 12-bit tables for long-range coulomb
  G vector (1/distance) = 0.3020102
  grid = 36 36 36
  stencil order = 5
  estimated absolute RMS force accuracy = 0.00028943354
  estimated relative force accuracy = 8.7162051e-07
  using double precision cuFFT
  3d grid and FFT values/proc = 79507 46656
Generated 28 of 28 mixed pair_coeff terms from sixthpower/sixthpower mixing rule

print "STAGE COMPLETE: NPT T=300.0->300.0K P=1.0->1.0atm steps=2000000"
STAGE COMPLETE: NPT T=300.0->300.0K P=1.0->1.0atm steps=2000000
quit
 |       |  2.17

Nlocal:          10820 ave       10820 max       10820 min
Histogram: 1 0 0 0 0 0 0 0 0 0
Nghost:          22897 ave       22897 max       22897 min
Histogram: 1 0 0 0 0 0 0 0 0 0
Neighs:              0 ave           0 max           0 min
Histogram: 1 0 0 0 0 0 0 0 0 0
FullNghs:  6.00478e+06 ave 6.00478e+06 max 6.00478e+06 min
Histogram: 1 0 0 0 0 0 0 0 0 0

Total # of neighbors = 6004776
Ave neighs/atom = 554.97006
Ave special neighs/atom = 5.7689464
Neighbor list builds = 66630
Dangerous builds = 0
System init for write_data ...
PPPM Kokkos initialization ...
  using 12-bit tables for long-range coulomb
  G vector (1/distance) = 0.3020102
  grid = 36 36 36
  stencil order = 5
  estimated absolute RMS force accuracy = 0.00028943354
  estimated relative force accuracy = 8.7162051e-07
  using double precision cuFFT
  3d grid and FFT values/proc = 79507 46656
Generated 28 of 28 mixed pair_coeff terms from sixthpower/sixthpower mixing rule
STAGE COMPLETE: NPT T=300.0->300.0K P=1.0->1.0atm steps=2000000
