units real
atom_style full
boundary p p p

# --- Force Field Styles ---
pair_style lj/class2/coul/long 9.5 9.5
kspace_style pppm 1e-6
dielectric 1.000000
bond_style class2
angle_style class2
dihedral_style class2
improper_style class2
special_bonds lj/coul 0 0 1
pair_modify mix sixthpower tail yes
neighbor 2.0 bin
neigh_modify delay 0 every 1 check yes
neigh_modify one 4000
# KOKKOS: package loaded via -pk kokkos on the command line

read_data /home/alexzhao/PolyJarvis/data/PVC2/lammps/equil/npt_prod300/npt_prod300_out.data
Reading data file ...
  orthogonal box = (6.2624668 6.2624668 6.2624668) to (42.123028 42.123028 42.123028)
  1 by 1 by 1 MPI processor grid
  reading atoms ...
  3620 atoms
  reading velocities ...
  3620 velocities
  scanning bonds ...
  4 = max bonds/atom
  scanning angles ...
  12 = max angles/atom
  scanning dihedrals ...
  24 = max dihedrals/atom
  scanning impropers ...
  10 = max impropers/atom
  orthogonal box = (6.2624668 6.2624668 6.2624668) to (42.123028 42.123028 42.123028)
  1 by 1 by 1 MPI processor grid
  reading bonds ...
  3610 bonds
  reading angles ...
  7200 angles
  reading dihedrals ...
  10710 dihedrals
  reading impropers ...
  4800 impropers
Finding 1-2 1-3 1-4 neighbors ...
  special bond factors lj:    0        0        1       
  special bond factors coul:  0        0        1       
     4 = max # of 1-2 neighbors
     6 = max # of 1-3 neighbors
    10 = max # of special neighbors
  special bonds CPU = 0.003 seconds
  read_data CPU = 0.264 seconds


# --- Thermo Output ---
thermo_style custom step time temp press enthalpy etotal ke pe ebond eangle edihed eimp evdwl ecoul elong etail vol lx ly lz density pxx pyy pzz
thermo_modify flush yes
thermo 100

# --- Trajectory ---
dump dump_npt all custom 1000 /home/alexzhao/PolyJarvis/data/PVC2/lammps/mechanical/bm_series/bm_P1000/bm_P1000.dump id type mol x y z ix iy iz vx vy vz

# --- Restart Checkpointing ---
restart 10000 npt_1.rst npt_2.rst

# --- Initial Velocities (optional) ---
# Velocities read from data file

# --- SHAKE Constraints ---
fix shake_fix all shake 1e-4 1000 0 m 1.008
Finding SHAKE clusters ...
     590 = # of size 2 clusters
     600 = # of size 3 clusters
      10 = # of size 4 clusters
       0 = # of frozen angles
  find clusters CPU = 0.002 seconds

# --- NPT Thermostat + Barostat (Nose-Hoover) ---
# T_damp = 100.0 fs  (heat bath coupling)
# P_damp = 1000.0 fs  (pressure bath coupling, ~10x T_damp typical)
# Ramp: T=300.0->300.0K  P=1000.0->1000.0atm
timestep 1.0
fix npt_fix all npt temp 300.0 300.0 100.0 iso 1000.0 1000.0 1000.0

run 500000
PPPM Kokkos initialization ...
  using 12-bit tables for long-range coulomb
  G vector (1/distance) = 0.29543835
  grid = 24 24 24
  stencil order = 5
  estimated absolute RMS force accuracy = 0.00037623808
  estimated relative force accuracy = 1.1330298e-06
  using double precision cuFFT
  3d grid and FFT values/proc = 29791 13824
Generated 6 of 6 mixed pair_coeff terms from sixthpower/sixthpower mixing rule
Neighbor list info ...
  update: every = 1 steps, delay = 0 steps, check = yes
  max neighbors/atom: 4000, page size: 100000
  master list distance cutoff = 11.5
  ghost atom cutoff = 11.5
  binsize = 11.5, bins = 4 4 4
  1 neighbor lists, perpetual/occasional/extra = 1 0 0
  (1) pair lj/class2/coul/long/kk, perpetual
      attributes: full, newton off, kokkos_device
      pair build: full/bin/kk/device
      stencil: full/bin/3d
      bin: kk/device
Per MPI rank memory allocation (min/avg/max) = 24.92 | 24.92 | 24.92 Mbytes
   Step          Time           Temp          Press         Enthalpy        TotEng         KinEng         PotEng         E_bond        E_angle        E_dihed        E_impro         E_vdwl         E_coul         E_long         E_tail         Volume           Lx             Ly             Lz          Density          Pxx            Pyy            Pzz      
         0   0              362.13356      1962.853       251.33401     -1068.7906      3251.6673     -4320.4579      632.47098      1983.4101     -2098.1017      15.616065     -988.87862     -1613.9477     -2251.0269     -274.41597      46115.96       35.860561      35.860561      35.860561      1.3510051      1924.2025      1395.6271      2568.7294    
       100   100            301.09686     -638.14038     -1978.8026     -1551.2982      2703.607      -4254.9052      673.28874      1970.4352     -2054.2539      15.448858     -992.00455     -1616.0167     -2251.8027     -275.49401      45935.503      35.813725      35.813725      35.813725      1.3563125     -139.67428     -1315.5618     -459.18508    
       200   200            300.84094      1322.5662     -678.18224     -1555.7122      2701.309      -4257.0212      653.95546      1981.1162     -2054.0867      15.053666     -979.38152     -1618.6599     -2255.0183     -278.15826      45495.523      35.699014      35.699014      35.699014      1.3694292      3754.6118      1165.6404     -952.55349    
       300   300            300.33729      2157.6672     -195.99235     -1615.0141      2696.7866     -4311.8007      622.99109      1981.2297     -2047.5953      15.114597     -1006.0711     -1622.0148     -2255.4549     -280.6286       45095.032      35.593954      35.593954      35.593954      1.3815912      3442.5758      1358.1504      1672.2754    
       400   400            295.59673      1844.2484     -468.95628     -1674.7428      2654.2202     -4328.963       646.64342      1950.6444     -2070.2297      15.116623     -1000.9599     -1616.1465     -2254.0314     -282.28351      44830.659      35.52426       35.52426       35.52426       1.3897386      1176.399       1555.9682      2800.3781    
       500   500            294.42917      1908.5584     -426.69208     -1673.8762      2643.7365     -4317.6127      627.98484      1978.7193     -2068.3151      15.041758     -1000.9502     -1616.5703     -2253.5229     -282.43038      44807.347      35.518101      35.518101      35.518101      1.3904617      2623.1402      1992.1027      1110.4324    
       600   600            306.03102     -276.5697      -1773.0925     -1591.8749      2747.9117     -4339.7866      652.48491      1949.5608     -2046.4727      14.559998     -1043.431      -1611.3201     -2255.1686     -281.67005      44928.298      35.550031      35.550031      35.550031      1.3867184     -209.36878      614.72377     -1235.0641    
       700   700            306.3738       714.37912     -1072.9482     -1541.396       2750.9896     -4292.3856      670.23915      1965.2856     -2047.1575      15.643359     -1031.2349     -1610.6866     -2254.4748     -281.45186      44963.128      35.559216      35.559216      35.559216      1.3856442      338.58964      476.75654      1327.7912    
       800   800            298.89782      1527.7088     -559.82279     -1559.8363      2683.8614     -4243.6977      660.64967      2007.1369     -2047.9376      14.399623     -1003.9019     -1617.8251     -2256.2193     -281.94943      44883.778      35.538285      35.538285      35.538285      1.3880939      3463.6232      486.15906      633.34396    
       900   900            302.89892      1576.152      -554.41558     -1586.1499      2719.788      -4305.9379      662.19249      1935.4626     -2048.0202      14.664047     -999.22629     -1614.5185     -2256.4921     -281.94654      44884.239      35.538407      35.538407      35.538407      1.3880796      2457.4807      1309.9771      960.99819    
      1000   1000           300.21319      1124.041      -863.17215     -1600.5647      2695.6724     -4296.2371      671.07606      1955.7071     -2045.5802      14.712209     -1017.3436     -1619.6171     -2255.1915     -281.3325       44982.203      35.564243      35.564243      35.564243      1.3850566     -833.98278      125.44651      4080.6593    
      1100   1100           296.4448       1075.7395     -929.06194     -1636.277       2661.8352     -4298.1122      671.8845       1958.4808     -2052.0519      15.010892     -1028.0437     -1610.6009     -2252.7919     -280.73214      45078.4        35.589577      35.589577      35.589577      1.3821009      1251.843       75.42161       1899.9538    
      1200   1200           291.33356      1894.3042     -506.87928     -1752.5796      2615.9404     -4368.52        624.94263      1922.7836     -2063.0562      15.769192     -999.91288     -1614.7376     -2254.3087     -280.65492      45090.804      35.592841      35.592841      35.592841      1.3817207      1308.6514      1719.2859      2654.9753    
      1300   1300           287.30203      1491.1423     -748.9356      -1728.1847      2579.7405     -4307.9253      653.36344      2013.8018     -2083.6032      15.492257     -1035.9195     -1616.7662     -2254.2939     -281.03631      45029.612      35.576733      35.576733      35.576733      1.3835984      1673.8474      1260.5113      1539.0683    
      1400   1400           295.91501      1179.0892     -870.22643     -1644.1622      2657.0781     -4301.2403      662.36633      1954.4681     -2062.8606      15.369892     -994.76586     -1620.8429     -2254.9754     -281.17602      45007.237      35.57084       35.57084       35.57084       1.3842862      1238.3675      186.23817      2112.662     
      1500   1500           299.87333      1305.261      -747.57993     -1604.1993      2692.6207     -4296.8199      660.45917      2002.0952     -2076.2816      15.825565     -1019.2076     -1624.1744     -2255.5363     -281.21987      45000.219      35.568991      35.568991      35.568991      1.3845021      2136.2441      923.77057      855.76818    
      1600   1600           306.53401      1101.7402     -866.20785     -1589.3421      2752.4282     -4341.7703      666.08054      1918.4849     -2057.8885      15.115088     -1003.6277     -1623.2296     -2256.7052     -281.188        45005.32       35.570335      35.570335      35.570335      1.3843452      971.889        2272.7537      60.57808     
      1700   1700           299.10859     -189.62023     -1743.4371     -1618.8947      2685.7539     -4304.6485      692.56589      1950.6912     -2060.3896      15.219282     -1031.2412     -1615.0787     -2256.4155     -280.99828      45035.705      35.578338      35.578338      35.578338      1.3834112      1468.7741      572.48942     -2610.1242    
      1800   1800           297.28111      73.249727     -1656.2361     -1704.3041      2669.3446     -4373.6487      662.2527       1887.9969     -2049.423       15.340356     -1020.1207     -1616.4152     -2253.2797     -281.24594      44996.048      35.567892      35.567892      35.567892      1.3846304      501.23484      52.755847     -334.24151    
      1900   1900           291.98029      632.75308     -1287.4352     -1702.0969      2621.7475     -4323.8444      666.50109      1951.116      -2065.3621      15.967898     -1023.8501     -1615.3253     -2252.892      -281.62866      44934.901      35.551773      35.551773      35.551773      1.3865146      329.53509      1944.1752     -375.45106    
      2000   2000           297.98345     -126.50853     -1691.7101     -1608.8572      2675.6511     -4284.5083      689.7776       1964.5431     -2044.3872      16.313824     -1046.858      -1609.8433     -2254.0543     -281.80481      44906.812      35.544364      35.544364      35.544364      1.3873819     -493.94536     -31.058972      145.47873    
      2100   2100           303.17942      2185.26       -147.35977     -1573.4097      2722.3066     -4295.7164      684.3251       1935.8485     -2051.5841      15.229099     -1007.6326     -1616.8401     -2255.0623     -282.8166       44746.157      35.501926      35.501926      35.501926      1.3923631      1523.6544      3234.6131      1797.5124    
      2200   2200           301.80587      953.39052     -973.70439     -1594.8731      2709.9733     -4304.8464      695.43427      1919.127      -2041.0466      15.536239     -1025.5627     -1614.6501     -2253.6846     -283.26817      44674.824      35.483051      35.483051      35.483051      1.3945863      2499.8592      1253.4065     -893.09412    
      2300   2300           304.16908      983.94038     -1007.9061     -1648.8916      2731.193      -4380.0846      683.09148      1898.358      -2073.7399      14.667074     -1032.4105     -1617.2647     -2252.786      -283.30685      44668.724      35.481436      35.481436      35.481436      1.3947767      586.51713      341.31279      2023.9912    
      2400   2400           297.58981      307.23679     -1495.1957     -1695.8243      2672.1165     -4367.9407      673.26461      1910.1489     -2046.3028      14.485658     -1048.1691     -1617.1996     -2254.1685     -282.62909      44775.843      35.509775      35.509775      35.509775      1.39144       -1.3883194     -183.5535       1106.6522    
      2500   2500           296.489        1034.5794     -993.86959     -1669.8451      2662.2321     -4332.0772      706.21352      1897.5327     -2060.1672      14.530491     -1013.8915     -1620.4055     -2255.8897     -282.46809      44801.363      35.51652       35.51652       35.51652       1.3906474      2428.9661      694.71159     -19.939408    
      2600   2600           305.88994      1537.8174     -544.58463     -1550.2433      2746.645      -4296.8883      685.63232      1964.9144     -2051.7944      16.334543     -1040.0395     -1615.5976     -2256.3379     -282.22188      44840.449      35.526846      35.526846      35.526846      1.3894352      1559.9219      2234.1537      819.37651    
      2700   2700           297.59837      1069.0069     -835.94037     -1533.9499      2672.1934     -4206.1433      674.14341      2002.6321     -2041.7499      14.898481     -979.58564     -1623.1634     -2253.3183     -282.65434      44771.843      35.508718      35.508718      35.508718      1.3915643      644.39861      1495.399       1067.2231    
      2800   2800           302.12627      606.61603     -1183.608      -1580.0623      2712.8503     -4292.9125      686.6326       1939.1739     -2054.5678      15.479435     -1007.5496     -1618.8287     -2253.2524     -282.39519      44812.93       35.519577      35.519577      35.519577      1.3902884      1815.8295     -993.14282      997.16142    
      2900   2900           300.25482      659.08973     -1203.9996     -1634.8774      2696.0462     -4330.9235      669.73332      1934.5636     -2052.6594      15.24023      -1027.6363     -1617.3453     -2252.8197     -282.31047      44826.377      35.523129      35.523129      35.523129      1.3898714     -4.9819644      462.49018      1519.761     
      3000   3000           298.91205      511.74142     -1320.2936     -1654.9895      2683.9891     -4338.9787      680.19304      1903.4116     -2048.9724      15.055696     -1023.3575     -1612.7959     -2252.5132     -282.18676      44846.03       35.52832       35.52832       35.52832       1.3892623     -898.23463      2064.3492      369.10974    
      3100   3100           303.60712     -72.575424     -1649.0226     -1601.5356      2726.147      -4327.6826      686.12191      1950.6665     -2038.0953      15.444938     -1067.5533     -1619.0547     -2255.2127     -282.06648      44865.152      35.533369      35.533369      35.533369      1.3886702     -1009.6641      1896.2582     -1104.3203    
      3200   3200           300.56922      1861.3631     -319.28982     -1532.9742      2698.8692     -4231.8434      691.05132      1987.0603     -2055.411       15.470415     -990.71849     -1622.1993     -2257.0966     -283.04915      44709.393      35.4922        35.4922        35.4922        1.393508       1576.0429      1788.3826      2219.6639    
      3300   3300           301.05481      1562.2842     -527.42649     -1544.676       2703.2294     -4247.9054      658.33022      2020.6151     -2067.2468      14.673084     -1005.4095     -1612.2717     -2256.5956     -283.44517      44646.927      35.475663      35.475663      35.475663      1.3954577      1383.2893      2353.895       949.6683     
      3400   3400           296.71059      1520.5145     -643.76882     -1637.0965      2664.2218     -4301.3183      655.2602       1945.7453     -2057.5101      14.944846     -994.3721      -1612.3822     -2253.0042     -282.51048      44794.642      35.514744      35.514744      35.514744      1.390856       1577.4245      1208.0619      1776.0571    
      3500   3500           297.44371      988.11413     -1031.3208     -1680.9773      2670.8046     -4351.7819      658.80194      1954.3109     -2083.9309      15.756285     -1044.1646     -1602.346      -2250.2095     -280.71127      45081.751      35.590459      35.590459      35.590459      1.3819982      1411.5584      375.4146       1177.3694    
      3600   3600           294.62065      129.6383      -1563.8397     -1649.499       2645.4558     -4294.9548      689.32015      1926.517      -2056.4596      15.799545     -1022.0436     -1601.6349     -2246.4534     -279.3158       45306.982      35.649631      35.649631      35.649631      1.375128       2101.0212     -945.82027     -766.28598    
      3700   3700           303.73587     -108.06098     -1661.3051     -1589.7828      2727.3031     -4317.0859      704.99937      1923.4791     -2084.1524      15.316576     -1017.2046     -1610.5514     -2248.9725     -278.84576      45383.353      35.669651      35.669651      35.669651      1.3728139      824.94275      79.871169     -1228.9969    
      3800   3800           307.39764     -550.3239      -1929.1636     -1565.5228      2760.1829     -4325.7057      683.66513      1967.1522     -2084.5935      16.115943     -1051.0061     -1607.2562     -2249.7831     -279.30733      45308.355      35.649992      35.649992      35.649992      1.3750863     -1007.461      -508.64497     -134.86579    
      3900   3900           299.47669      575.88721     -1200.6056     -1578.7583      2689.0592     -4267.8175      679.35516      1971.5219     -2080.3351      14.884903     -989.53072     -1613.4736     -2250.2401     -281.06494      45025.025      35.575525      35.575525      35.575525      1.3837393      557.47547     -80.357753      1250.5439    
      4000   4000           301.90312      113.07797     -1516.6906     -1590.5911      2710.8465     -4301.4377      699.42317      1914.4518     -2056.8981      15.522773     -1016.3258     -1608.0675     -2249.544      -282.40154      44811.921      35.51931       35.51931       35.51931       1.3903197      2313.6026      558.27935     -2532.6481    
      4100   4100           302.87237      770.92769     -1107.4833     -1609.7892      2719.5496     -4329.3388      693.25414      1911.0014     -2062.9499      13.807782     -1017.4739     -1617.7396     -2249.2387     -283.25782      44676.457      35.483483      35.483483      35.483483      1.3945353      1356.8924      980.50811     -24.617415    
      4200   4200           294.12101      808.04658     -1182.1306     -1708.2762      2640.9694     -4349.2456      663.26546      1878.098      -2058.5967      14.181157     -974.71842     -1621.6281     -2249.847      -283.44382      44647.14       35.47572       35.47572       35.47572       1.395451       2767.9334     -746.09091      402.29725    
      4300   4300           291.28061      138.48343     -1604.8463     -1695.264       2615.4649     -4310.729       675.14929      1969.3968     -2064.3435      14.960758     -1026.5981     -1624.0656     -2255.2287     -282.67063      44769.264      35.508036      35.508036      35.508036      1.3916445      171.36241      569.41623     -325.32837    
      4400   4400           300.01842     -684.61512     -2059.95       -1610.7846      2693.9235     -4304.7081      727.55834      1939.8433     -2053.4163      15.362846     -1075.1295     -1608.027      -2250.8998     -281.30453      44986.676      35.565422      35.565422      35.565422      1.3849189     -344.14047      561.70596     -2271.4108    
      4500   4500           303.58619      828.83366     -1028.1692     -1573.1004      2725.9591     -4299.0596      664.10537      1963.0559     -2068.979       16.335813     -1012.9077     -1609.5714     -2251.0986     -280.71277      45081.511      35.590396      35.590396      35.590396      1.3820055      2408.8968     -5.6297693      83.233964    
      4600   4600           304.6981       997.69294     -904.718       -1559.8406      2735.9431     -4295.7837      674.07678      1958.309      -2068.4635      15.021719     -1003.5323     -1619.0071     -2252.1882     -281.06765      45024.59       35.575411      35.575411      35.575411      1.3837527      739.58488      824.10088      1429.3931    
      4700   4700           296.82418      374.38822     -1376.1745     -1621.9272      2665.2417     -4287.1689      688.23116      1953.6774     -2066.9724      15.390851     -1001.5975     -1620.4596     -2255.4387     -281.1645       45009.081      35.571325      35.571325      35.571325      1.3842295      211.83901      1158.6187     -247.29308    
      4800   4800           296.54109      1432.2885     -768.63964     -1708.6126      2662.6998     -4371.3124      628.56448      1921.391      -2064.5299      15.152793     -998.15387     -1619.8683     -2253.8686     -281.22356      44999.629      35.568835      35.568835      35.568835      1.3845202      2461.8888      198.72621      1636.2505    
      4900   4900           294.10216      949.27955     -1058.296      -1682.3809      2640.8002     -4323.1811      678.08302      1933.7756     -2066.4311      15.68293      -1016.3212     -1614.2725     -2253.6979     -280.72883      45078.932      35.589717      35.589717      35.589717      1.3820846      616.27526      714.74779      1516.8156    
      5000   5000           299.53581     -119.44189     -1709.0962     -1630.486       2689.59       -4320.0759      698.60646      1932.9779     -2061.438       14.88066      -1037.0053     -1613.9826     -2254.1151     -280.42336      45128.036      35.602635      35.602635      35.602635      1.3805807     -424.84974     -260.08535      326.60942    
      5100   5100           296.23981      857.63969     -1020.8549     -1585.0388      2659.9946     -4245.0334      701.42865      1964.7415     -2057.7381      15.346413     -999.0464      -1615.7417     -2254.0238     -280.55676      45106.58       35.596992      35.596992      35.596992      1.3812375      1780.1045      902.47822     -109.66369    
      5200   5200           307.80125      895.18269     -971.46099     -1560.2301      2763.8069     -4324.0371      638.83243      1971.1832     -2061.5877      15.829977     -1013.8018     -1620.0563     -2254.4368     -280.61001      45098.02       35.59474       35.59474       35.59474       1.3814996     -334.27416      1611.9968      1407.8254    
      5300   5300           308.42222      1000.0171     -916.32599     -1572.8864      2769.3828     -4342.2692      653.50878      1913.0623     -2045.6162      14.51696      -996.17774     -1626.3153     -2255.248      -281.10544      45018.537      35.573816      35.573816      35.573816      1.3839388      2371.3641     -527.13368      1155.8209    
      5400   5400           305.17217      1939.9023     -320.82727     -1590.8957      2740.1999     -4331.0957      653.4072       1910.6395     -2042.5902      14.356153     -990.14775     -1623.7051     -2253.0555     -281.89622      44892.251      35.540521      35.540521      35.540521      1.3878319      1807.5667      2832.3112      1179.8289    
      5500   5500           301.58496      1170.6887     -852.90361     -1619.8136      2707.9897     -4327.8032      681.64449      1906.2554     -2037.3495      14.98341      -1020.0803     -1621.2696     -2251.9871     -281.73031      44918.688      35.547497      35.547497      35.547497      1.3870151      959.44758      1413.1199      1139.4986    
      5600   5600           291.76049      1675.1781     -625.93084     -1723.3939      2619.7739     -4343.1678      656.65685      1929.8155     -2050.5823      15.378778     -1011.1749     -1629.1731     -2254.0886     -281.71346      44921.374      35.548205      35.548205      35.548205      1.3869322      2501.6752      863.25726      1660.6019    
      5700   5700           294.66422      945.86582     -1077.8262     -1696.7292      2645.847      -4342.5762      669.09172      1911.3132     -2049.8631      14.55071      -1014.2552     -1622.1623     -2251.2512     -282.0613       44865.976      35.533586      35.533586      35.533586      1.3886447      973.08674      736.17735      1128.3334    
      5800   5800           300.41515      1520.2722     -626.49136     -1618.8306      2697.4858     -4316.3164      680.4939       1923.5819     -2073.5624      14.87714      -990.70035     -1621.7872     -2249.2195     -282.7468       44757.203      35.504847      35.504847      35.504847      1.3920195      1959.5765      1115.7814      1485.4586    
      5900   5900           301.36602      1536.6425     -604.36724     -1607.7476      2706.0238     -4313.7713      673.5067       1925.5214     -2072.0783      15.139208     -981.83377     -1623.3209     -2250.7057     -282.64661      44773.068      35.509042      35.509042      35.509042      1.3915262      861.32101      971.79368      2776.8128    
      6000   6000           300.06448      611.31247     -1209.7632     -1610.4917      2694.3371     -4304.8287      689.42924      1949.4368     -2072.5614      15.709363     -1018.6718     -1617.962      -2250.2089     -281.54619      44948.063      35.555244      35.555244      35.555244      1.3861086      1265.6341      99.171043      469.13223    
      6100   6100           304.12555      77.931695     -1560.1399     -1611.4567      2730.8022     -4342.2588      677.677        1920.3848     -2052.6109      15.38158      -1045.8256     -1607.7962     -2249.4695     -280.27933      45151.227      35.608733      35.608733      35.608733      1.3798716     -730.10518      995.44311     -31.542846    
      6200   6200           303.09936      477.14015     -1266.3162     -1581.0762      2721.5878     -4302.664       666.16209      1950.7857     -2043.7848      14.803689     -1028.7344     -1610.2014     -2251.695      -279.77112      45233.245      35.630281      35.630281      35.630281      1.3773696      1291.5883      355.67645     -215.84433    
      6300   6300           303.20014      1270.2177     -717.50506     -1555.4771      2722.4927     -4277.9698      661.85631      1941.1304     -2042.3755      14.292909     -981.38439     -1619.1579     -2252.3316     -279.75971      45235.09       35.630766      35.630766      35.630766      1.3773134      1357.6468      2050.111       402.89541    
      6400   6400           303.82098      1140.7301     -801.50415     -1553.6395      2728.0673     -4281.7068      644.22038      2012.2861     -2052.4525      15.495835     -1030.5259     -1618.1332     -2252.5975     -279.91324      45210.28       35.62425       35.62425       35.62425       1.3780693      1386.2168      1434.236       601.73764    
      6500   6500           293.47612      1398.9268     -706.54288     -1626.4111      2635.1789     -4261.59        667.69467      1989.5188     -2057.8774      15.618586     -997.49097     -1624.0942     -2254.9594     -280.6764       45087.352      35.591933      35.591933      35.591933      1.3818265      1577.9519      765.18961      1853.6389    
      6600   6600           291.56296      1238.7249     -867.35725     -1679.082       2618.0002     -4297.0822      645.0851       1966.9432     -2067.184       14.698782     -978.37193     -1623.3985     -2254.8547     -281.64535      44932.238      35.55107       35.55107       35.55107       1.3865968      1870.4551      1030.9935      814.72604    
      6700   6700           301.0513       1898.543      -406.2009      -1651.9304      2703.1979     -4355.1283      643.52605      1940.7005     -2058.9186      15.525565     -1025.5336     -1617.8496     -2252.5787     -281.27634      44991.185      35.56661       35.56661       35.56661       1.3847801      3067.5707      1327.6408      1300.4176    
      6800   6800           299.33861      964.99118     -971.97416     -1606.8413      2687.8193     -4294.6606      664.85888      1961.2369     -2057.1851      14.928139     -1011.1209     -1617.6945     -2249.684      -280.5285       45111.124      35.598187      35.598187      35.598187      1.3810983      658.65154      1062.9179      1173.4041    
      6900   6900           302.73661     -956.4735      -2150.5164     -1519.375       2718.3306     -4237.7055      735.90802      1967.2821     -2065.2434      15.19596      -1025.9034     -1614.2215     -2250.7233     -279.69375      45245.759      35.633566      35.633566      35.633566      1.3769887     -1394.3384      496.39227     -1971.4743    
      7000   7000           305.94084      1561.8295     -394.16902     -1422.5805      2747.102      -4169.6825      688.25496      2029.6641     -2076.9248      15.179844     -953.0882      -1620.7386     -2252.0297     -280.28719      45149.962      35.6084        35.6084        35.6084        1.3799103      1236.8437      2654.8941      793.75074    
      7100   7100           302.84586      887.80131     -897.43082     -1481.668       2719.3116     -4200.9796      663.62571      2036.599      -2053.1112      15.547748     -994.10843     -1615.3311     -2254.2013     -280.45495      45122.954      35.601299      35.601299      35.601299      1.3807362      831.51752      590.58565      1241.3008    
      7200   7200           303.13442      1046.5236     -880.39285     -1567.5936      2721.9026     -4289.4962      683.48933      1946.8787     -2064.4628      14.466563     -1001.0001     -1618.0265     -2250.8415     -281.06186      45025.517      35.575655      35.575655      35.575655      1.3837242     -180.48572      2083.6554      1236.4013    
      7300   7300           296.47275      543.45396     -1262.7362     -1619.8894      2662.0862     -4281.9756      690.0524       1968.835      -2056.8714      15.719277     -1025.1414     -1619.7185     -2254.8511     -280.83082      45062.561      35.585408      35.585408      35.585408      1.3825867     -1532.1605      1863.3992      1299.1232    
      7400   7400           296.33854      1796.7795     -470.20402     -1650.1713      2660.8811     -4311.0524      622.6621       2027.4638     -2083.5011      15.539865     -1016.4959     -1622.6253     -2254.0959     -281.0356       45029.725      35.576763      35.576763      35.576763      1.3835949      1955.5712      1408.5135      2026.254     
      7500   7500           296.12579      618.92636     -1245.7421     -1652.2836      2658.9707     -4311.2543      672.92909      1972.9611     -2059.4045      14.75362      -1032.6769     -1623.9983     -2255.8185     -280.97693      45039.128      35.579239      35.579239      35.579239      1.383306      -636.93328      609.20468      1884.5077    
      7600   7600           302.25753      1559.24       -521.78173     -1548.2512      2714.0288     -4262.28        700.71664      1978.6078     -2079.9852      15.216909     -1006.5167     -1619.2677     -2251.0517     -280.35187      45139.544      35.605661      35.605661      35.605661      1.3802288      567.73303      1949.6539      2160.3331    
      7700   7700           303.63664      33.007032     -1508.3074     -1530.1093      2726.4121     -4256.5214      682.33666      2009.2791     -2059.8397      15.39287      -1047.3072     -1607.1991     -2249.184      -279.41432      45291.006      35.645441      35.645441      35.645441      1.375613      -257.54139      1164.2992     -807.73671    
      7800   7800           306.48824      814.29615     -1052.4484     -1589.9384      2752.0172     -4341.9557      660.39661      1932.4981     -2077.4407      15.305405     -1009.1635     -1613.5771     -2249.9745     -279.60727      45259.752      35.63724       35.63724       35.63724       1.3765629      1601.835      -462.23927      1303.2927    
      7900   7900           297.12855      99.334402     -1556.3842     -1621.7728      2667.9747     -4289.7475      665.94684      1961.1359     -2055.4387      15.356623     -1011.1379     -1615.4288     -2250.1815     -280.37176      45136.342      35.604819      35.604819      35.604819      1.3803267     -406.20184     -28.582179      732.78722    
      8000   8000           303.16193      1762.9797     -437.58452     -1591.866       2722.1496     -4314.0156      658.8619       1919.5858     -2056.4738      14.843359     -976.65288     -1622.2004     -2251.9795     -281.88509      44894.023      35.540989      35.540989      35.540989      1.3877771      1274.536       1906.4001      2108.0029    
      8100   8100           303.86341      1721.2861     -457.71791     -1583.9489      2728.4484     -4312.3973      652.2048       1970.0946     -2071.8344      15.335503     -1002.9483     -1621.3253     -2253.9242     -282.07338      44864.056      35.533079      35.533079      35.533079      1.3887041      2424.0895      2046.0148      693.75404    
      8200   8200           300.40767      184.76989     -1482.4024     -1603.3966      2697.4186     -4300.8152      688.02492      1948.0452     -2047.1872      15.544196     -1035.3874     -1614.943      -2254.9119     -281.84042      44901.139      35.542867      35.542867      35.542867      1.3875572      980.03042      882.85722     -1308.578     
      8300   8300           298.0074       786.93341     -1182.8151     -1697.5332      2675.8661     -4373.3994      669.85375      1895.7038     -2053.469       14.338373     -1028.7052     -1616.937      -2254.1842     -282.16624      44849.291      35.529181      35.529181      35.529181      1.3891613      49.507951      977.61583      1333.6765    
      8400   8400           292.80892      472.66574     -1426.138      -1735.1037      2629.1879     -4364.2916      652.57632      1936.691      -2058.8763      14.395048     -1041.8595     -1615.3745     -2251.8437     -282.34515      44820.871      35.521675      35.521675      35.521675      1.3900421      465.23546      482.33643      470.42533    
      8500   8500           299.41512      1166.2276     -895.74511     -1657.4474      2688.5063     -4345.9538      677.18863      1922.7156     -2064.7746      14.590969     -1020.5278     -1621.6765     -2253.47       -282.57552      44784.331      35.512019      35.512019      35.512019      1.3911763      2146.3203      519.30597      833.05639    
      8600   8600           301.22782     -609.3842      -2016.356      -1617.3829      2704.7829     -4322.1657      671.71551      2007.748      -2070.3946      14.875366     -1076.9285     -1615.187      -2253.9945     -281.8928       44892.795      35.540665      35.540665      35.540665      1.3878151     -1022.346      -193.11388     -612.69276    
      8700   8700           304.08422      1815.2752     -426.35073     -1613.4096      2730.4311     -4343.8407      625.28604      1932.8057     -2060.3493      13.311499     -973.30954     -1625.8451     -2255.7401     -282.2323       44838.793      35.526408      35.526408      35.526408      1.3894865      1117.4365      2251.0885      2077.3005    
      8800   8800           295.39197      959.50863     -1020.4001     -1650.0321      2652.3817     -4302.4138      660.35715      1958.501      -2050.187       15.162114     -1017.1256     -1615.2631     -2253.8584     -281.2539       44994.774      35.567556      35.567556      35.567556      1.3846696      182.47868      1032.8575      1663.1897    
      8900   8900           290.1305       734.32639     -1232.9166     -1716.1917      2605.1379     -4321.3296      646.95385      1959.8331     -2043.964       15.467258     -1035.9259     -1611.3533     -2252.3407     -280.43438      45126.264      35.602169      35.602169      35.602169      1.380635       1120.2406      1038.6991      44.039467    
      9000   9000           289.01644      1007.9572     -1040.0859     -1703.2671      2595.1345     -4298.4016      659.14679      1952.1931     -2049.9905      14.479448     -993.39819     -1624.6412     -2256.191      -280.50875      45114.3        35.599023      35.599023      35.599023      1.3810011      1702.167      -422.27327      1743.9778    
      9100   9100           304.34729      549.87129     -1235.9877     -1597.2781      2732.7932     -4330.0714      635.34971      1951.0513     -2043.4625      14.744007     -1014.1248     -1616.3994     -2257.2297     -280.89311      45052.567      35.582778      35.582778      35.582778      1.3828934      525.46879      1512.4561     -388.311      
      9200   9200           299.8948       1375.2574     -674.52454     -1576.2872      2692.8134     -4269.1006      670.5578       1934.5993     -2056.3538      14.319598     -965.05156     -1614.4652     -2252.7067     -281.4675       44960.629      35.558557      35.558557      35.558557      1.3857212      1477.5062      2222.5816      425.68432    
      9300   9300           303.839        731.76809     -1093.8335     -1573.9638      2728.2292     -4302.1929      670.16825      1933.8916     -2042.1294      14.400226     -1009.7653     -1618.5323     -2250.226      -281.28776      44989.358      35.566129      35.566129      35.566129      1.3848364      953.89277      1191.6151      49.796436    
      9400   9400           298.04258      1711.6688     -492.02266     -1613.0382      2676.182      -4289.2202      652.16884      1944.7451     -2041.0669      14.196614     -987.73171     -1618.3171     -2253.215      -281.80235      44907.204      35.544467      35.544467      35.544467      1.3873698      1830.3485      664.72121      2639.9366    
      9500   9500           294.17465      985.77216     -1044.2219     -1688.9708      2641.4511     -4330.4218      661.29285      1960.5274     -2058.3083      14.635489     -1026.825      -1624.8199     -2256.9244     -282.17757      44847.489      35.528705      35.528705      35.528705      1.3892171      1219.5458     -277.33227      2015.103     
      9600   9600           297.6405       1423.5276     -783.5813      -1713.2459      2672.5716     -4385.8175      622.4062       1950.623      -2056.5591      15.457156     -1038.4558     -1623.0058     -2256.2831     -282.60256      44780.046      35.510886      35.510886      35.510886      1.3913094      1028.9125      1013.7567      2227.9135    
      9700   9700           296.37601      1340.2479     -738.85826     -1612.0082      2661.2176     -4273.2258      633.27935      1985.9858     -2039.3757      15.045866     -988.88688     -1622.6995     -2256.5747     -283.29101      44671.222      35.482097      35.482097      35.482097      1.3946988      1504.9314      890.35897      1625.4532    
      9800   9800           310.39918      2116.4358     -174.41235     -1551.264       2787.1343     -4338.3983      637.90887      1931.3039     -2050.0432      15.061724     -990.43291     -1625.0662     -2257.1304     -283.69683      44607.321      35.46517       35.46517       35.46517       1.3966967      2251.5113      2418.7398      1679.0564    
      9900   9900           303.86373      340.3485      -1353.5414     -1575.5925      2728.4512     -4304.0437      661.09023      1999.7291     -2061.1663      15.239261     -1047.834      -1615.7087     -2255.3932     -282.88348      44735.577      35.499128      35.499128      35.499128      1.3926924     -306.90569     -663.62154      1991.5727    
     10000   10000          297.46205      181.22393     -1519.8097     -1638.3653      2670.9693     -4309.3346      667.77336      1964.8439     -2056.534       14.938072     -1029.1383     -1618.7587     -2252.459      -282.11755      44857.031      35.531225      35.531225      35.531225      1.3889216      997.42574     -408.30429     -45.449666    
     10100   10100          300.42148      792.28556     -1159.0567     -1677.3845      2697.5426     -4374.9271      643.69122      1955.9436     -2074.7927      15.512967     -1050.0372     -1613.3403     -2251.9048     -282.10689      44858.726      35.531672      35.531672      35.531672      1.3888691      731.3828       1342.027       303.44686    
     10200   10200          290.47754      1215.6029     -879.60129     -1672.9768      2608.2541     -4281.2308      660.01492      1971.62       -2049.5075      14.281331     -1007.2433     -1616.7232     -2253.6731     -282.78053      44751.865      35.503435      35.503435      35.503435      1.3921855      964.46771      2049.9612      632.37993    
     10300   10300          301.04716      848.78817     -1032.8337     -1587.3909      2703.1607     -4290.5517      637.98083      1990.7415     -2051.896       14.815258     -1009.788      -1615.8829     -2256.5224     -282.48111      44799.299      35.515975      35.515975      35.515975      1.3907115      894.10404      882.62908      769.6314     
     10400   10400          303.64985      718.57323     -1068.6436     -1539.1946      2726.5308     -4265.7254      652.40205      2003.001      -2046.9735      14.146965     -1006.9571     -1624.8005     -2256.5443     -281.83882      44901.393      35.542934      35.542934      35.542934      1.3875493      54.896877      834.44692      1266.3759    
     10500   10500          297.49263      123.11924     -1480.2489     -1561.2167      2671.2439     -4232.4606      664.06047      2049.6772     -2060.8544      15.956615     -1021.7735     -1622.0315     -2257.4956     -280.64026      45093.158      35.593461      35.593461      35.593461      1.3816486      1471.9143     -481.95699     -620.59962    
     10600   10600          293.33722      396.90836     -1398.2769     -1659.6065      2633.9316     -4293.5381      662.58052      1982.9472     -2038.8285      15.218242     -1037.623      -1620.8146     -2257.0181     -280.30978      45146.323      35.607444      35.607444      35.607444      1.3800215     -685.33308      162.05064      1714.0075    
     10700   10700          296.28202      1465.3562     -725.98737     -1688.5009      2660.3736     -4348.8745      648.45746      1904.9285     -2031.8879      14.242959     -994.915       -1632.6379     -2257.0626     -280.97837      45038.896      35.579178      35.579178      35.579178      1.3833132      1528.5048      1043.0509      1824.513     
     10800   10800          302.95556      757.09724     -1145.9054     -1641.9241      2720.2966     -4362.2207      671.03552      1897.1914     -2051.0402      14.498596     -1012.8635     -1624.9642     -2256.0785     -281.70211      44923.184      35.548683      35.548683      35.548683      1.3868763      865.95885      534.0697       871.26316    
     10900   10900          299.07443      1216.5633     -811.15445     -1605.7966      2685.4472     -4291.2438      665.13938      1971.3345     -2060.3165      15.806201     -1017.6083     -1613.2243     -2252.3748     -282.55282      44787.93       35.51297       35.51297       35.51297       1.3910645      971.79773      688.45505      1989.4372    
     11000   11000          306.36964      1994.5204     -292.33315     -1591.0823      2750.9522     -4342.0346      651.41724      1968.1033     -2062.6112      15.760688     -1047.9079     -1613.577      -2253.2197     -283.43255      44648.914      35.47619       35.47619       35.47619       1.3953956      3275.9126      1247.9533      1459.6954    
     11100   11100          301.59111      1216.1995     -846.4032      -1636.8354      2708.045      -4344.8803      656.37329      1952.1419     -2065.6007      14.57061      -1024.9636     -1623.296      -2254.1059     -283.97278      44563.975      35.453679      35.453679      35.453679      1.3980552      1790.3988      743.3756       1114.824     
     11200   11200          292.58865      789.3639      -1231.6084     -1744.212       2627.2101     -4371.4221      678.67682      1915.4022     -2052.846       13.841449     -1048.792      -1622.5684     -2255.1362     -284.2053       44527.514      35.444007      35.444007      35.444007      1.3992         490.9177       1034.7223      842.45164    
     11300   11300          291.94149      575.41669     -1351.7283     -1725.8991      2621.3992     -4347.2982      647.33377      1966.8048     -2069.7075      14.965206     -1037.3601     -1615.9809     -2253.3536     -283.824        44587.334      35.459872      35.459872      35.459872      1.3973228      393.19364      491.02828      842.02815    
     11400   11400          300.47784      1587.618      -629.34331     -1665.8017      2698.0486     -4363.8504      642.48457      1984.8365     -2091.6427      15.883456     -1044.5298     -1617.854      -2253.0284     -282.70314      44764.114      35.506674      35.506674      35.506674      1.3918046      1090.9832      3276.3849      395.48578    
     11500   11500          298.19631      494.13972     -1308.6455     -1632.3594      2677.5623     -4309.9217      684.49429      1979.0687     -2072.6488      14.869661     -1042.4018     -1618.1434     -2255.1604     -281.72472      44919.579      35.547732      35.547732      35.547732      1.3869876     -464.8586      -21.562913      1968.8407    
     11600   11600          303.03171      832.06699     -1055.5882     -1601.4356      2720.9804     -4322.4159      677.65547      1987.8098     -2056.353       14.776078     -1073.9833     -1617.4691     -2254.8519     -281.3349       44981.819      35.564142      35.564142      35.564142      1.3850684      1450.8743      816.90627      228.42037    
     11700   11700          298.00511      1185.599      -825.99383     -1602.6471      2675.8456     -4278.4927      690.15309      1945.4472     -2037.574       14.837722     -1015.8789     -1622.5035     -2252.9743     -281.73912      44917.283      35.547126      35.547126      35.547126      1.3870585      1974.4945      2141.8218     -559.51941    
     11800   11800          299.31985      254.59032     -1456.9794     -1623.1395      2687.6508     -4310.7903      668.72239      1992.6185     -2056.92        15.556871     -1071.1591     -1609.6131     -2249.996      -282.78203      44751.627      35.503372      35.503372      35.503372      1.3921929      2115.9618     -1491.9272      139.73642    
     11900   11900          294.64073      1073.2733     -1050.7803     -1748.2824      2645.6362     -4393.9185      620.30422      1904.7201     -2048.4346      14.83724      -1029.2737     -1605.4887     -2250.5832     -283.9889       44561.445      35.453008      35.453008      35.453008      1.3981346      1196.9427      1542.8471      480.02993    
     12000   12000          289.69115      774.99464     -1235.1938     -1739.1746      2601.1929     -4340.3674      654.89718      2007.6921     -2081.4439      15.249468     -1074.9377     -1608.3479     -2253.4767     -283.80579      44590.196      35.460631      35.460631      35.460631      1.3972331      1457.9739      1126.3657     -259.35568    
     12100   12100          300.86386      924.705       -1056.7899     -1658.8069      2701.5148     -4360.3217      684.27434      1917.4084     -2095.3253      14.935682     -1018.7219     -1611.4388     -2251.4542     -283.48559      44640.56       35.473977      35.473977      35.473977      1.3956567      702.31075      1667.0849      404.71934    
     12200   12200          297.36237      408.56617     -1341.1677     -1607.8571      2670.0742     -4277.9314      665.34168      2021.7907     -2068.1662      15.46126      -1045.0793     -1612.7764     -2254.5031     -282.74385      44757.669      35.50497       35.50497       35.50497       1.392005      -262.20871      555.10055      932.80669    
     12300   12300          297.14869      1419.0965     -647.22015     -1574.6001      2668.1555     -4242.7556      681.67207      2013.2581     -2071.579       16.809008     -1011.4697     -1617.7447     -2253.7014     -282.41696      44809.476      35.518664      35.518664      35.518664      1.3903956      3332.5886      26.823477      897.8775     
     12400   12400          303.11786      1485.543      -613.58288     -1585.5932      2721.7539     -4307.3471      650.37445      1992.1495     -2063.8622      15.557279     -1031.1191     -1617.5543     -2252.8926     -282.06609      44865.214      35.533385      35.533385      35.533385      1.3886682      951.61971      2670.0252      834.98403    
     12500   12500          299.54857      1754.7426     -544.28687     -1693.6773      2689.7046     -4383.3819      627.33745      1941.5627     -2072.0499      15.565009     -1017.6214     -1624.3707     -2253.805      -281.76196      44913.642      35.546165      35.546165      35.546165      1.3871709      2268.0005      470.84268      2525.3847    
     12600   12600          290.44239     -8.1480354     -1722.8425     -1717.4984      2607.9384     -4325.4367      673.56806      1963.3887     -2056.5885      16.003338     -1054.4407     -1614.6685     -2252.6991     -281.3917       44972.741      35.561749      35.561749      35.561749      1.385348       1472.2488     -1626.3798      129.68695    
     12700   12700          302.80634      879.59548     -1080.1243     -1654.8345      2718.9567     -4373.7912      676.62907      1908.8682     -2076.8954      14.751556     -1031.0887     -1613.6952     -2252.3607     -282.46892      44801.232      35.516486      35.516486      35.516486      1.3906514     -1295.1779      2370.6838      1563.2805    
     12800   12800          293.58887      1367.9843     -715.37519     -1606.2547      2636.1912     -4242.446       661.86599      1992.4679     -2049.3786      15.566652     -996.6239      -1613.9868     -2252.3572     -283.39922      44654.166      35.477581      35.477581      35.477581      1.3952315      1183.3926      1441.8214      1478.739     
     12900   12900          308.35924      806.48569     -1066.5638     -1590.5121      2768.8172     -4359.3293      643.58034      1976.3741     -2066.711       15.281145     -1058.0777     -1616.173      -2253.6032     -284.08268      44546.734      35.449106      35.449106      35.449106      1.3985963      1608.0479     -52.926089      864.33526    
     13000   13000          300.61051      1461.4253     -693.70519     -1643.3056      2699.2399     -4342.5455      687.51323      1953.8379     -2079.2237      15.560392     -1043.6262     -1623.791      -2252.816      -284.03527      44554.17       35.451079      35.451079      35.451079      1.3983629      430.50606      1608.2574      2345.5125    
     13100   13100          291.27139      170.15671     -1611.8363     -1722.7987      2615.3822     -4338.1809      700.66299      1960.1365     -2068.3873      15.708398     -1077.5959     -1617.7643     -2250.9413     -283.01527      44714.746      35.493617      35.493617      35.493617      1.3933412      432.35774     -109.52751      187.63989    
     13200   13200          294.45904      409.88906     -1435.7336     -1702.6491      2644.0047     -4346.6537      672.57286      1967.9946     -2076.2132      16.056405     -1058.0417     -1619.1047     -2249.918      -283.41905      44651.042      35.476753      35.476753      35.476753      1.3953291      490.47675      462.84551      276.34493    
     13300   13300          300.01976      1576.7141     -638.04885     -1661.5224      2693.9354     -4355.4578      638.07688      1954.7597     -2070.0128      15.315779     -1027.6924     -1617.9084     -2247.9966     -284.32356      44508.995      35.439093      35.439093      35.439093      1.3997822      2927.7752     -18.799704      1821.1668    
     13400   13400          297.94861      720.68271     -1140.9338     -1609.0685      2675.3382     -4284.4067      695.51287      1996.3541     -2061.0214      15.783461     -1066.1506     -1615.1108     -2249.7743     -284.12525      44540.06       35.447336      35.447336      35.447336      1.3988059     -24.811245      1202.2018      984.65753    
     13500   13500          306.36878      1098.7541     -863.68937     -1577.0565      2750.9445     -4328.001       684.97537      1939.738      -2075.1879      15.35284      -1026.3799     -1614.7836     -2251.7158     -284.26539      44518.103      35.44151       35.44151       35.44151       1.3994958      682.9975       2633.2648     -19.999865    
     13600   13600          297.13085      1481.8213     -582.15104     -1545.3762      2667.9954     -4213.3716      704.12573      1977.4768     -2046.0106      14.891572     -992.3357      -1618.8151     -2252.7042     -283.92558      44571.383      35.455643      35.455643      35.455643      1.3978229      2021.786       1613.5884      810.08938    
     13700   13700          308.37889      339.67902     -1297.761      -1519.9743      2768.9937     -4288.968       668.21307      1954.6851     -2026.1085      14.479862     -1026.9139     -1621.3135     -2252.0101     -282.12086      44856.505      35.531086      35.531086      35.531086      1.3889378      302.63792      1137.7498     -421.35063    
     13800   13800          301.62233      805.05343     -1070.8836     -1600.4898      2708.3253     -4308.8151      669.11659      1989.25       -2075.0244      15.255727     -1032.5327     -1620.9536     -2253.9267     -280.54865      45107.883      35.597335      35.597335      35.597335      1.3811976      2575.468      -692.36751      532.05978    
     13900   13900          300.22584      743.61862     -1179.0322     -1669.3163      2695.7859     -4365.1023      650.23577      1955.2689     -2071.1461      15.117415     -1040.3967     -1621.2186     -2252.9629     -279.9232       45208.671      35.623828      35.623828      35.623828      1.3781183      435.5633       1890.8181     -95.525543    
     14000   14000          296.23066      1168.415      -884.71758     -1653.1296      2659.9124     -4313.042       653.56823      2013.8895     -2077.6611      16.11744      -1044.2689     -1620.2733     -2254.4139     -280.63349      45094.247      35.593747      35.593747      35.593747      1.3816152      843.15103      368.82066      2293.2735    
     14100   14100          305.47931      72.016083     -1530.9792     -1578.0743      2742.9578     -4321.0321      696.64895      1900.3832     -2049.7259      14.072225     -1002.2638     -1624.3466     -2255.8001     -282.22212      44840.411      35.526836      35.526836      35.526836      1.3894364      859.24018     -568.14619     -75.045739    
     14200   14200          302.13282     -216.52402     -1672.2198     -1531.3313      2712.9091     -4244.2404      713.8501       1961.4859     -2050.3496      14.462587     -1015.4515     -1613.429      -2254.8088     -283.63981      44616.29       35.467547      35.467547      35.467547      1.3964159     -77.213597     -7.2910235     -565.06744    
     14300   14300          302.31333      2141.7947     -176.56219     -1566.0533      2714.5299     -4280.5832      639.0102       2004.4971     -2077.9257      15.327625     -989.18169     -1619.7726     -2252.5381     -284.48449      44483.816      35.432409      35.432409      35.432409      1.4005745      2029.8033      2049.5503      2346.0306    
     14400   14400          301.41663      1227.4504     -814.44497     -1615.1221      2706.4782     -4321.6003      634.99373      2004.6333     -2076.2072      16.045035     -1023.8394     -1623.7343     -2253.4915     -282.93265      44727.802      35.497071      35.497071      35.497071      1.3929345      272.84626      1775.0068      1634.4983    
     14500   14500          296.02815      597.90941     -1261.3075     -1653.8339      2658.0941     -4311.928       670.43585      2029.0391     -2074.1451      16.364701     -1073.3373     -1625.0551     -2255.2301     -281.12732      45015.033      35.572893      35.572893      35.572893      1.3840465      183.1627       658.90927      951.65625    
     14600   14600          296.54748     -138.6401      -1773.953      -1682.7705      2662.7572     -4345.5277      641.15178      2021.0261     -2077.0413      15.382032     -1071.5749     -1621.1615     -2253.3098     -280.617        45096.896      35.594444      35.594444      35.594444      1.3815341     -510.37651     -543.46503      637.92124    
     14700   14700          300.54044      2106.4641     -273.08051     -1653.1291      2698.6108     -4351.7398      609.36774      1991.2111     -2075.2152      16.00856      -1015.5716     -1624.683      -2252.8574     -281.70606      44922.553      35.548516      35.548516      35.548516      1.3868957      1757.2383      2343.9047      2218.2492    
     14800   14800          303.87774      1773.3247     -391.81441     -1549.0426      2728.577      -4277.6196      676.09537      1971.6396     -2059.9592      14.819454     -998.13745     -1626.6122     -2255.4652     -282.81719      44746.063      35.501901      35.501901      35.501901      1.392366       1511.0028      2419.1062      1389.8652    
     14900   14900          306.56343      1372.6324     -632.04552     -1526.9684      2752.6924     -4279.6608      664.15448      1966.7045     -2057.6749      15.171311     -984.52583     -1627.9749     -2255.5153     -283.07738      44704.935      35.491021      35.491021      35.491021      1.393647       1833.7178      805.15008      1479.0292    
     15000   15000          299.31143      742.93356     -1100.7013     -1586.875       2687.5753     -4274.4503      704.27596      1985.4103     -2062.6024      14.736067     -1038.2076     -1624.4312     -2253.6314     -282.02978      44870.991      35.53491       35.53491       35.53491       1.3884895      635.86239     -43.982091      1636.9204    
     15100   15100          302.69281      108.77855     -1584.8857     -1656.3931      2717.9373     -4374.3304      693.92706      1902.7005     -2046.8528      15.02178      -1061.6604     -1622.6959     -2254.7707     -280.75585      45074.594      35.588576      35.588576      35.588576      1.3822176      112.02123      310.99427     -96.679851    
     15200   15200          298.7758      -508.63965     -1992.8588     -1658.1712      2682.7657     -4340.9369      670.73985      1949.0497     -2067.7146      15.272788     -1039.0074     -1616.1126     -2253.1646     -280.48335      45118.385      35.600097      35.600097      35.600097      1.3808761     -536.20403     -1178.9229      189.20795    
     15300   15300          299.77902      2024.9309     -308.30407     -1637.2303      2691.7738     -4329.0041      638.06074      1961.8913     -2069.9763      15.023465     -991.16676     -1627.7146     -2255.1221     -281.21976      45000.236      35.568995      35.568995      35.568995      1.3845016      3249.5765      1300.774       1524.4421    
     15400   15400          295.50954      484.6075      -1298.1379     -1615.9078      2653.4373     -4269.3451      713.98047      2004.692      -2081.8015      15.092055     -1052.9677     -1615.6505     -2252.6898     -281.45822      44962.111      35.558948      35.558948      35.558948      1.3856755      30.485449      1773.7211     -350.384      
     15500   15500          303.83787      1529.0624     -589.31086     -1588.1853      2728.219      -4316.4043      709.82373      1917.108      -2063.3042      15.011737     -1027.6609     -1615.1004     -2252.2822     -282.52107      44792.963      35.5143        35.5143        35.5143        1.3909082      1489.9155      2002.1336      1095.1381    
     15600   15600          307.71557      1534.6435     -513.17372     -1514.5896      2763.0377     -4277.6273      692.99366      1997.8297     -2052.0609      15.205711     -1055.1407     -1620.7396     -2255.7151     -282.83266      44743.615      35.501254      35.501254      35.501254      1.3924422      941.67523      1411.68        2250.5754    
     15700   15700          301.94204      394.40045     -1286.1439     -1543.5903      2711.196      -4254.7862      686.34489      2041.3167     -2072.8351      16.387426     -1053.5492     -1617.2736     -2255.1774     -282.73996      44758.285      35.505133      35.505133      35.505133      1.3919858      117.50857      750.30663      315.38615    
     15800   15800          300.1053       736.00754     -1144.0145     -1623.9788      2694.7036     -4318.6824      677.65632      1955.2256     -2057.0974      14.856134     -1029.3676     -1625.3892     -2254.5663     -283.01525      44714.749      35.493617      35.493617      35.493617      1.3933411      73.995857      822.16854      1311.8582    
     15900   15900          302.31016      520.31326     -1309.8259     -1648.776       2714.5014     -4363.2774      667.81709      1901.1461     -2044.6268      14.573694     -1020.7278     -1627.6774     -2253.7823     -283.31251      44667.832      35.481199      35.481199      35.481199      1.3948046      783.17432     -610.55523      1388.3207    
     16000   16000          294.12583      1347.7104     -779.20765     -1658.0188      2641.0127     -4299.0315      650.29567      1998.2702     -2054.9228      15.520004     -1027.8037     -1625.9674     -2254.4236     -283.0333       44711.897      35.492863      35.492863      35.492863      1.39343        133.20473      2016.519       1893.4075    
     16100   16100          301.04641      2382.6834     -69.63446      -1625.8881      2703.1539     -4329.042       648.73359      1977.374      -2073.6309      15.32602      -1010.5973     -1628.6895     -2257.5579     -282.56767      44785.576      35.512348      35.512348      35.512348      1.3911376      906.69056      2597.8994      3643.4601    
     16200   16200          309.64985      1519.3993     -504.09579     -1499.956       2780.4059     -4280.3619      713.14792      1945.5894     -2046.9349      15.288486     -1027.9527     -1622.1276     -2257.3726     -281.58536      44941.81       35.553595      35.553595      35.553595      1.3863015      1073.8563      1831.943       1652.3985    
     16300   16300          300.45788      666.44207     -1081.3145     -1519.3526      2697.8694     -4217.222       686.96817      2000.8952     -2035.6382      15.843441     -1004.3828     -1623.7638     -2257.1441     -280.79348      45068.552      35.586986      35.586986      35.586986      1.3824029     -96.081676      1014.546       1080.8619    
     16400   16400          296.55251      1623.3857     -529.91662     -1595.2197      2662.8024     -4258.022       651.33472      2009.6905     -2045.4557      15.014753     -1013.5253     -1620.9328     -2254.1482     -281.24517      44996.17       35.567924      35.567924      35.567924      1.3846267      612.84443      1305.643       2951.6698    
     16500   16500          296.16434      292.99108     -1441.1619     -1632.9854      2659.3169     -4292.3024      652.81311      1987.9993     -2038.7019      15.179163     -1033.9754     -1619.7724     -2255.8442     -281.89605      44892.278      35.540529      35.540529      35.540529      1.3878311     -444.54798     -299.86742      1623.3886    
     16600   16600          300.80416      1221.8145     -839.73154     -1636.3649      2700.9788     -4337.3436      630.45377      1950.4312     -2054.9496      15.060599     -998.62996     -1622.9475     -2256.7622     -283.06313      44707.185      35.491616      35.491616      35.491616      1.3935769      768.81074      1602.8998      1293.7328    
     16700   16700          298.40861      606.98677     -1200.8238     -1596.4612      2679.4687     -4275.9299      687.61653      1980.478      -2059.7889      15.008888     -1030.9513     -1614.5582     -2253.7349     -283.15119      44693.282      35.487937      35.487937      35.487937      1.3940104      2230.8994     -684.50422      274.56513    
     16800   16800          306.89992      919.26924     -891.72152     -1491.5463      2755.7138     -4247.2601      666.14623      2033.1753     -2058.6738      15.194013     -1039.8089     -1611.1788     -2252.114      -282.84913      44741.011      35.500565      35.500565      35.500565      1.3925233      2653.9433     -114.43995      218.30442    
     16900   16900          303.65309      1294.7697     -674.26089     -1520.3114      2726.5598     -4246.8713      647.69165      2033.9272     -2059.3596      14.596184     -1013.6443     -1615.9502     -2254.1323     -282.44427      44805.143      35.517519      35.517519      35.517519      1.39053        2630.1768      556.49895      697.63355    
     17000   17000          304.8714       1681.7394     -491.2017      -1592.5583      2737.4993     -4330.0576      637.34273      1984.601      -2061.0894      15.762432     -1026.1974     -1622.8597     -2257.6172     -281.81703      44904.865      35.54385       35.54385       35.54385       1.387442       2356.507       1000.6668      1688.0444    
     17100   17100          301.65476      2430.9234     -21.154409     -1615.1824      2708.6165     -4323.7988      638.53955      1943.1052     -2050.4438      14.118736     -979.76918     -1631.5696     -2257.7797     -281.45687      44962.326      35.559004      35.559004      35.559004      1.3856689      1425.3137      2963.0251      2904.4313    
     17200   17200          298.93089     -6.1279748     -1632.3721     -1628.338       2684.1583     -4312.4963      673.87782      1951.4473     -2061.4992      14.698272     -1013.0741     -1620.4324     -2257.514      -280.35448      45139.125      35.605551      35.605551      35.605551      1.3802416     -1018.5799     -1737.03        2737.226     
     17300   17300          307.75447      402.18117     -1345.9227     -1611.6212      2763.3869     -4375.0081      645.73642      1938.6688     -2072.5259      15.356152     -1020.8293     -1623.6601     -2257.7542     -279.36325      45299.286      35.647613      35.647613      35.647613      1.3753616      197.05227      843.9267       165.56454    
     17400   17400          300.7171      -258.17459     -1754.2581     -1583.7005      2700.197      -4283.8975      690.51794      1935.2463     -2053.5446      14.131104     -991.04533     -1623.7322     -2255.4707     -279.36954      45298.266      35.647345      35.647345      35.647345      1.3753926      1320.1289     -856.61741     -1238.0353    
     17500   17500          304.80687     -933.43863     -2139.5279     -1523.6842      2736.9199     -4260.6041      725.00176      1939.6444     -2052.4951      15.23543      -1011.3793     -1620.5358     -2256.0754     -279.73823      45238.563      35.631677      35.631677      35.631677      1.3772077     -638.67918     -256.76003     -1904.8767    
     17600   17600          300.85674     -570.69862     -1908.2956     -1533.3316      2701.4508     -4234.7824      702.68676      2012.2935     -2058.449       15.857637     -1030.0936     -1621.2778     -2255.7999     -280.90129      45051.256      35.582433      35.582433      35.582433      1.3829336      905.20472     -2206.1851     -411.11546    
     17700   17700          293.36482      928.4418      -1023.9991     -1630.8876      2634.1794     -4265.067       679.92626      1948.2714     -2039.307       14.658385     -988.22423     -1625.5222     -2254.8696     -282.34645      44820.665      35.52162       35.52162       35.52162       1.3900485      2261.2072      80.141646      443.97656    
     17800   17800          299.49941      1115.0733     -934.22943     -1661.7118      2689.2632     -4350.975       668.43686      1945.0956     -2040.9605      15.134853     -1060.314      -1623.3021     -2255.0656     -282.88992      44734.558      35.498858      35.498858      35.498858      1.3927241      1248.3346      363.84116      1733.0442    
     17900   17900          299.3029       1393.5522     -750.02746     -1658.3295      2687.4987     -4345.8281      662.01375      1925.0099     -2070.3855      14.739872     -1005.9066     -1618.5796     -2252.72       -283.15842      44692.141      35.487635      35.487635      35.487635      1.394046       1970.4571      2972.1391     -761.93972    
     18000   18000          296.89211      1161.7917     -846.0229      -1603.5654      2665.8517     -4269.4171      663.24456      2031.8235     -2073.432       15.556535     -1040.2556     -1615.2736     -2251.0805     -283.04648      44709.816      35.492312      35.492312      35.492312      1.3934949      944.96718      2411.7988      128.60899    
     18100   18100          307.67283      1542.1105     -516.43342     -1520.8435      2762.6539     -4283.4974      671.91448      2014.5899     -2059.0855      16.359765     -1056.9111     -1616.6486     -2253.7163     -283.36156      44660.1        35.479152      35.479152      35.479152      1.3950461      2266.9481      1322.8546      1036.5288    
     18200   18200          302.41928      2258.5389     -93.847035     -1559.8199      2715.4813     -4275.3012      628.79515      2002.8055     -2053.2437      14.579678     -984.64212     -1626.8941     -2256.7016     -284.34012      44506.401      35.438404      35.438404      35.438404      1.3998637      2847.2239      1543.7109      2384.6818    
     18300   18300          301.41936      1195.976      -901.41768     -1680.5324      2706.5027     -4387.0352      646.23258      1964.2678     -2073.6323      15.32375      -1066.4344     -1620.7161     -2252.0764     -283.30717      44668.674      35.481422      35.481422      35.481422      1.3947783      108.03876      1587.3694      1892.5199    
     18400   18400          294.48968      1547.3224     -654.1533      -1665.3965      2644.2798     -4309.6763      658.71213      1957.7239     -2060.6276      14.282177     -1004.8849     -1620.9342     -2253.9478     -282.39808      44812.471      35.519455      35.519455      35.519455      1.3903027      1486.3979      1549.2609      1606.3084    
     18500   18500          295.40624      376.12622     -1358.789      -1605.7418      2652.5098     -4258.2516      710.88853      1994.1984     -2052.537       15.639944     -1061.6323     -1610.7994     -2254.0097     -281.09702      45019.885      35.574172      35.574172      35.574172      1.3838973      511.77928     -598.7036       1215.303     
     18600   18600          301.47569      2627.4567      170.86705     -1553.9795      2707.0086     -4260.988       653.716        1982.3286     -2059.6858      15.408497     -971.07903     -1625.8032     -2255.8732     -281.13934      45013.108      35.572386      35.572386      35.572386      1.3841057      1528.1106      3700.1817      2654.0777    
     18700   18700          304.57835      767.97973     -1043.5485     -1547.9848      2734.8679     -4282.8527      680.41601      1971.6271     -2053.8618      15.098229     -1024.9085     -1617.0336     -2254.19       -280.98296      45038.161      35.578985      35.578985      35.578985      1.3833357      863.72002      292.0482       1148.171     
     18800   18800          301.98258      483.48995     -1334.14       -1651.2064      2711.56       -4362.7663      665.27628      1916.5694     -2053.7237      15.156328     -1039.8082     -1612.9978     -2253.2387     -281.43224      44966.261      35.560042      35.560042      35.560042      1.3855477      827.7711       2005.1956     -1382.4969    
     18900   18900          296.71187      1510.5808     -691.0554      -1678.8366      2664.2333     -4343.0699      647.02068      1965.4851     -2046.1476      14.899734     -1051.9256     -1617.1314     -2255.2709     -282.24074      44837.452      35.526054      35.526054      35.526054      1.3895281      2095.8606      980.79608      1455.0857    
     19000   19000          298.79473      1772.8232     -487.5702      -1642.5827      2682.9357     -4325.5184      673.81159      1945.8418     -2058.719       14.660735     -1024.7174     -1619.9729     -2256.4232     -283.27958      44673.026      35.482574      35.482574      35.482574      1.3946424      2147.6831      1136.766       2034.0205    
     19100   19100          300.27474      1271.355      -761.38691     -1587.6628      2696.225      -4283.8878      675.07322      1985.3041     -2053.8764      15.06913      -1026.4156     -1622.0391     -2257.0031     -283.97382      44563.811      35.453636      35.453636      35.453636      1.3980604      2816.4414      1029.76       -32.136356    
     19200   19200          295.23023      999.37575     -910.98726     -1561.4796      2650.9294     -4212.409       693.07267      2022.1136     -2050.8173      15.647484     -1011.3493     -1624.1716     -2256.9044     -283.54574      44631.092      35.471469      35.471469      35.471469      1.3959528      1047.2222      1929.3493      21.555739    
     19300   19300          307.28116      804.2739      -988.91897     -1514.519       2759.137      -4273.656       679.52624      1993.3457     -2049.5642      16.017784     -1042.2202     -1616.8751     -2253.8862     -282.41329      44810.057      35.518818      35.518818      35.518818      1.3903776      460.54469      1190.0073      762.26974    
     19400   19400          306.04863      227.83119     -1377.2168     -1526.3953      2748.0699     -4274.4652      702.3537       2006.2992     -2062.7402      15.950375     -1068.6485     -1614.3803     -2253.2994     -281.86658      44896.972      35.541767      35.541767      35.541767      1.387686       454.90217      177.97547      50.615919    
     19500   19500          299.46475      1054.2138     -937.01376     -1625.997       2688.9519     -4314.9489      669.37722      1984.7827     -2068.5297      15.874207     -1044.4263     -1619.2218     -2252.8053     -282.39472      44813.003      35.519596      35.519596      35.519596      1.3902861      1732.3646      944.69689      485.58008    
     19600   19600          293.76109      1659.5587     -576.03586     -1657.7349      2637.7377     -4295.4726      662.39461      1973.8941     -2059.6578      15.638372     -1010.8407     -1622.6734     -2254.2279     -283.15398      44692.841      35.48782       35.48782       35.48782       1.3940241      1697.7324      1425.8625      1855.0812    
     19700   19700          299.40919      1215.0432     -815.71558     -1606.3193      2688.453      -4294.7723      671.48401      1983.9388     -2069.292       14.794015     -1018.5232     -1621.6251     -2255.5488     -283.64127      44616.06       35.467486      35.467486      35.467486      1.3964231      2075.537      -7.4283776      1577.0211    
     19800   19800          300.46116      571.87958     -1194.0325     -1566.6844      2697.8989     -4264.5833      673.15197      1983.1036     -2042.5928      15.213266     -1007.1396     -1627.4321     -2258.8876     -283.22907      44680.992      35.484684      35.484684      35.484684      1.3943938      2161.4056     -344.73271     -101.0341     
     19900   19900          297.46206     -7.405761      -1603.3852     -1598.5414      2670.9694     -4269.5108      691.31413      1990.0727     -2044.4756      15.19692      -1040.9646     -1622.9788     -2257.6756     -282.176        44847.739      35.528771      35.528771      35.528771      1.3892093      306.60759      445.89331     -774.71818    
     20000   20000          293.70087      528.58642     -1377.157      -1724.0453      2637.1969     -4361.2422      663.16226      1958.8334     -2061.8149      16.258377     -1060.8861     -1619.6919     -2257.1033     -281.23078      44998.473      35.568531      35.568531      35.568531      1.3845558     -871.49131      1838.9193      618.33121    
     20100   20100          300.03874      1442.2574     -756.19566     -1702.2535      2694.1059     -4396.3593      619.69712      1942.5808     -2062.5837      15.210944     -1031.2615     -1625.5808     -2254.4222     -281.35952      44977.884      35.563105      35.563105      35.563105      1.3851896      1718.6011      1241.1185      1367.0525    
     20200   20200          296.96583      798.47268     -1100.2297     -1623.0439      2666.5136     -4289.5576      657.42086      2026.5197     -2067.5091      16.188166     -1049.2347     -1618.6905     -2254.252      -281.87023      44896.39       35.541613      35.541613      35.541613      1.387704       767.61023      1163.175       464.63282    
     20300   20300          301.10031      245.57355     -1415.2082     -1575.3523      2703.638      -4278.9903      682.41353      1969.6076     -2039.7049      14.596306     -1035.629      -1616.9516     -2253.3222     -283.01352      44715.023      35.49369       35.49369       35.49369       1.3933326     -1099.2037      1440.3834      395.54094    
     20400   20400          304.72084      796.51185     -1036.7075     -1554.9261      2736.1473     -4291.0734      669.9023       2005.1806     -2064.3099      15.424968     -1044.1786     -1616.2912     -2256.8016     -283.67152      44611.301      35.466225      35.466225      35.466225      1.3965721      711.45413      1319.9459      358.13547    
     20500   20500          304.95454      1821.9358     -400.97115     -1583.8498      2738.2459     -4322.0957      672.43888      1925.3788     -2047.4009      15.14226      -1002.846      -1629.2536     -2255.5551     -284.26892      44517.55       35.441363      35.441363      35.441363      1.3995132      1759.5109      2061.6259      1644.6705    
     20600   20600          289.30645      1496.0588     -735.30625     -1708.43        2597.7386     -4306.1686      688.66965      1997.2469     -2073.5357      15.291214     -1053.9896     -1623.2807     -2256.5704     -283.73775      44600.888      35.463465      35.463465      35.463465      1.3968982      2407.5818      474.64066      1605.954     
     20700   20700          292.86769      3050.3328      292.52411     -1699.2139      2629.7156     -4328.9295      621.97294      1993.0314     -2065.7913      15.959263     -1014.1974     -1622.8845     -2257.0198     -282.65165      44772.268      35.50883       35.50883       35.50883       1.3915511      3519.1122      2165.0078      3466.8785    
     20800   20800          302.07089      1404.6332     -697.66018     -1620.4222      2712.353      -4332.7752      636.65836      1980.646      -2061.4411      15.7806       -1028.8698     -1621.2663     -2254.2829     -280.93752      45045.446      35.580903      35.580903      35.580903      1.383112       217.89189      1891.7324      2104.2752    
     20900   20900          302.79242      1168.8097     -808.69388     -1579.0416      2718.8317     -4297.8734      685.66402      1946.2297     -2055.5039      14.692753     -1008.1727     -1624.1903     -2256.593      -280.02288      45192.578      35.6196        35.6196        35.6196        1.3786091      532.26221      1192.9515      1781.2154    
     21000   21000          305.98781      89.489186     -1502.2355     -1561.2217      2747.5237     -4308.7454      689.92478      1959.5352     -2052.4455      15.149683     -1042.9757     -1623.8095     -2254.1243     -279.99938      45196.371      35.620597      35.620597      35.620597      1.3784934      601.89044     -6.8945646     -326.52832    
     21100   21100          301.35933      1126.6288     -850.02767     -1588.9492      2705.9638     -4294.9129      667.72962      1960.9804     -2040.1826      15.107895     -1021.3118     -1624.1905     -2253.0459     -281.39673      44971.936      35.561537      35.561537      35.561537      1.3853728      809.62067      970.78067      1599.4849    
     21200   21200          293.52379      591.75939     -1306.7084     -1692.7498      2635.6069     -4328.3568      670.25791      1946.5897     -2042.5375      15.333348     -1042.5344     -1620.2535     -2255.2123     -282.90966      44731.437      35.498033      35.498033      35.498033      1.3928213      1662.6483      143.60333     -30.97342     
[...]
    495200   495200         303.85871      548.33464     -1245.266      -1606.2963      2728.4061     -4334.7025      673.51837      1904.8866     -2045.8505      15.321822     -1006.3026     -1623.8247     -2252.4516     -280.30997      45146.292      35.607436      35.607436      35.607436      1.3800225     -250.24591      503.74116      1391.5087    
    495300   495300         303.34252      792.71297     -1051.0046     -1571.9314      2723.7712     -4295.7025      691.55625      1952.8711     -2063.0458      15.482485     -1013.4536     -1623.9235     -2255.1894     -280.85091      45059.337      35.58456       35.58456       35.58456       1.3826856      461.84173      869.29093      1047.0063    
    495400   495400         302.69522      1160.1734     -825.50467     -1586.8104      2717.9589     -4304.7693      669.57674      1994.0091     -2069.489       15.818828     -1032.9598     -1624.1728     -2257.5525     -281.25504      44994.592      35.567508      35.567508      35.567508      1.3846753      1370.455       1841.8304      268.23468    
    495500   495500         301.29508      1275.5088     -853.46586     -1688.4404      2705.3868     -4393.8273      644.15975      1907.354      -2067.5345      14.807868     -1008.0444     -1626.9359     -2257.6341     -281.93354      44886.308      35.538953      35.538953      35.538953      1.3880156      1363.2836      601.70516      1861.5378    
    495600   495600         294.28151      590.25291     -1340.8245     -1727.2788      2642.4106     -4369.6894      652.66076      1939.2018     -2044.7272      15.087652     -1053.413      -1622.6861     -2255.8133     -281.88789      44893.577      35.540871      35.540871      35.540871      1.3877909      521.27351     -403.64387      1653.1291    
    495700   495700         296.38756     -42.475366     -1715.0667     -1687.2817      2661.3212     -4348.6029      690.92033      1884.3016     -2049.9981      14.275417     -1015.0246     -1620.1776     -2252.9        -282.13892      44853.633      35.530327      35.530327      35.530327      1.3890268     -1421.1553      522.38758      771.34159    
    495800   495800         302.73736      584.99867     -1237.1287     -1619.5107      2718.3373     -4337.848       663.2609       1942.9979     -2053.2822      14.81919      -1033.5836     -1619.0987     -2252.9615     -282.354        44819.467      35.521304      35.521304      35.521304      1.3900856      2102.509       542.67518     -890.18817    
    495900   495900         303.60401      1601.9637     -555.0259      -1603.6077      2726.1192     -4329.7269      657.9218       1984.1239     -2072.6944      15.650286     -1035.3387     -1621.2848     -2258.1051     -281.95958      44882.163      35.537859      35.537859      35.537859      1.3881438      694.17413     -22.629628      4134.3465    
    496000   496000         297.57269      1154.9677     -867.7884      -1624.7327      2671.9627     -4296.6955      670.63416      1959.0898     -2064.8648      14.521407     -992.11534     -1626.063      -2257.8977     -281.60634      44938.462      35.552712      35.552712      35.552712      1.3864048      192.26087      2187.0364      1085.606     
    496100   496100         295.05206      67.044359     -1631.1356     -1675.1516      2649.3295     -4324.4811      692.58251      1919.9004     -2046.3015      14.924578     -1030.3183     -1619.0243     -2256.2446     -281.1182       45016.494      35.573278      35.573278      35.573278      1.3840016      464.1658      -138.96584     -124.06688    
    496200   496200         291.84795      1676.8228     -651.75168     -1752.1903      2620.5592     -4372.7495      641.93608      1893.9483     -2060.3413      14.836479     -983.41431     -1624.263      -2255.4519     -281.22754      44998.992      35.568668      35.568668      35.568668      1.3845398      2853.1316      432.89908      1744.4376    
    496300   496300         294.02397      838.95087     -1154.1299     -1704.4861      2640.0981     -4344.5841      662.0207       1957.4057     -2057.2803      15.197796     -1047.7561     -1618.5909     -2255.581      -281.33854      44981.238      35.563989      35.563989      35.563989      1.3850863     -696.21671      2066.994       1146.0753    
    496400   496400         299.78693      1388.4441     -702.58514     -1609.5234      2691.8448     -4301.3683      655.28041      1973.9276     -2066.4368      14.668895     -998.53585     -1625.1041     -2255.1683     -282.54471      44789.214      35.51331       35.51331       35.51331       1.3910246      1628.3466      1806.1599      730.82591    
    496500   496500         306.85039      1860.4317     -378.04654     -1589.7364      2755.269      -4345.0054      630.03558      1964.4202     -2044.816       15.036144     -1038.1887     -1618.8278     -2252.6646     -283.37322      44658.263      35.478666      35.478666      35.478666      1.3951035      848.90166      1876.0389      2856.3547    
    496600   496600         298.95339      1489.4421     -666.85687     -1638.7169      2684.3603     -4323.0772      637.11911      1975.075      -2043.0041      14.80411      -1027.3129     -1624.6408     -2255.1177     -282.85015      44740.848      35.500522      35.500522      35.500522      1.3925283      1853.9625      2173.7955      440.56818    
    496700   496700         289.2703       1474.294      -723.58407     -1689.3642      2597.414      -4286.7782      635.36215      2013.4378     -2060.8876      15.271781     -1007.754      -1624.5979     -2257.6105     -281.73601      44917.778      35.547257      35.547257      35.547257      1.3870432      1566.7614      1389.8129      1466.3076    
    496800   496800         296.34305      348.06289     -1439.7851     -1668.648       2660.9215     -4329.5696      665.4523       1970.9025     -2070.8044      15.386232     -1038.7129     -1614.6866     -2257.1067     -280.6848       45086.003      35.591578      35.591578      35.591578      1.3818678      593.41759      555.54334     -104.77228    
    496900   496900         301.02403      706.16482     -1074.1375     -1539.4472      2702.953      -4242.4001      690.92518      2022.8155     -2080.1243      15.402993     -1024.3965     -1613.0887     -2253.9342     -280.09191      45181.44       35.616674      35.616674      35.616674      1.3789489      1546.1731      218.64546      353.67591    
    497000   497000         309.05318      1053.6736     -842.97596     -1538.7957      2775.0483     -4313.844       647.9152       1996.6376     -2083.3826      15.298655     -1018.5161     -1615.3466     -2256.4502     -279.47688      45280.869      35.642781      35.642781      35.642781      1.375921       1105.8079      910.17866      1145.0344    
    497100   497100         303.99056      614.42761     -1193.8882     -1600.302       2729.59       -4329.892       683.70838      1928.4829     -2052.85        14.699357     -1020.3562     -1625.4393     -2258.1371     -279.02226      45354.647      35.662129      35.662129      35.662129      1.3736828     -77.20156       1584.0685      336.41586    
    497200   497200         297.32274      1165.1877     -881.35383     -1651.2207      2669.7184     -4320.9391      681.41384      1929.6823     -2075.2276      14.811634     -997.3076      -1620.5041     -2253.8076     -279.32947      45304.764      35.64905       35.64905       35.64905       1.3751953      1107.3843      1482.9001      905.2786     
    497300   497300         298.6042       1713.408      -506.62412     -1636.5154      2681.2249     -4317.7403      644.16669      1990.7245     -2054.5127      15.225372     -1030.3174     -1626.9924     -2256.0344     -279.87277      45216.817      35.625967      35.625967      35.625967      1.37787        62.500153      2926.0349      2151.6891    
    497400   497400         301.04736      1987.1011     -234.15641     -1537.208       2703.1625     -4240.3705      701.25084      1955.5543     -2076.5936      15.629649     -950.61028     -1628.3091     -2257.2924     -281.44586      44964.086      35.559468      35.559468      35.559468      1.3856147      393.49056      1620.0079      3947.8047    
    497500   497500         313.05671      1672.158      -388.27665     -1480.8493      2810.9968     -4291.8461      681.33983      1976.0882     -2073.6706      15.201699     -1012.2167     -1622.3093     -2256.2792     -282.46425      44801.973      35.516681      35.516681      35.516681      1.3906284      1446.778       2272.8178      1296.8782    
    497600   497600         300.25347      657.62372     -1127.5125     -1556.578       2696.034      -4252.612       670.68187      2012.022      -2065.2169      15.226882     -1006.377      -1623.8447     -2255.1041     -282.87228      44737.348      35.499596      35.499596      35.499596      1.3926373     -1091.7049      366.93297      2697.643     
    497700   497700         308.05615      740.85177     -1132.758      -1617.0599      2766.0958     -4383.1557      711.92283      1897.1777     -2079.1707      15.072602     -1049.8442     -1622.2201     -2256.0938     -282.32652      44823.829      35.522456      35.522456      35.522456      1.3899504      994.33888      898.00011      330.21633    
    497800   497800         288.23917      866.73462     -1088.1432     -1656.9775      2588.1553     -4245.1328      725.25029      1975.0254     -2071.4184      14.948188     -1011.9944     -1621.094      -2255.8498     -281.21396      45001.164      35.56924       35.56924       35.56924       1.384473       1251.5615      450.00827      898.63413    
    497900   497900         293.29086     -147.73616     -1756.0376     -1658.5072      2633.5153     -4292.0225      679.94108      2010.2155     -2065.2906      15.639187     -1071.0994     -1607.7186     -2253.7096     -279.56532      45266.544      35.639022      35.639022      35.639022      1.3763564     -1066.9973      545.9707       77.818075    
    498000   498000         306.35449      880.01673     -993.34193     -1574.1371      2750.8162     -4324.9533      675.12406      1925.1873     -2051.2766      14.535795     -1019.8332     -1616.0861     -2252.6045     -279.64334      45253.915      35.635707      35.635707      35.635707      1.3767405      537.14899      829.8328       1273.0684    
    498100   498100         301.93822      740.60905     -1023.7497     -1511.063       2711.1617     -4222.2247      675.7793       2009.0019     -2065.8517      15.299556     -981.80217     -1620.3744     -2254.2772     -280.48993      45117.326      35.599819      35.599819      35.599819      1.3809085      390.49191      779.80895      1051.5263    
    498200   498200         300.85761      655.20127     -1100.5186     -1529.8686      2701.4587     -4231.3273      698.49269      2020.1003     -2071.0161      15.250371     -1019.2941     -1622.3612     -2252.4993     -281.64355      44932.525      35.551146      35.551146      35.551146      1.3865879      669.28192     -425.83252      1722.1544    
    498300   498300         300.37448      1427.6511     -674.17826     -1604.6919      2697.1206     -4301.8124      680.8489       1954.9182     -2080.254       15.297321     -991.19522     -1627.7719     -2253.6558     -283.16259      44691.483      35.48746       35.48746       35.48746       1.3940665      2046.8812      2475.4244     -239.35226    
    498400   498400         305.57816      549.84932     -1264.3169     -1621.9899      2743.8454     -4365.8354      686.67735      1935.7836     -2073.1659      14.410871     -1053.1622     -1620.5287     -2255.8505     -283.72265      44603.262      35.464094      35.464094      35.464094      1.3968238     -103.64169      878.87178      874.31785    
    498500   498500         298.00902      1441.6057     -694.72935     -1630.8501      2675.8806     -4306.7308      651.96722      1992.7876     -2065.153       15.281765     -1020.9904     -1623.8932     -2256.7306     -284.2177       44525.572      35.443492      35.443492      35.443492      1.399261       2062.7342      540.20652      1721.8764    
    498600   498600         299.02565     -21.006656     -1628.6682     -1615.006       2685.0091     -4300.0151      699.49211      1973.9298     -2061.0155      15.848597     -1072.4898     -1605.0027     -2250.7777     -283.77409      44595.177      35.461951      35.461951      35.461951      1.3970771      323.61609      908.83066     -1295.4667    
    498700   498700         303.16483      662.42829     -1117.4741     -1548.5206      2722.1756     -4270.6962      677.09888      1986.5509     -2050.1246      15.351311     -1034.6508     -1613.3483     -2251.5735     -283.62947      44617.916      35.467978      35.467978      35.467978      1.396365       1763.88        753.95281     -530.54796    
    498800   498800         307.78267      240.55398     -1349.2898     -1505.901       2763.6402     -4269.5412      670.25879      2016.8163     -2056.5763      16.266646     -1045.0024     -1618.3281     -2252.9761     -283.48256      44641.038      35.474104      35.474104      35.474104      1.3956418      969.98465      756.93092     -1005.2536    
    498900   498900         303.27109      1724.1495     -456.73914     -1579.7604      2723.1298     -4302.8902      636.73901      2018.3157     -2068.5292      15.780604     -1028.3415     -1624.5433     -2252.3115     -283.35018      44661.895      35.479627      35.479627      35.479627      1.39499        1502.2015      1078.7305      2591.5166    
    499000   499000         295.86566      270.03909     -1487.2941     -1663.8218      2656.635      -4320.4568      675.28545      1992.0558     -2078.0843      15.916454     -1048.7456     -1620.6995     -2256.1852     -282.32565      44823.968      35.522493      35.522493      35.522493      1.3899461      154.5433       668.66112     -13.087154    
    499100   499100         303.05216      2122.0345     -278.93094     -1667.9734      2721.164      -4389.1374      636.86473      1963.4209     -2100.777       16.079522     -1021.7374     -1627.3736     -2255.6145     -281.95088      44883.547      35.538224      35.538224      35.538224      1.388101       1414.6764      3005.0174      1946.4099    
    499200   499200         298.09027     -446.77237     -1935.9032     -1642.598       2676.6102     -4319.2082      686.86818      1973.2281     -2065.7298      14.899903     -1047.0867     -1624.2324     -2257.1555     -281.12733      45015.031      35.572893      35.572893      35.572893      1.3840465     -949.85796     -530.46072      140.00156    
    499300   499300         302.22515      262.78441     -1399.7219     -1572.3979      2713.7381     -4286.136       652.96759      1999.4211     -2045.4491      14.188882     -1031.4442     -1618.4069     -2257.4133     -280.86918      45056.405      35.583788      35.583788      35.583788      1.3827756      779.95427      264.87426     -256.47529    
    499400   499400         300.99098      576.21247     -1133.6833     -1513.0488      2702.6562     -4215.705       696.14399      2006.7897     -2058.2537      14.242414     -991.16211     -1624.9954     -2258.4699     -280.32468      45143.922      35.606812      35.606812      35.606812      1.3800949      743.59796      279.33372      705.70572    
    499500   499500         307.14678      895.81755     -951.91827     -1543.46        2757.9304     -4301.3904      645.15736      1983.1003     -2041.3175      16.035262     -1025.1182     -1621.5816     -2257.666      -279.49284      45278.283      35.642103      35.642103      35.642103      1.3759996      128.25803      1210.4309      1348.7637    
    499600   499600         293.10856      1208.1166     -865.8786      -1662.1075      2631.8784     -4293.986       662.03868      1980.7857     -2051.1756      15.208001     -1030.4235     -1616.5516     -2253.8678     -280.03183      45191.133      35.61922       35.61922       35.61922       1.3786532      867.61226      2856.0171     -99.279622    
    499700   499700         298.86109      604.26824     -1277.2663     -1674.2197      2683.5315     -4357.7512      674.23393      1940.2248     -2066.4303      14.858201     -1043.333      -1621.2574     -2256.0475     -280.94854      45043.679      35.580438      35.580438      35.580438      1.3831663      563.61499      542.08037      707.10935    
    499800   499800         297.10765      1269.6839     -823.11275     -1654.3826      2667.7871     -4322.1697      648.22506      1989.2332     -2069.2823      14.988192     -1013.3825     -1631.7819     -2260.1695     -281.89679      44892.161      35.540497      35.540497      35.540497      1.3878347      35.010487      1002.4187      2771.6226    
    499900   499900         303.36343      160.47561     -1488.767      -1593.6259      2723.9589     -4317.5848      691.91023      1950.7704     -2062.6754      14.653444     -1026.8929     -1627.241      -2258.1097     -282.44901      44804.391      35.51732       35.51732       35.51732       1.3905534     -410.33837      562.9649       328.80031    
    500000   500000         309.89007      968.26633     -890.2126      -1522.4649      2782.5629     -4305.0277      676.41923      1940.2455     -2043.9802      14.620256     -1005.1449     -1628.8778     -2258.3097     -282.64478      44773.358      35.509118      35.509118      35.509118      1.3915172      2215.337       1112.6038     -423.14187    
Loop time of 1135.84 on 1 procs for 500000 steps with 3620 atoms

Performance: 38.034 ns/day, 0.631 hours/ns, 440.203 timesteps/s, 1.594 Matom-step/s
100.0% CPU use with 1 MPI tasks x 1 OpenMP threads

MPI task timing breakdown:
Section |  min time  |  avg time  |  max time  |%varavg| %total
---------------------------------------------------------------
Pair    | 67.692     | 67.692     | 67.692     |   0.0 |  5.96
Bond    | 123.64     | 123.64     | 123.64     |   0.0 | 10.88
Kspace  | 531.36     | 531.36     | 531.36     |   0.0 | 46.78
Neigh   | 40.085     | 40.085     | 40.085     |   0.0 |  3.53
Comm    | 12.644     | 12.644     | 12.644     |   0.0 |  1.11
Output  | 4.3719     | 4.3719     | 4.3719     |   0.0 |  0.38
Modify  | 324.15     | 324.15     | 324.15     |   0.0 | 28.54
Other   |            | 31.9       |            |       |  2.81

Nlocal:           3620 ave        3620 max        3620 min
Histogram: 1 0 0 0 0 0 0 0 0 0
Nghost:          12727 ave       12727 max       12727 min
Histogram: 1 0 0 0 0 0 0 0 0 0
Neighs:              0 ave           0 max           0 min
Histogram: 1 0 0 0 0 0 0 0 0 0
FullNghs:  1.85672e+06 ave 1.85672e+06 max 1.85672e+06 min
Histogram: 1 0 0 0 0 0 0 0 0 0

Total # of neighbors = 1856724
Ave neighs/atom = 512.90718
Ave special neighs/atom = 5.9723757
Neighbor list builds = 11417
Dangerous builds = 0

# --- Cleanup ---
unfix npt_fix
unfix shake_fix
undump dump_npt

# --- Write Output ---
write_dump all custom /home/alexzhao/PolyJarvis/data/PVC2/lammps/mechanical/bm_series/bm_P1000/bm_P1000_last.dump id type mol x y z xu yu zu vx vy vz modify sort id
write_data /home/alexzhao/PolyJarvis/data/PVC2/lammps/mechanical/bm_series/bm_P1000/bm_P1000_out.data
System init for write_data ...
PPPM Kokkos initialization ...
  using 12-bit tables for long-range coulomb
  G vector (1/distance) = 0.29619344
  grid = 24 24 24
  stencil order = 5
  estimated absolute RMS force accuracy = 0.00036568395
  estimated relative force accuracy = 1.1012464e-06
  using double precision cuFFT
  3d grid and FFT values/proc = 29791 13824
Generated 6 of 6 mixed pair_coeff terms from sixthpower/sixthpower mixing rule

print "STAGE COMPLETE: NPT T=300.0->300.0K P=1000.0->1000.0atm steps=500000"
STAGE COMPLETE: NPT T=300.0->300.0K P=1000.0->1000.0atm steps=500000
quit
