units real
atom_style full
boundary p p p

# --- Force Field Styles ---
pair_style lj/class2/coul/long 9.5 9.5
kspace_style pppm 1e-6
dielectric 1.000000
bond_style class2
angle_style class2
dihedral_style class2
improper_style class2
special_bonds lj/coul 0 0 1
pair_modify mix sixthpower tail yes
neighbor 2.0 bin
neigh_modify delay 0 every 1 check yes
neigh_modify one 4000
# KOKKOS: package loaded via -pk kokkos on the command line

read_data /home/arz2/PolyJarvis/data/PLA2/lammps/equil/npt_prod300/npt_prod300_out.data
Reading data file ...
  orthogonal box = (4.5648927 4.5648927 4.5648927) to (41.068231 41.068231 41.068231)
  1 by 1 by 1 MPI processor grid
  reading atoms ...
  4520 atoms
  reading velocities ...
  4520 velocities
  scanning bonds ...
  4 = max bonds/atom
  scanning angles ...
  12 = max angles/atom
  scanning dihedrals ...
  21 = max dihedrals/atom
  scanning impropers ...
  8 = max impropers/atom
  orthogonal box = (4.5648927 4.5648927 4.5648927) to (41.068231 41.068231 41.068231)
  1 by 1 by 1 MPI processor grid
  reading bonds ...
  4510 bonds
  reading angles ...
  8000 angles
  reading dihedrals ...
  9970 dihedrals
  reading impropers ...
  4500 impropers
Finding 1-2 1-3 1-4 neighbors ...
  special bond factors lj:    0        0        1       
  special bond factors coul:  0        0        1       
     4 = max # of 1-2 neighbors
     6 = max # of 1-3 neighbors
    10 = max # of special neighbors
  special bonds CPU = 0.003 seconds
  read_data CPU = 0.272 seconds


# --- Thermo Output ---
thermo_style custom step time temp press enthalpy etotal ke pe ebond eangle edihed eimp evdwl ecoul elong etail vol lx ly lz density pxx pyy pzz
thermo_modify flush yes
thermo 100

# --- Trajectory ---
dump dump_npt all custom 1000 /home/arz2/PolyJarvis/data/PLA2/lammps/mechanical/bm_series/bm_P-1000/bm_P-1000.dump id type mol x y z ix iy iz vx vy vz

# --- Restart Checkpointing ---
restart 10000 npt_1.rst npt_2.rst

# --- Initial Velocities (optional) ---
# Velocities read from data file

# --- SHAKE Constraints ---
fix shake_fix all shake 1e-4 1000 0 m 1.008
Finding SHAKE clusters ...
     500 = # of size 2 clusters
      10 = # of size 3 clusters
     500 = # of size 4 clusters
       0 = # of frozen angles
  find clusters CPU = 0.002 seconds

# --- NPT Thermostat + Barostat (Nose-Hoover) ---
# T_damp = 100.0 fs  (heat bath coupling)
# P_damp = 1000.0 fs  (pressure bath coupling, ~10x T_damp typical)
# Ramp: T=300.0->300.0K  P=-1000.0->-1000.0atm
timestep 1.0
fix npt_fix all npt temp 300.0 300.0 100.0 iso -1000.0 -1000.0 1000.0

run 500000
PPPM Kokkos initialization ...
  using 12-bit tables for long-range coulomb
  G vector (1/distance) = 0.34316179
  grid = 45 45 45
  stencil order = 5
  estimated absolute RMS force accuracy = 0.00024931228
  estimated relative force accuracy = 7.5079654e-07
  using double precision cuFFT
  3d grid and FFT values/proc = 140608 91125
Generated 21 of 21 mixed pair_coeff terms from sixthpower/sixthpower mixing rule
Neighbor list info ...
  update: every = 1 steps, delay = 0 steps, check = yes
  max neighbors/atom: 4000, page size: 100000
  master list distance cutoff = 11.5
  ghost atom cutoff = 11.5
  binsize = 11.5, bins = 4 4 4
  1 neighbor lists, perpetual/occasional/extra = 1 0 0
  (1) pair lj/class2/coul/long/kk, perpetual
      attributes: full, newton off, kokkos_device
      pair build: full/bin/kk/device
      stencil: full/bin/3d
      bin: kk/device
Per MPI rank memory allocation (min/avg/max) = 38.42 | 38.42 | 38.42 Mbytes
   Step          Time           Temp          Press         Enthalpy        TotEng         KinEng         PotEng         E_bond        E_angle        E_dihed        E_impro         E_vdwl         E_coul         E_long         E_tail         Volume           Lx             Ly             Lz          Density          Pxx            Pyy            Pzz      
         0   0              359.6985       2517.1357      17574.354      15788.77       4123.2965      11665.473      1565.2515      3723.4497     -4054.5569      145.22677     -2522.832       44824.218     -32015.284     -388.81911      48640.467      36.503338      36.503338      36.503338      1.2307884      1840.9866      670.63591      5039.7847    
       100   100            306.67603     -493.27124      14793.775      15145.034      3515.4893      11629.545      1460.8254      3725.4108     -4012.6362      131.07831     -2541.5771      44875.059     -32008.615     -387.32774      48827.753      36.550129      36.550129      36.550129      1.2260675     -1675.4493      495.72221     -300.08661    
       200   200            297.27295     -373.44723      14788.272      15056.95       3407.6998      11649.251      1474.9776      3712.7443     -4049.4346      156.16246     -2496.7938      44862.961     -32011.367     -383.36942      49331.905      36.675493      36.675493      36.675493      1.2135376      887.54518     -1355.9496     -651.93724    
       300   300            299.43702     -1546.1556      13936.532      15060.214      3432.507       11627.707      1534.7388      3731.8458     -4081.5959      138.78648     -2504.0587      44823.051     -32015.06      -379.51668      49832.707      36.799182      36.799182      36.799182      1.201342      -3496.2095     -961.06486     -181.1925     
       400   400            301.8056      -2836.9233      13097.768      15171.363      3459.6585      11711.704      1536.2251      3719.8099     -4043.8938      143.91524     -2439.6798      44808.515     -32013.187     -377.35062      50118.755      36.869458      36.869458      36.869458      1.1944854     -3066.2154     -3204.124      -2240.4304    
       500   500            306.47864      930.43383      15918.274      15237.133      3513.2265      11723.906      1496.2396      3681.9913     -4047.3631      144.74448     -2415.1253      44875.962     -32012.542     -376.76381      50196.816      36.88859       36.88859       36.88859       1.1926279      286.09606      1834.0162      671.18922    
       600   600            300.18711     -1458.5693      14149.771      15218.722      3441.1055      11777.617      1538.5124      3796.8704     -4053.2671      157.97941     -2470.4985      44829.198     -32021.179     -376.34857      50252.2        36.902152      36.902152      36.902152      1.1913135     -3527.3446     -356.56735     -491.79587    
       700   700            297.54189     -2174.0356      13565.766      15153.251      3410.7827      11742.468      1500.0256      3806.6296     -4056.9742      132.36716     -2507.078       44888.26      -32020.761     -377.72704      50068.81       36.857207      36.857207      36.857207      1.195677      -3022.7962     -1219.0425     -2280.2682    
       800   800            294.77443     -752.6085       14536.072      15083.3        3379.0587      11704.241      1494.7781      3744.9728     -4051.296       148.32649     -2486.8556      44870.217     -32015.902     -379.33445      49856.647      36.805073      36.805073      36.805073      1.2007651     -1523.5815     -258.27812     -475.96593    
       900   900            295.67981     -1719.8034      13852.453      15098.735      3389.4374      11709.298      1515.1178      3716.4188     -4011.345       146.07129     -2509.7387      44871.806     -32019.032     -380.61307      49689.159      36.763813      36.763813      36.763813      1.2048126     -2700.9305     -1004.732      -1453.7476    
      1000   1000           300.28811      572.68028      15600.419      15186.991      3442.2633      11744.727      1451.3854      3773.7516     -4033.0312      146.03328     -2460.3085      44890.868     -32023.972     -382.0614       49500.796      36.717299      36.717299      36.717299      1.2093972     -997.04969      1437.9102      1277.1803    
      1100   1100           302.34818     -2087.5398      13750.75       15259.461      3465.8783      11793.583      1524.6561      3816.5373     -4039.2575      162.57317     -2529.6075      44870.148     -32011.466     -381.63644      49555.916      36.730923      36.730923      36.730923      1.208052      -2942.7738     -1322.1195     -1997.7262    
      1200   1200           303.28016     -921.92719      14565.798      15233.266      3476.5617      11756.704      1539.7883      3755.5519     -4053.7135      150.31191     -2497.978       44872.976     -32010.232     -380.96722      49642.967      36.752417      36.752417      36.752417      1.2059336     -1211.7068     -1319.0217     -235.05305    
      1300   1300           301.33793     -690.26426      14692.915      15193.285      3454.2975      11738.988      1532.4671      3772.9794     -4085.6707      153.75456     -2500.761       44879.78      -32013.562     -380.49154      49705.03       36.767727      36.767727      36.767727      1.2044278     -1652.8559      253.56299     -671.49986    
      1400   1400           296.67014     -1771.9831      13867.152      15156.471      3400.7897      11755.681      1493.7662      3748.8423     -4041.5802      131.31707     -2469.7962      44900.515     -32007.383     -379.07097      49891.3        36.813599      36.813599      36.813599      1.1999311     -2517.7037     -1835.6484     -962.5972     
      1500   1500           296.86836     -2090.9488      13608.079      15135.485      3403.0619      11732.423      1565.0382      3753.2252     -4093.2813      132.86542     -2489.1042      44874.132     -32010.453     -377.5811       50088.162      36.861955      36.861955      36.861955      1.195215      -848.22635     -2665.9643     -2758.6556    
      1600   1600           292.6278      -740.18275      14565.214      15105.874      3354.4515      11751.422      1536.6355      3761.0289     -4052.1204      128.16394     -2473.6092      44863.901     -32012.578     -377.60404      50085.12       36.861209      36.861209      36.861209      1.1952876     -94.325846     -1064.8505     -1061.3719    
      1700   1700           294.57377     -1130.2955      14280.729      15104.363      3376.7585      11727.605      1488.1199      3760.216      -4082.3745      139.42646     -2441.9021      44879.451     -32015.332     -378.51111      49965.094      36.83174       36.83174       36.83174       1.1981589     -2020.9014      394.69729     -1764.6824    
      1800   1800           296.91525     -839.40011      14574.014      15184.676      3403.5994      11781.077      1519.9419      3772.4296     -4050.8031      148.65581     -2447.5583      44849.276     -32010.865     -379.13106      49883.392      36.811654      36.811654      36.811654      1.2001213      328.50549     -3500.9578      654.252      
      1900   1900           302.25802     -27.022478      15220.403      15240.046      3464.8447      11775.201      1501.3171      3776.9676     -4060.2756      137.61808     -2436.8375      44867.893     -32011.482     -379.44563      49842.038      36.801478      36.801478      36.801478      1.2011171      604.23885     -402.69593     -282.61035    
      2000   2000           303.93555     -2280.2585      13556.926      15216.34       3484.0746      11732.266      1533.0499      3717.1719     -4032.8853      161.76052     -2478.4602      44842.152     -32010.524     -379.00989      49899.341      36.815576      36.815576      36.815576      1.1997377     -1381.0783     -2065.0272     -3394.6701    
      2100   2100           293.45157     -808.36646      14512.201      15102.224      3363.8945      11738.33       1502.4508      3744.4138     -4059.9306      161.67382     -2477.5616      44878.038     -32010.754     -377.88564      50047.797      36.85205       36.85205       36.85205       1.196179      -1128.8784     -1119.315      -176.90602    
      2200   2200           297.66992     -1129.0522      14268.567      15095.041      3412.2504      11682.791      1513.4769      3740.9222     -4075.9693      141.15736     -2478.3853      44851.487     -32009.898     -376.79587      50192.545      36.887544      36.887544      36.887544      1.1927294     -3409.5075     -245.07904      267.42999    
      2300   2300           303.16369     -1737.9129      13876.846      15149.603      3475.2265      11674.377      1562.2536      3730.4981     -4098.381       136.11769     -2486.8831      44837.99      -32007.219     -376.62014      50215.964      36.89328       36.89328       36.89328       1.1921731     -1653.8085     -1777.2748     -1782.6555    
      2400   2400           303.86319     -1152.4632      14364.389      15207.303      3483.2451      11724.057      1528.6824      3703.0677     -4093.4869      150.14861     -2442.7697      44889.541     -32011.125     -377.10754      50151.061      36.877379      36.877379      36.877379      1.193716      -1731.5259     -2269.247       543.38324    
      2500   2500           302.69702     -651.71747      14752.409      15228.3        3469.877       11758.423      1529.1109      3722.7483     -4061.8289      141.60944     -2423.3195      44866.086     -32015.983     -377.7231       50069.332      36.857335      36.857335      36.857335      1.1956645     -2244.406      -421.47161      710.72517    
      2600   2600           300.16202     -899.286        14528.782      15185.638      3440.8178      11744.82       1531.0251      3706.1212     -4059.2254      139.01885     -2418.2895      44856.695     -32010.525     -377.61462      50083.716      36.860864      36.860864      36.860864      1.1953211     -1410.1412     -764.75454     -522.9623     
      2700   2700           298.16705     -667.81655      14561.54       15048.97       3417.949       11631.02       1504.3652      3735.5266     -4086.3917      127.03366     -2484.9018      44852.011     -32016.622     -377.89088      50047.102      36.85188       36.85188       36.85188       1.1961956      233.62485     -552.63431     -1684.4402    
      2800   2800           294.54038     -1451.6227      13992.91       15049.339      3376.3758      11672.964      1523.9505      3711.7142     -4093.1546      142.64468     -2469.57        44875.018     -32017.639     -378.99595      49901.175      36.816027      36.816027      36.816027      1.1996936     -1015.6357     -1769.2772     -1569.9553    
      2900   2900           298.7667      -256.60311      14936.402      15122.801      3424.823       11697.978      1499.9412      3725.4152     -4072.7876      143.83192     -2447.3235      44864.684     -32015.784     -379.69896      49808.784      36.793292      36.793292      36.793292      1.201919      -1124.2074      435.62731     -81.229185    
      3000   3000           303.21038     -1053.0857      14420.862      15184.545      3475.7618      11708.783      1505.9486      3733.4624     -4073.5006      155.40818     -2438.1905      44847.061     -32021.406     -380.3402       49724.809      36.772603      36.772603      36.772603      1.2039488     -1658.7377     -556.96508     -943.55439    
      3100   3100           303.96075      369.5657       15462.576      15194.744      3484.3634      11710.381      1535.6579      3734.8526     -4099.341       135.48813     -2441.8382      44866.29      -32020.729     -380.58444      49692.897      36.764735      36.764735      36.764735      1.2047219     -468.20022      1277.901       298.99627    
      3200   3200           299.70131     -1756.4114      13879.565      15156.02       3435.5367      11720.484      1521.0354      3788.8244     -4089.1419      144.84838     -2483.3998      44851.362     -32013.045     -379.5263       49831.443      36.79887       36.79887       36.79887       1.2013724     -1803.1611     -2891.6108     -574.46224    
      3300   3300           295.56599     -1162.2368      14232.017      15078.788      3388.1326      11690.656      1551.247       3752.5979     -4116.5299      129.11517     -2513.2642      44896.381     -32008.891     -378.57307      49956.917      36.829731      36.829731      36.829731      1.198355      -1401.931      -211.43804     -1873.3415    
      3400   3400           292.52443     -955.86771      14307.397      15005.471      3353.2666      11652.204      1518.6764      3749.2682     -4121.3075      138.72909     -2468.5211      44849.471     -32014.112     -377.67439      50075.791      36.85892       36.85892       36.85892       1.1955103     -303.42544     -832.11158     -1732.0661    
      3500   3500           295.42951     -1709.8124      13840.618      15091.696      3386.5681      11705.128      1528.3746      3765.7484     -4098.6622      142.72976     -2433.4202      44817.717     -32017.36      -376.95135      50171.842      36.882471      36.882471      36.882471      1.1932215     -1583.8655     -940.67418     -2604.8974    
      3600   3600           300.23802     -334.54252      14941.853      15186.983      3441.6891      11745.294      1526.5374      3765.3973     -4110.1758      145.95803     -2405.0101      44838.651     -32016.064     -376.42308      50242.252      36.899717      36.899717      36.899717      1.1915493     -117.7574      -143.78713     -742.08304    
      3700   3700           302.61104     -1187.8458      14341.489      15212.325      3468.8915      11743.434      1540.2569      3737.3823     -4081.4241      141.43616     -2418.0522      44842.468     -32018.634     -376.22264      50269.02       36.906269      36.906269      36.906269      1.1909148     -624.66993     -1845.148      -1093.7196    
      3800   3800           297.77485     -668.28218      14694.24       15184.137      3413.4532      11770.684      1521.619       3763.4785     -4100.3432      144.51742     -2390.0231      44844.339     -32012.904     -376.25027      50265.329      36.905365      36.905365      36.905365      1.1910023     -1640.0883      639.37777     -1004.136     
      3900   3900           302.7059      -1243.482       14223.042      15133.689      3469.9789      11663.71       1549.4196      3661.29       -4135.7906      132.76191     -2418.2755      44886.694     -32012.389     -376.62652      50215.113      36.893072      36.893072      36.893072      1.1921933     -833.33389     -1808.2425     -1088.8696    
      4000   4000           292.62726     -1448.5915      14002.637      15062.674      3354.4453      11708.229      1483.5765      3774.0347     -4064.9218      151.93342     -2492.8266      44862.958     -32006.525     -376.91743      50176.357      36.883578      36.883578      36.883578      1.1931142     -843.82548     -2677.5533     -824.39578    
      4100   4100           293.51752     -991.05724      14350.987      15073.569      3364.6505      11708.919      1495.7067      3724.4382     -4102.7739      149.41783     -2436.996       44890.132     -32011.006     -378.29682      49993.398      36.838693      36.838693      36.838693      1.1974806     -1882.9885      919.60588     -2009.7891    
      4200   4200           300.29534      0.11197588     15189.664      15189.583      3442.3461      11747.237      1540.9736      3766.272      -4061.288       144.95817     -2477.4039      44847.607     -32013.882     -379.2279       49870.654      36.80852       36.80852       36.80852       1.2004279      487.36847     -158.76428     -328.26825    
      4300   4300           305.34221     -1280.8757      14292.06       15222.734      3500.1994      11722.535      1562.6916      3723.9094     -4099.5666      138.79197     -2426.7282      44837.439     -32014.002     -379.60361      49821.296      36.796372      36.796372      36.796372      1.2016171     -981.77972     -720.88204     -2139.9654    
      4400   4400           303.47658     -1029.8215      14446.444      15195.932      3478.8133      11717.119      1525.1162      3710.9412     -4054.177       148.63811     -2407.6469      44813.841     -32019.594     -378.98191      49903.024      36.816482      36.816482      36.816482      1.1996492     -1116.8026     -1632.0129     -340.64895    
      4500   4500           300.7136      -135.06387      15057.023      15155.318      3447.1407      11708.177      1538.4574      3669.0985     -4061.7124      146.21525     -2419.2869      44857.948     -32022.543     -378.99157      49901.752      36.816169      36.816169      36.816169      1.1996798      49.491274      1261.7965     -1716.4794    
      4600   4600           292.87092     -1798.4112      13728.667      15037.096      3357.2385      11679.858      1429.749       3779.831      -4036.7748      154.6873      -2479.5842      44844.876     -32012.927     -379.10545      49886.762      36.812482      36.812482      36.812482      1.2000402     -1752.2516     -1767.6021     -1875.3801    
      4700   4700           298.52084     -1225.0568      14136.376      15026.95       3422.0047      11604.945      1497.1328      3696.3677     -4102.7037      154.32738     -2442.959       44815.632     -32012.853     -379.40896      49846.855      36.802664      36.802664      36.802664      1.201001      -1061.4692     -921.59456     -1692.1068    
      4800   4800           296.33237     -1075.7471      14320.952      15101.932      3396.9178      11705.014      1557.2003      3731.0045     -4077.717       141.98422     -2480.3421      44848.108     -32015.224     -379.91972      49779.842      36.786164      36.786164      36.786164      1.2026178     -1370.0894      409.19539     -2266.3473    
      4900   4900           296.63961      452.78917      15480.089      15151.508      3400.4397      11751.068      1456.7822      3718.9253     -4005.1073      153.94784     -2431.5691      44872.063     -32013.974     -380.07948      49758.917      36.781009      36.781009      36.781009      1.2031235      1310.2531     -540.57645      588.69083    
      5000   5000           298.4962      -2132.4911      13620.954      15172.816      3421.7221      11751.094      1534.5276      3731.5959     -4060.7861      141.63668     -2469.3586      44880.347     -32006.868     -379.01404      49898.794      36.815442      36.815442      36.815442      1.1997509     -2424.9806     -3192.5269     -779.96586    
      5100   5100           296.33213     -1126.6155      14383.768      15205.403      3396.915       11808.488      1541.4716      3781.6595     -4087.9866      172.29938     -2454.1543      44866.032     -32010.834     -378.1968       50006.619      36.841941      36.841941      36.841941      1.197164       233.60163     -2193.8375     -1419.6107    
      5200   5200           304.89313     -533.28732      14913.225      15302.262      3495.0515      11807.211      1540.8238      3785.0599     -4070.0592      138.13715     -2505.9535      44925.624     -32006.421     -378.08638      50021.223      36.845527      36.845527      36.845527      1.1968144      779.1318      -1487.949      -891.04475    
      5300   5300           305.13556     -1556.4585      14183.024      15318.902      3497.8305      11821.072      1494.3244      3776.0253     -4048.5122      152.74787     -2456.0637      44905.403     -32002.853     -377.9437       50040.108      36.850163      36.850163      36.850163      1.1963628     -1990.1663     -1695.6322     -983.57705    
      5400   5400           301.89756     -682.54985      14679.408      15177.622      3460.7126      11716.91       1539.5018      3770.0807     -4096.7372      150.46793     -2482.1758      44851.937     -32016.165     -377.86706      50050.257      36.852654      36.852654      36.852654      1.1961202     -114.91535     -428.70188     -1504.0323    
      5500   5500           297.86851     -1513.2668      14028.315      15130.388      3414.5268      11715.861      1584.3509      3715.1161     -4072.4409      139.11189     -2448.4676      44811.848     -32013.658     -378.72699      49936.614      36.824741      36.824741      36.824741      1.1988422     -1699.2135     -1856.8326     -983.75437    
      5600   5600           293.49507     -117.03944      15059.958      15145.04       3364.3933      11780.647      1534.2501      3845.6359     -4099.6492      145.06187     -2448.4658      44815.718     -32011.904     -379.41331      49846.283      36.802523      36.802523      36.802523      1.2010148     -146.89516      1511.7148     -1715.9379    
      5700   5700           299.43975     -1417.1887      14184.768      15214.31       3432.5383      11781.772      1611.125       3724.8872     -4100.7976      148.30508     -2429.2732      44844.266     -32016.74      -379.66859      49812.769      36.794273      36.794273      36.794273      1.2018228     -620.43294     -2193.8241     -1437.3091    
      5800   5800           298.71228     -202.89934      15109.305      15256.883      3424.1992      11832.684      1618.4116      3782.1945     -4069.2614      149.82075     -2464.9181      44833.802     -32017.365     -379.21104      49872.871      36.809065      36.809065      36.809065      1.2003745     -787.61812     -835.12702      1014.0471    
      5900   5900           300.31896     -1317.6881      14241.234      15201.066      3442.6169      11758.449      1521.7526      3772.1419     -4057.3883      153.23702     -2464.9747      44844.986     -32011.306     -378.65059      49946.689      36.827217      36.827217      36.827217      1.1986004     -629.84417     -1080.0995     -2243.1207    
      6000   6000           298.0423      -1177.1461      14235.756      15093.98       3416.519       11677.461      1505.0092      3684.9519     -4060.577       151.18598     -2433.4156      44845.854     -32015.548     -378.31261      49991.311      36.838181      36.838181      36.838181      1.1975305     -2409.4206      487.1239      -1609.1415    
      6100   6100           297.45891     -543.87088      14719.718      15116.49       3409.8316      11706.659      1545.7463      3733.6706     -4090.8877      152.73774     -2477.729       44859.093     -32015.972     -378.07319      50022.969      36.845955      36.845955      36.845955      1.1967727     -1020.5634     -554.04722     -57.002006    
      6200   6200           302.55921     -979.30481      14455.727      15169.186      3468.2973      11700.889      1509.8811      3699.4042     -4019.2166      140.49194     -2470.4453      44851.895     -32011.121     -378.59088      49954.567      36.829153      36.829153      36.829153      1.1984114     -577.04946     -361.93194     -1998.933     
      6300   6300           308.14285     -865.45819      14609.617      15238.827      3532.3037      11706.523      1557.9114      3670.9287     -4045.1486      141.52694     -2430.8013      44823.141     -32011.035     -379.37764      49850.971      36.803677      36.803677      36.803677      1.2009018     -1242.139      -822.44253     -531.79301    
      6400   6400           303.75561     -1144.5367      14432.029      15265.173      3482.0118      11783.161      1535.0424      3699.2247     -4052.2338      140.55332     -2385.0094      44860.744     -32015.16      -378.90566      49913.066      36.818951      36.818951      36.818951      1.1994078     -769.21493     -1841.2608     -823.13435    
      6500   6500           306.13648     -926.07402      14506.187      15183.543      3509.3043      11674.239      1565.2978      3727.3624     -4055.6024      128.76602     -2522.0435      44841.903     -32011.445     -377.09419      50152.837      36.877814      36.877814      36.877814      1.1936737     -1235.0732     -1103.2867     -439.86215    
      6600   6600           300.39808     -981.50662      14391.963      15111.025      3443.5239      11667.501      1526.3425      3702.9567     -4062.2033      128.50879     -2454.844       44847.33      -32020.589     -376.4854       50233.936      36.897681      36.897681      36.897681      1.1917466     -1528.3579     -94.614921     -1321.5471    
      6700   6700           294.24194     -2099.0717      13595.316      15134.219      3372.9548      11761.265      1564.4408      3734.5799     -4078.2868      143.77254     -2435.119       44852.151     -32020.273     -376.21601      50269.905      36.906485      36.906485      36.906485      1.1908939     -1610.7535     -1876.2705     -2810.1913    
      6800   6800           301.55572     -866.81749      14581.904      15216.878      3456.7941      11760.083      1608.2139      3670.5054     -4093.1029      138.12707     -2409.8742      44865.706     -32019.491     -376.52458      50228.709      36.896401      36.896401      36.896401      1.1918706     -1190.0079     -501.84477     -908.59982    
      6900   6900           299.86894      504.64015      15639.826      15270.94       3437.4582      11833.481      1576.7737      3763.5516     -4055.1627      150.13603     -2439.8154      44852.828     -32014.83      -377.32042      50122.767      36.870442      36.870442      36.870442      1.1943898      195.13989      2682.6117     -1363.8311    
      7000   7000           305.92486     -2748.2928      13255.232      15258.967      3506.8784      11752.088      1582.7845      3678.7131     -4050.8827      143.82881     -2471.6386      44886.067     -32016.784     -378.30664      49992.1        36.838375      36.838375      36.838375      1.1975116     -2836.1        -3755.1526     -1653.6258    
      7100   7100           296.72561     -864.14641      14549.598      15177.7        3401.4256      11776.275      1473.3581      3763.7051     -4010.7832      138.67288     -2441.7851      44870.851     -32017.744     -379.47078      49838.735      36.800665      36.800665      36.800665      1.2011967     -1505.6513      821.19429     -1907.9822    
      7200   7200           295.06993     -915.15341      14486.339      15151.699      3382.4461      11769.253      1546.325       3786.0393     -4054.3156      138.82872     -2452.9059      44824.517     -32019.236     -379.36626      49852.465      36.804044      36.804044      36.804044      1.2008658     -253.99602     -310.49164     -2180.9726    
      7300   7300           302.55715     -433.42839      14851.722      15166.979      3468.2737      11698.706      1510.8209      3758.0334     -4020.6175      143.72181     -2509.1279      44835.387     -32019.512     -379.20496      49873.672      36.809262      36.809262      36.809262      1.2003552     -1777.0919      1490.14       -1013.3333    
      7400   7400           301.02814     -2112.6171      13645.936      15184.108      3450.7463      11733.362      1481.2493      3755.0523     -4069.4415      161.06635     -2485.9049      44899.834     -32008.494     -378.8236       49923.879      36.82161       36.82161       36.82161       1.1991481      39.040271     -4785.6779     -1591.2136    
      7500   7500           300.48133     -1050.7823      14411.55       15179.628      3444.4782      11735.15       1511.1172      3774.8519     -4046.7576      139.22463     -2484.0839      44848.715     -32007.918     -377.33663      50120.614      36.869914      36.869914      36.869914      1.1944411     -1519.521      -658.39715     -974.42892    
      7600   7600           300.77678     -1925.8764      13784.838      15197.696      3447.8649      11749.831      1513.0021      3725.3705     -4030.1632      156.37186     -2451.6554      44844.255     -32007.35      -375.96837      50303.018      36.914587      36.914587      36.914587      1.19011       -1449.0556     -2347.714      -1980.8596    
      7700   7700           295.9791      -1959.4289      13819.702      15257.741      3392.8681      11864.873      1475.0368      3889.3052     -4056.935       159.30081     -2452.3067      44859.353     -32008.882     -375.82018      50322.852      36.919438      36.919438      36.919438      1.1896409     -2071.7792     -2833.0419     -973.46548    
      7800   7800           303.7929      -2262.0396      13631.899      15284.746      3482.4393      11802.307      1548.8064      3752.8895     -4058.0547      159.5516      -2416.1751      44831.13      -32015.841     -377.47563      50102.158      36.865388      36.865388      36.865388      1.1948811     -1086.2099     -3042.2232     -2657.6857    
      7900   7900           304.60583     -112.91096      15097.363      15179.521      3491.7581      11687.763      1456.2197      3764.1026     -4044.058       158.81378     -2451.9064      44823.407     -32018.816     -379.0611       49892.599      36.813918      36.813918      36.813918      1.1998998     -394.64157      1538.4936     -1482.5848    
      8000   8000           299.73594     -787.34465      14536.124      15106.555      3435.9336      11670.622      1525.8355      3752.354      -4075.6338      123.76646     -2464.8789      44826.837     -32017.659     -380.69978      49677.842      36.761022      36.761022      36.761022      1.205087      -683.46456      255.83054     -1934.3999    
      8100   8100           301.38347     -2133.2244      13575.306      15117.394      3454.8196      11662.574      1528.3077      3779.83       -4095.6085      146.18917     -2518.1162      44840.666     -32018.693     -381.5475       49567.468      36.733776      36.733776      36.733776      1.2077704     -3213.2948     -3526.5405      340.16208    
      8200   8200           301.72118      482.35315      15513.334      15164.783      3458.6908      11706.092      1511.2627      3762.6374     -4064.17        144.43083     -2469.944       44834.729     -32012.854     -381.69807      49547.914      36.728945      36.728945      36.728945      1.2082471      2117.9885     -496.65399     -174.27507    
      8300   8300           302.57672     -383.35854      14968.625      15246.797      3468.498       11778.299      1588.17        3764.261      -4082.7423      156.54852     -2462.8441      44833.855     -32018.949     -380.1138       49754.424      36.779902      36.779902      36.779902      1.2032321     -356.07347     -46.34941      -747.65275    
      8400   8400           302.06581     -1720.8472      14068.038      15324.381      3462.6414      11861.739      1502.7953      3907.4243     -4051.3634      145.80321     -2445.1495      44816.408     -32014.179     -377.79431      50059.895      36.855019      36.855019      36.855019      1.1958899     -1414.0787     -1779.8409     -1968.622     
      8500   8500           301.60373     -1876.031       13943.322      15319.359      3457.3444      11862.015      1543.0069      3792.9367     -4054.7662      150.9173      -2377.958       44823.006     -32015.128     -376.03726      50293.802      36.912333      36.912333      36.912333      1.190328      -2118.613      -1043.6802     -2465.7998    
      8600   8600           301.33366     -613.4185       14746.909      15198.645      3454.2485      11744.397      1468.0429      3798.3927     -4068.2284      140.42751     -2440.2216      44860.817     -32014.834     -374.53562      50495.447      36.961598      36.961598      36.961598      1.1855747     -1453.9159      168.44523     -554.78487    
      8700   8700           296.17172     -2638.6236      13218.291      15162.457      3395.0762      11767.381      1641.5871      3722.1068     -4136.3012      136.90804     -2437.1147      44847.028     -32006.833     -374.33918      50521.945      36.968062      36.968062      36.968062      1.1849528     -3100.1882     -1352.957      -3462.7258    
      8800   8800           298.93109     -1966.2203      13710.11       15152.901      3426.7075      11726.193      1487.2809      3788.4472     -4079.85        149.54883     -2435.215       44832.475     -32016.494     -375.88067      50314.755      36.917458      36.917458      36.917458      1.1898323     -2236.8501     -2220.5049     -1441.3058    
      8900   8900           304.97991     -236.40795      14996.892      15169.385      3496.0462      11673.338      1572.1956      3706.4643     -4122.1322      134.76777     -2456.5219      44859.663     -32021.098     -378.01762      50030.323      36.847761      36.847761      36.847761      1.1965968     -513.56557      257.10968     -452.76795    
      9000   9000           301.46398     -2213.5102      13579.923      15188.069      3455.7425      11732.327      1566.2784      3756.9576     -4025.1787      129.29015     -2534.7949      44856.772     -32016.998     -379.64455      49815.923      36.79505       36.79505       36.79505       1.2017467     -1630.8714     -1697.019      -3312.64      
      9100   9100           299.16558     -834.33011      14598.027      15202.423      3429.3954      11773.027      1537.4217      3682.3429     -4041.8112      160.17053     -2427.0347      44876.251     -32014.313     -380.74814      49671.532      36.759465      36.759465      36.759465      1.2052401     -2379.3845     -135.31456      11.708755    
      9200   9200           301.13799     -1013.0822      14479.201      15214.913      3452.0056      11762.907      1455.0448      3820.9778     -4035.5102      143.66581     -2465.176       44862.822     -32018.917     -379.80261      49795.191      36.789945      36.789945      36.789945      1.2022471     -1145.9171     -435.94527     -1457.3843    
      9300   9300           302.52994     -1125.4312      14380.777      15200.446      3467.9618      11732.485      1581.3784      3700.0869     -4043.5606      126.57159     -2469.9138      44849.771     -32011.849     -378.7052       49939.487      36.825447      36.825447      36.825447      1.1987733     -1816.196      -809.91869     -750.17893    
      9400   9400           299.88706     -938.89931      14445.846      15130.625      3437.6659      11692.959      1469.7686      3776.3749     -4051.6316      137.29291     -2491.2535      44865.473     -32013.066     -378.17224      50009.867      36.842738      36.842738      36.842738      1.1970862     -2310.2395      827.74099     -1334.1994    
      9500   9500           296.91995     -1317.7853      14117.286      15079.374      3403.6533      11675.721      1473.3136      3712.5324     -4049.9918      153.3501      -2447.4427      44852.233     -32018.274     -377.79075      50060.367      36.855135      36.855135      36.855135      1.1958786     -1463.9852     -502.67715     -1986.6935    
      9600   9600           302.75492     -1451.9054      14072.503      15133.725      3470.5408      11663.184      1526.8829      3710.4279     -4063.455       135.16748     -2466.3535      44840.859     -32020.344     -377.35799      50117.777      36.869219      36.869219      36.869219      1.1945087     -1143.1529     -516.67091     -2695.8925    
      9700   9700           301.36121     -1313.4236      14288.135      15247.387      3454.5643      11792.823      1515.8984      3766.7735     -4042.0556      155.51789     -2459.2588      44870.465     -32014.518     -377.65321      50078.599      36.859609      36.859609      36.859609      1.1954432     -66.848253     -2408.7568     -1464.6657    
      9800   9800           302.57096      164.46506      15373.995      15254.149      3468.432       11785.717      1505.546       3799.8571     -4075.5848      140.85604     -2452.8697      44888.232     -32020.319     -378.50646      49965.709      36.831891      36.831891      36.831891      1.1981442     -1138.7937      1622.3097      9.879252     
      9900   9900           299.31434     -1676.4064      13970.421      15191.094      3431.1006      11759.993      1552.2342      3700.8002     -4078.8919      152.67737     -2428.4821      44877.129     -32015.474     -378.79247      49927.981      36.822619      36.822619      36.822619      1.1990495     -3124.3389     -1290.958      -613.92227    
     10000   10000          294.9418      -1290.4597      14178.957      15120.132      3380.9774      11739.155      1529.6862      3763.1739     -4113.2752      145.81279     -2439.7901      44860.489     -32006.942     -378.17729      50009.2        36.842574      36.842574      36.842574      1.1971022      51.223878     -2051.7139     -1870.8891    
     10100   10100          298.31862     -1384.3573      14121.67       15132.569      3419.6866      11712.882      1501.3847      3803.33       -4076.3018      153.69435     -2496.2414      44839.9       -32012.884     -377.713        50070.672      36.857664      36.857664      36.857664      1.1956325     -1384.9624     -895.42652     -1872.683     
     10200   10200          299.59172     -1472.1301      14071.516      15145.135      3434.2803      11710.855      1519.4071      3738.316      -4061.982       166.16673     -2469.8197      44835.33      -32016.563     -378.1961       50006.712      36.841963      36.841963      36.841963      1.1971617     -2164.0847     -1354.281      -898.02458    
     10300   10300          297.16171     -1430.1648      14113.332      15153.301      3406.4247      11746.877      1483.8832      3804.5729     -4047.2077      139.93662     -2463.8279      44844.821     -32015.301     -379.30355      49860.708      36.806073      36.806073      36.806073      1.2006673     -1355.4495     -983.47048     -1951.5745    
     10400   10400          301.9077      -271.58515      14970.439      15167.754      3460.8289      11706.925      1575.3055      3668.364      -4087.5179      161.21781     -2420.8043      44827.107     -32016.747     -379.6353       49817.136      36.795348      36.795348      36.795348      1.2017175     -1105.9969     -569.20201      860.44351    
     10500   10500          307.56915     -1353.2055      14285.018      15271.339      3525.7273      11745.611      1544.2953      3742.6704     -4038.2017      156.04469     -2439.1628      44796.878     -32016.912     -378.41385      49977.937      36.834895      36.834895      36.834895      1.197851      -2052.9473     -605.65098     -1401.0182    
     10600   10600          304.94804     -1161.6977      14500.752      15349.867      3495.6809      11854.186      1556.473       3836.2338     -4073.4227      148.90537     -2461.6034      44854.539     -32006.938     -377.35303      50118.435      36.86938       36.86938       36.86938       1.194493       625.8361      -2420.6017     -1690.3277    
     10700   10700          304.46973     -2954.6035      13109.178      15270.823      3490.1979      11780.625      1537.5542      3802.0007     -4085.2337      165.91181     -2499.0168      44865.287     -32005.878     -376.99529      50165.993      36.881038      36.881038      36.881038      1.1933606     -3368.752      -4143.2534     -1351.805     
     10800   10800          302.03765     -435.87388      14858.364      15176.463      3462.3186      11714.144      1494.5473      3719.4671     -4051.9895      124.91389     -2418.9684      44848.837     -32002.663     -377.93771      50040.901      36.850358      36.850358      36.850358      1.1963438     -1980.9164      1267.3538     -594.05898    
     10900   10900          297.66773     -676.73971      14647.146      15139.125      3412.2253      11726.899      1420.9372      3729.3839     -4059.1863      164.40727     -2428.6714      44907.39      -32007.361     -379.39897      49848.167      36.802987      36.802987      36.802987      1.2009694     -66.053892     -281.8846      -1682.2806    
     11000   11000          298.27261     -202.06758      14991.774      15138.522      3419.1591      11719.363      1528.8763      3749.0912     -4093.254       142.00329     -2447.5864      44853.089     -32012.857     -379.79079      49796.741      36.790326      36.790326      36.790326      1.2022096     -1829.8727      392.55701      831.11295    
     11100   11100          303.64025     -1205.0077      14317.731      15191.988      3480.6894      11711.299      1577.3047      3685.5375     -4071.7291      154.63015     -2479.774       44862.213     -32016.884     -380.16496      49747.729      36.778252      36.778252      36.778252      1.2033941     -1584.9554     -1690.2466     -339.82109    
     11200   11200          301.22174     -1026.2199      14514.992      15261.009      3452.9656      11808.044      1451.0022      3838.3912     -4038.5906      153.61173     -2469.478       44884.864     -32011.757     -379.41326      49846.29       36.802525      36.802525      36.802525      1.2010146     -2443.9398      1577.3635     -2212.0835    
     11300   11300          306.06571     -1083.6162      14457.19       15249.069      3508.493       11740.576      1553.8659      3717.0965     -4048.0659      142.30755     -2458.5269      44850.639     -32016.74      -377.43136      50108.034      36.866829      36.866829      36.866829      1.194741      -1515.1259     -22.048889     -1713.6737    
     11400   11400          295.23785     -1980.5366      13696.368      15148.401      3384.3711      11764.03       1484.4193      3810.6791     -4035.2849      145.23507     -2489.9547      44862.193     -32013.257     -376.20768      50271.019      36.906758      36.906758      36.906758      1.1908675     -1318.5609     -2797.3541     -1825.6948    
     11500   11500          300.31127     -1683.7214      13910.331      15142.354      3442.5287      11699.825      1450.7118      3715.9472     -4045.816       141.31125     -2419.0042      44866.201     -32009.526     -376.94054      50173.28       36.882824      36.882824      36.882824      1.1931873     -1156.993      -1563.4402     -2330.7309    
     11600   11600          300.79736     -738.75005      14636.547      15176.238      3448.1008      11728.138      1575.5606      3715.2564     -4112.3863      149.2337      -2439.7997      44855.414     -32015.141     -377.54895      50092.428      36.863001      36.863001      36.863001      1.1951132     -2384.97       -517.91576      686.63563    
     11700   11700          305.26441     -974.80848      14472.037      15183.637      3499.3076      11684.329      1441.3886      3801.2523     -4049.5845      129.8018      -2476.9048      44849.417     -32011.042     -377.83737      50054.19       36.853619      36.853619      36.853619      1.1960262     -2779.9023     -486.99671      342.47357    
     11800   11800          300.61809     -637.44958      14676.221      15140.612      3446.0459      11694.566      1534.8946      3647.8781     -4092.4142      146.23848     -2400.6441      44869.128     -32010.515     -378.60258      49953.023      36.828774      36.828774      36.828774      1.1984484     -370.07499     -917.42336     -624.8504     
     11900   11900          290.26004     -670.76996      14502.919      14991.578      3327.3095      11664.268      1460.6085      3740.5759     -4045.6339      150.46807     -2483.7207      44862.579     -32020.609     -378.60777      49952.338      36.828605      36.828605      36.828605      1.1984649     -292.83145     -2019.0633      299.58488    
     12000   12000          294.16887     -1472.1012      13923.606      14996.755      3372.1171      11624.638      1519.1766      3668.8272     -4093.4458      138.90657     -2468.0397      44870.525     -32011.311     -378.35425      49985.81       36.836829      36.836829      36.836829      1.1976624     -2122.1088     -226.07691     -2068.1179    
     12100   12100          295.48672     -912.43242      14433.561      15099.084      3387.2239      11711.86       1472.0071      3731.6725     -4042.8027      144.07351     -2453.5866      44868.781     -32008.286     -378.14596      50013.342      36.843592      36.843592      36.843592      1.197003      -3.2652061     -1906.8417     -827.19034    
     12200   12200          295.7333      -1224.0786      14279.738      15171.781      3390.0505      11781.731      1577.4101      3725.4179     -4081.6773      172.99588     -2462.288       44861.575     -32011.703     -378.48147      49969.008      36.832702      36.832702      36.832702      1.1980651     -3223.113       957.71497     -1406.8377    
     12300   12300          298.85034     -182.21024      15073.768      15206.499      3425.7818      11780.717      1520.109       3705.2509     -4044.2243      152.31847     -2429.1368      44892.503     -32016.103     -378.63531      49948.705      36.827713      36.827713      36.827713      1.198552      -925.07642      228.2992       150.1465     
     12400   12400          298.92005     -661.4058       14723.722      15205.741      3426.5808      11779.16       1469.6165      3782.1435     -4073.2182      148.63679     -2429.5313      44894.627     -32013.115     -378.46434      49971.27       36.833257      36.833257      36.833257      1.1980108     -250.71238     -1021.3169     -712.18814    
     12500   12500          298.09097     -416.25079      14820.548      15124.046      3417.077       11706.969      1475.5835      3759.8361     -4069.648       148.69778     -2455.7914      44861.871     -32013.581     -378.28733      49994.653      36.839002      36.839002      36.839002      1.1974505      719.73767     -1071.8159     -896.67417    
     12600   12600          293.67641     -1409.0151      14036.252      15064.058      3366.472       11697.586      1515.0111      3664.7541     -4069.1854      162.59202     -2460.2999      44892.559     -32007.845     -378.11661      50017.224      36.844545      36.844545      36.844545      1.1969101     -674.84832     -1679.5214     -1872.6756    
     12700   12700          298.14289     -918.94075      14456.993      15127.414      3417.6721      11709.742      1535.6256      3772.9869     -4073.6258      132.46175     -2479.3273      44838.912     -32017.291     -378.06003      50024.71       36.846383      36.846383      36.846383      1.196731      -1596.3276     -1187.6385      27.14381     
     12800   12800          297.69904     -722.33216      14653.825      15179.476      3412.5842      11766.892      1506.4352      3785.4451     -4059.1753      150.15616     -2427.2975      44825.316     -32013.987     -379.01862      49898.191      36.815294      36.815294      36.815294      1.1997654     -520.1436      -2367.107       720.25407    
     12900   12900          303.56198     -1686.5403      13974.137      15198.292      3479.7922      11718.5        1569.1894      3708.0726     -4077.4996      146.02893     -2475.9028      44862.219     -32013.607     -379.99816      49769.566      36.783633      36.783633      36.783633      1.2028661     -1099.3952     -1306.6622     -2653.5635    
     13000   13000          303.15748     -538.91604      14797.425      15187.565      3475.1553      11712.41       1487.1526      3779.8708     -4062.5957      157.9089      -2482.9405      44848.89      -32015.876     -380.99697      49639.091      36.751461      36.751461      36.751461      1.2060278      405.03158     -1168.7443     -853.03538    
     13100   13100          299.06662     -1976.899       13678.79       15110.914      3428.261       11682.653      1530.6638      3702.3389     -4073.5011      143.9704      -2465.1097      44855.049     -32010.759     -380.73708      49672.975      36.759821      36.759821      36.759821      1.2052051     -2341.7679     -1722.029      -1866.9003    
     13200   13200          292.83434     -837.79768      14427.518      15035.503      3356.8192      11678.684      1487.3521      3777.3744     -4078.6723      140.95138     -2477.2731      44844.376     -32015.425     -380.07306      49759.758      36.781216      36.781216      36.781216      1.2031032     -396.57545     -96.619941     -2020.1977    
     13300   13300          291.58914     -701.53351      14564.429      15074.65       3342.5452      11732.105      1566.2398      3741.1134     -4106.0065      155.50049     -2456.2757      44849.019     -32017.485     -379.23728      49869.421      36.808217      36.808217      36.808217      1.2004575      503.83504     -822.13788     -1786.2977    
     13400   13400          295.2833      -1237.0948      14239.994      15142.049      3384.8921      11757.157      1504.4273      3788.9855     -4068.4523      146.12136     -2456.5378      44851.906     -32009.293     -378.26094      49998.14       36.839858      36.839858      36.839858      1.197367      -3005.6597     -450.94904     -254.67581    
     13500   13500          294.03407     -874.22171      14535.865      15175.671      3370.5718      11805.099      1503.4396      3751.7582     -4052.105       153.84424     -2415.2049      44880.106     -32016.74      -376.87283      50182.295      36.885033      36.885033      36.885033      1.192973      -2088.3658     -1213.2399      678.94059    
     13600   13600          301.99654     -491.39728      14856.973      15218.061      3461.8473      11756.213      1521.6468      3760.7169     -4048.1555      149.54658     -2473.1497      44863.571     -32017.963     -375.35432      50385.309      36.934706      36.934706      36.934706      1.1881662      1350.0427     -2073.1383     -751.09619    
     13700   13700          296.66412     -2211.9292      13599.82       15223.94       3400.7207      11823.219      1502.0047      3755.4782     -4042.9652      150.18357     -2447.2034      44912.365     -32006.644     -375.64224      50346.69       36.925267      36.925267      36.925267      1.1890776     -3860.3511     -922.67013     -1852.7664    
     13800   13800          302.45315     -1611.8129      14052.689      15232.118      3467.0815      11765.036      1556.9858      3770.2521     -4082.0054      150.80294     -2475.3738      44854.852     -32010.478     -376.9331       50174.27       36.883067      36.883067      36.883067      1.1931638     -2070.1033     -728.46697     -2036.8684    
     13900   13900          301.45442     -1550.0971      14062.133      15190.244      3455.6329      11734.611      1496.4953      3754.3635     -4006.7876      139.03153     -2508.4092      44873.262     -32013.344     -378.9905       49901.893      36.816204      36.816204      36.816204      1.1996764     -2282.1344     -1526.2473     -841.90951    
     14000   14000          288.69837      46.046728      15150.702      15117.379      3309.4077      11807.971      1631.8478      3754.3703     -4102.1893      143.71214     -2455.7219      44854.77      -32018.817     -381.13543      49621.059      36.74701       36.74701       36.74701       1.206466       148.33611     -572.21995      562.02403    
     14100   14100          295.79293     -628.4588       14638.759      15092.458      3390.7341      11701.724      1507.8377      3778.0245     -4058.6834      130.27355     -2476.4632      44840.428     -32019.693     -382.05904      49501.101      36.717375      36.717375      36.717375      1.2093897     -1520.829      -49.812679     -314.73476    
     14200   14200          293.46038     -297.88701      14891.653      15106.896      3363.9956      11742.901      1522.5058      3762.7457     -4080.6586      144.79166     -2435.1317      44846.531     -32017.883     -381.71805      49545.321      36.728305      36.728305      36.728305      1.2083103     -799.18439      1278.9524     -1373.429     
     14300   14300          306.65223     -453.00424      14890.448      15219.076      3515.2164      11703.86       1469.5026      3702.0394     -4041.4629      145.52712     -2418.0157      44859.646     -32013.377     -380.2055       49742.425      36.776945      36.776945      36.776945      1.2035224     -1120.7818     -146.30587     -91.925058    
     14400   14400          301.17018     -1519.4837      14146.119      15255.503      3452.3746      11803.129      1603.5826      3806.0537     -4116.247       161.2221      -2425.5534      44791.228     -32017.157     -377.77691      50062.201      36.855585      36.855585      36.855585      1.1958348     -2025.7389     -1067.9564     -1464.756     
     14500   14500          304.41177     -1952.7231      13772.109      15203.045      3489.5336      11713.511      1509.9917      3783.0717     -4134.8049      141.03528     -2427.2219      44854.254     -32012.814     -376.3932       50246.241      36.900693      36.900693      36.900693      1.1914548     -1416.597      -2073.3292     -2368.243     
     14600   14600          295.0014      -1089.0238      14331.722      15131.022      3381.6606      11749.361      1463.9507      3827.0566     -4097.9559      152.55067     -2438.295       44855.019     -32012.965     -375.7932       50326.466      36.920322      36.920322      36.920322      1.1895555     -814.35836     -109.4183      -2343.2948    
     14700   14700          304.55677     -979.32551      14401.511      15120.614      3491.1957      11629.419      1556.7338      3662.2524     -4134.9865      138.80383     -2457.0204      44868.903     -32005.267     -375.62693      50348.743      36.925769      36.925769      36.925769      1.1890291     -777.36246     -1578.2412     -582.3729     
     14800   14800          300.67411     -1401.9792      14112.033      15140.23       3446.688       11693.542      1484.4944      3729.3883     -4052.4111      138.92878     -2450.3586      44856.297     -32012.797     -376.08541      50287.362      36.910757      36.910757      36.910757      1.1904805     -1650.4485     -1893.5724     -661.91664    
     14900   14900          299.53512      133.37628      15265.161      15167.772      3433.6315      11734.141      1551.8076      3732.6538     -4127.3167      147.99118     -2452.7912      44887.982     -32006.186     -377.73887      50067.242      36.856822      36.856822      36.856822      1.1957144     -714.70731      373.24073      741.59541    
     15000   15000          302.77597     -1427.4564      14149.527      15188.58       3470.7821      11717.798      1492.9743      3755.0575     -4058.3152      141.07198     -2447.4892      44849.05      -32014.551     -378.91911      49911.295      36.818516      36.818516      36.818516      1.1994504     -1444.0838     -1439.7002     -1398.5852    
     15100   15100          304.4798       745.16838      15756.938      15214.516      3490.3134      11724.202      1529.5486      3655.6802     -4091.0234      166.05102     -2428.0891      44903.538     -32011.503     -378.91183      49912.253      36.818752      36.818752      36.818752      1.1994274     -548.35948      2343.6385      440.22613    
     15200   15200          303.79666     -1497.21        14153.76       15248.053      3482.4824      11765.571      1541.2837      3811.6181     -4086.2366      147.3944      -2459.7884      44819.684     -32008.384     -377.37233      50115.872      36.868751      36.868751      36.868751      1.1945541     -183.43125     -2379.161      -1929.0377    
     15300   15300          303.46809     -798.73912      14661.872      15247.227      3478.716       11768.511      1591.1803      3719.8739     -4100.0535      149.51666     -2449.1985      44867.418     -32010.226     -376.36281      50250.298      36.901686      36.901686      36.901686      1.1913586     -1394.2836      253.05344     -1254.9872    
     15400   15400          295.9292      -2112.5329      13611.596      15159.785      3392.2962      11767.489      1577.2271      3758.5128     -4056.8907      148.0858      -2488.6         44846.247     -32017.093     -376.35757      50250.998      36.901858      36.901858      36.901858      1.191342      -2373.9226     -283.85637     -3679.8198    
     15500   15500          296.28599     -1940.8306      13699.025      15116.659      3396.3861      11720.272      1451.5934      3846.3816     -4070.7518      144.35052     -2500.8009      44866.849     -32017.349     -377.61114      50084.177      36.860978      36.860978      36.860978      1.1953101     -2392.2254     -2063.9        -1366.3663    
     15600   15600          298.98671      30.636199      15178.78       15156.504      3427.345       11729.159      1553.5039      3721.2308     -4143.3438      158.92712     -2428.3847      44878.379     -32011.153     -379.33343      49856.78       36.805106      36.805106      36.805106      1.2007619     -77.850972     -721.47957      891.23914    
     15700   15700          305.02131     -471.20874      14925.934      15268.179      3496.5209      11771.659      1528.8924      3757.4103     -4056.6647      140.54485     -2439.4789      44853.181     -32012.226     -379.74963      49802.138      36.791655      36.791655      36.791655      1.2020794     -778.61549      1497.1005     -2132.1112    
     15800   15800          305.62959     -1298.675       14318.75       15262.968      3503.4937      11759.474      1525.3222      3827.1221     -4136.0112      137.33121     -2429.0254      44854.004     -32019.269     -379.3583       49853.512      36.804302      36.804302      36.804302      1.2008406     -1143.3955     -1763.445      -989.18446    
     15900   15900          299.00362     -801.82252      14637.631      15222.57       3427.5388      11795.032      1494.1317      3868.3865     -4088.009       162.61074     -2476.9008      44855.346     -32020.534     -378.08413      50021.521      36.8456        36.8456        36.8456        1.1968073     -973.02901      837.21745     -2269.656     
     16000   16000          303.59027     -2257.8191      13540.803      15193.63       3480.1165      11713.513      1546.7485      3734.5478     -4088.3514      147.87067     -2462.3597      44843.648     -32008.59      -376.77581      50195.217      36.888198      36.888198      36.888198      1.1926659     -2148.2142     -2909.9477     -1715.2953    
     16100   16100          296.20483     -229.96008      14981.415      15149.634      3395.4557      11754.178      1487.4881      3761.88       -4078.5596      158.82196     -2465.7812      44901.144     -32010.815     -377.04909      50158.836      36.879284      36.879284      36.879284      1.1935309     -354.65382      964.50183     -1299.7283    
     16200   16200          299.21573     -1590.5775      13991.723      15150.656      3429.9703      11720.686      1510.9106      3722.2081     -4089.3732      169.24216     -2459.3723      44880.834     -32013.763     -378.54531      49960.58       36.830631      36.830631      36.830631      1.1982672     -1560.5978     -3413.9103      202.77562    
     16300   16300          300.97994     -684.48298      14732.963      15230.243      3450.1938      11780.049      1512.0299      3788.7607     -4060.4948      144.58078     -2430.7396      44842.215     -32016.303     -379.64967      49815.25       36.794884      36.794884      36.794884      1.201763      -1056.6352      227.67527     -1224.489     
     16400   16400          301.14869     -1714.7808      14087.752      15332.597      3452.1283      11880.469      1570.2744      3837.0489     -4049.5208      156.7546      -2458.3113      44834.828     -32010.605     -379.93937      49777.267      36.78553       36.78553       36.78553       1.20268       -506.94134     -2580.4995     -2056.9017    
     16500   16500          302.29273     -645.58884      14803.999      15272.574      3465.2426      11807.332      1527.5793      3829.0968     -4029.1511      155.4409      -2500.6817      44837.563     -32012.515     -380.01207      49767.744      36.783184      36.783184      36.783184      1.2029101     -417.82074     -555.98949     -962.95631    
     16600   16600          296.75912     -1298.9533      14247.569      15190.227      3401.8097      11788.418      1597.1766      3773.9218     -4081.8121      133.93296     -2464.6983      44844.288     -32014.391     -380.06729      49760.513      36.781402      36.781402      36.781402      1.2030849     -905.54187     -556.66159     -2434.6566    
     16700   16700          294.758       -142.69635      15050.877      15154.638      3378.8705      11775.767      1459.3712      3735.4067     -4028.6088      155.71471     -2429.513       44895.079     -32011.682     -379.31657      49858.996      36.805652      36.805652      36.805652      1.2007085     -1343.3782      819.13715      96.151974    
     16800   16800          300.95118     -1433.9583      14111.124      15158.851      3449.8642      11708.987      1511.2971      3768.3116     -4066.3963      151.18976     -2468.1993      44828.82      -32016.036     -377.49376      50099.751      36.864798      36.864798      36.864798      1.1949385     -844.24475     -2392.8223     -1064.8079    
     16900   16900          298.31889     -1395.7192      14166.619      15187.154      3419.6897      11767.465      1512.9328      3733.6175     -4044.7         151.99813     -2429.9466      44859.889     -32016.326     -377.21708      50136.498      36.873809      36.873809      36.873809      1.1940627     -2077.2019     -1336.63       -773.32566    
     17000   17000          304.57471     -1379.0576      14271.593      15280.838      3491.4014      11789.437      1488.549       3821.1175     -4028.0431      153.22093     -2470.6131      44840.323     -32015.118     -376.88329      50180.902      36.884691      36.884691      36.884691      1.1930061     -2852.9779     -303.04789     -981.14705    
     17100   17100          301.09494     -1520.878       14158.05       15269.744      3451.5121      11818.232      1606.8235      3698.2602     -4065.9696      153.41029     -2425.9131      44864.29      -32012.669     -377.33769      50120.472      36.86988       36.86988       36.86988       1.1944445     -753.23814     -2466.8421     -1342.5538    
     17200   17200          294.76524     -980.08222      14462.952      15178.138      3378.9535      11799.184      1477.9037      3867.237      -4014.1062      174.60077     -2512.5892      44829.343     -32023.205     -377.97666      50035.744      36.849092      36.849092      36.849092      1.1964671     -1170.8781      1129.5119     -2898.8805    
     17300   17300          291.5311      -927.98816      14442.902      15117.651      3341.8799      11775.771      1549.989       3764.9247     -4100.1822      135.34715     -2401.9497      44850.064     -32022.422     -379.33402      49856.703      36.805087      36.805087      36.805087      1.2007638     -2256.3452      580.38431     -1108.0036    
     17400   17400          297.17707     -260.3912       14930.819      15120.172      3406.6007      11713.572      1503.007       3829.0581     -4107.8788      134.20663     -2447.2586      44821.731     -32019.294     -379.29197      49862.23       36.806447      36.806447      36.806447      1.2006307     -881.26964      1495.8766     -1395.7805    
     17500   17500          301.06818     -633.39108      14682.71       15143.882      3451.2053      11692.677      1527.5467      3721.4746     -4048.2718      149.4327      -2449.7326      44806.545     -32014.318     -378.81795      49924.623      36.821793      36.821793      36.821793      1.1991302      384.23839     -2821.6712      537.25961    
     17600   17600          299.95899      182.47695      15297.164      15164.193      3438.4904      11725.703      1536.7228      3744.7822     -4091.135       157.35187     -2441.5578      44837.444     -32017.906     -378.50671      49965.675      36.831883      36.831883      36.831883      1.198145       1316.4387      886.34471     -1655.3526    
     17700   17700          295.01249     -2329.9225      13485.091      15183.304      3381.7877      11801.517      1550.6347      3783.3418     -4055.9847      148.97191     -2424.7495      44813.116     -32013.813     -378.41698      49977.524      36.834794      36.834794      36.834794      1.1978609     -3328.5363     -1793.082      -1868.1492    
     17800   17800          303.85541      464.91582      15605.308      15267.092      3483.1559      11783.936      1482.854       3806.5041     -4053.9665      156.40023     -2446.7763      44853.359     -32014.438     -379.14203      49881.949      36.811299      36.811299      36.811299      1.200156      -295.62678     -208.99941      1899.3736    
     17900   17900          304.0165      -1145.558       14474.539      15306.286      3485.0025      11821.284      1550.1361      3751.2844     -4056.0181      166.91943     -2437.6869      44863.108     -32016.459     -379.88023      49785.016      36.787439      36.787439      36.787439      1.2024928      247.94425      313.23905     -3997.8572    
     18000   18000          303.59702     -1045.4         14448.453      15207.18       3480.1939      11726.986      1530.886       3791.6646     -4062.4437      134.16928     -2520.5704      44870.827     -32017.546     -380.03022      49765.368      36.782598      36.782598      36.782598      1.2029675     -2191.2207     -372.26303     -572.71629    
     18100   18100          299.36973      249.43872      15328.052      15146.909      3431.7356      11715.174      1549.766       3721.1151     -4121.9267      141.01444     -2467.103       44904.184     -32011.877     -379.80821      49794.456      36.789764      36.789764      36.789764      1.2022648     -102.41911      139.88682      710.84846    
     18200   18200          298.82665     -2177.4794      13556.541      15142.602      3425.5103      11717.092      1482.273       3776.5395     -4058.294       137.04384     -2484.6921      44874.828     -32010.606     -378.66524      49944.757      36.826742      36.826742      36.826742      1.1986468     -1602.7002     -1332.5489     -3597.189     
     18300   18300          302.83503     -1299.2936      14234.645      15182.171      3471.4591      11710.712      1532.6382      3733.7585     -4045.7134      160.18338     -2488.486       44835.546     -32017.214     -378.21357      50004.402      36.841396      36.841396      36.841396      1.1972171     -3057.3585     -348.67229     -491.85003    
     18400   18400          308.17399      67.257617      15310.198      15261.144      3532.6607      11728.484      1546.3897      3738.153      -4071.9277      133.02587     -2440.4086      44836.528     -32013.277     -378.174        50009.634      36.842681      36.842681      36.842681      1.1970918     -365.91947      1767.825      -1200.1327    
     18500   18500          302.90982     -2045.56        13802.878      15294.643      3472.3164      11822.326      1490.2713      3842.5432     -4029.7553      155.10867     -2458.0845      44839.128     -32016.885     -378.21016      50004.853      36.841507      36.841507      36.841507      1.1972062     -1565.2311     -1984.1019     -2587.3471    
     18600   18600          296.76713      553.97522      15596.747      15192.907      3401.9015      11791.005      1538.1114      3691.5086     -4051.9726      162.2961      -2360.0115      44831.312     -32020.239     -378.35673      49985.482      36.836749      36.836749      36.836749      1.1976702      598.9039       140.486        922.53576    
     18700   18700          293.21861     -1820.6584      13796.248      15126.04       3361.2241      11764.816      1517.1796      3813.5471     -4067.9623      135.35237     -2442.4669      44824.983     -32015.817     -377.62968      50081.719      36.860374      36.860374      36.860374      1.1953688     -1114.9772     -1987.1155     -2359.8826    
     18800   18800          303.14678     -930.72956      14448.83       15127.89       3475.0327      11652.858      1511.7974      3665.279      -4065.3902      147.65288     -2431.4823      44840.988     -32015.987     -378.03886      50027.511      36.847071      36.847071      36.847071      1.196664      -1532.3746     -1179.6812     -80.132837    
     18900   18900          303.89984     -805.58349      14574.999      15160.931      3483.6652      11677.266      1473.689       3754.7965     -4071.4176      157.27077     -2441.3063      44821.86      -32017.627     -379.21431      49872.441      36.808959      36.808959      36.808959      1.2003848     -65.730485      782.56362     -3133.5836    
     19000   19000          307.23714     -771.28856      14674.488      15233.192      3521.9214      11711.27       1491.682       3828.5162     -4139.5611      147.69499     -2451.525       44857.817     -32023.354     -380.76442      49669.408      36.758941      36.758941      36.758941      1.2052916     -895.8411      -1409.9715     -8.0530507    
     19100   19100          302.1728      -778.89101      14708.232      15271.627      3463.8678      11807.759      1530.3889      3806.2708     -4030.2258      150.03242     -2455.4657      44830.074     -32023.315     -381.31605      49597.555      36.741207      36.741207      36.741207      1.2070378     -456.75949     -161.5695      -1718.344     
     19200   19200          302.42433     -755.16142      14633.641      15179.8        3466.7512      11713.049      1482.192       3762.9043     -4042.7343      152.79819     -2472.6949      44849.985     -32019.401     -381.36574      49591.091      36.739611      36.739611      36.739611      1.2071951      266.33392     -1221.0923     -1310.7259    
     19300   19300          302.91072     -1061.5138      14341.872      15111.178      3472.3267      11638.852      1474.8903      3702.9899     -4035.0169      154.49848     -2468.0472      44821.957     -32012.42      -380.58131      49693.306      36.764836      36.764836      36.764836      1.204712      -342.03094     -1565.5717     -1276.9389    
     19400   19400          300.03021     -1261.2795      14208.939      15125.24       3439.3069      11685.933      1507.542       3690.0065     -4051.5324      158.45518     -2462.7834      44862.337     -32018.092     -379.65946      49813.966      36.794568      36.794568      36.794568      1.2017939     -1520.0065     -645.39043     -1618.4417    
     19500   19500          301.37946     -956.2456       14508.673      15206.231      3454.7736      11751.458      1515.4582      3770.4658     -4034.962       139.18496     -2491.7047      44867.24      -32014.225     -378.10305      50019.018      36.844985      36.844985      36.844985      1.1968672     -1332.1833     -1905.8364      369.28297    
     19600   19600          304.26032     -1616.3085      14069.819      15250.515      3487.7975      11762.718      1550.402       3764.7745     -4090.2696      162.22648     -2465.2116      44855.864     -32015.068     -377.57873      50088.476      36.862032      36.862032      36.862032      1.1952075     -1785.223      -462.34502     -2601.3574    
     19700   19700          303.05693      226.65692      15395.234      15229.501      3474.0028      11755.498      1513.2334      3733.0659     -4103.0215      149.30632     -2417.3986      44888.269     -32007.957     -377.20825      50137.672      36.874096      36.874096      36.874096      1.1940348     -109.46324      811.27165     -21.837648    
     19800   19800          299.30588     -1145.4877      14371.864      15208.408      3431.0037      11777.404      1509.9187      3820.7072     -4063.7057      161.10576     -2514.2848      44878.846     -32015.183     -377.6793       50075.139      36.85876       36.85876       36.85876       1.1955258     -177.28141     -2004.0653     -1255.1163    
     19900   19900          302.63193     -1487.9143      14103.254      15184.687      3469.1309      11715.556      1500.4222      3713.6482     -4044.7404      138.20579     -2431.7529      44854.956     -32015.183     -379.48936      49836.294      36.800064      36.800064      36.800064      1.2012555     -1866.2923     -684.16991     -1913.2808    
     20000   20000          301.5867       773.77105      15698.066      15137.514      3457.1493      11680.365      1479.2559      3717.3666     -4061.8935      155.9137      -2446.7243      44849.786     -32013.339     -380.73079      49673.795      36.760024      36.760024      36.760024      1.2051852      128.87191      1172.2769      1020.1643    
     20100   20100          295.67292     -643.54247      14622.364      15088.227      3389.3583      11698.868      1506.1164      3674.8373     -4049.6588      159.262       -2453.5969      44871.989     -32010.08      -381.01352      49636.935      36.750929      36.750929      36.750929      1.2060802     -41.677396     -1276.7771     -612.17288    
     20200   20200          293.85509     -1744.634       13779.975      15044.489      3368.5202      11675.968      1547.0231      3728.0504     -4108.946       142.96794     -2490.9868      44871.19      -32013.331     -380.54162      49698.489      36.766114      36.766114      36.766114      1.2045864     -905.15174     -1674.933      -2653.8174    
     20300   20300          296.85094     -524.22195      14721.436      15102.024      3402.8622      11699.162      1504.8918      3780.7203     -4101.5052      134.15201     -2474.4976      44868.052     -32012.651     -379.90984      49781.136      36.786483      36.786483      36.786483      1.2025865     -2090.8716      461.49564      56.710136    
     20400   20400          304.72226     -291.62079      14989.139      15200.881      3493.0928      11707.788      1512.0428      3740.6253     -4057.9031      131.8422      -2476.6695      44868.316     -32010.466     -379.86705      49786.743      36.787864      36.787864      36.787864      1.2024511      416.73723      171.7525      -1463.3521    
     20500   20500          302.47452     -1556.4149      14083.969      15213.939      3467.3264      11746.613      1554.5637      3726.6776     -4071.0212      150.0719      -2449.2566      44846.656     -32011.078     -379.90893      49781.256      36.786512      36.786512      36.786512      1.2025836      336.41765     -2306.6983     -2698.964     
     20600   20600          300.48428     -727.64924      14639.808      15168.028      3444.5119      11723.516      1566.8922      3791.9145     -4085.104       143.83014     -2495.9703      44821.009     -32019.055     -379.95145      49775.684      36.78514       36.78514       36.78514       1.2027182     -1807.7348     -341.42788     -33.785066    
     20700   20700          297.49996     -2041.6182      13585.521      15062.905      3410.3021      11652.603      1518.7591      3717.6063     -4060.232       143.75422     -2527.9655      44879.617     -32018.936     -381.1557       49618.419      36.746358      36.746358      36.746358      1.2065302     -2663.9168     -3593.5185      132.58062    
     20800   20800          299.23468     -1334.6448      14068.704      15031.144      3430.1875      11600.957      1522.7075      3697.6692     -4055.3127      135.68392     -2539.2655      44858.663     -32019.189     -382.48403      49446.099      36.70377       36.70377       36.70377       1.210735      -992.7347      -417.16421     -2594.0355    
     20900   20900          301.25425     -1176.2819      14230.19       15078.051      3453.3383      11624.713      1480.7268      3723.9733     -4065.0365      132.58194     -2516.5622      44886.906     -32017.876     -382.65518      49423.983      36.698297      36.698297      36.698297      1.2112768     -1024.3556     -1796.919      -707.57108    
     21000   21000          299.23017     -1168.0631      14275.976      15120.377      3430.1358      11690.241      1489.0671      3796.3749     -4079.2727      157.43393     -2508.6549      44845.764     -32010.471     -381.53888      49568.588      36.734053      36.734053      36.734053      1.2077431     -645.27309     -1016.9415     -1841.9747    
     21100   21100          298.89075     -1649.3211      13984.506      15182.82       3426.245       11756.575      1504.6973      3750.2147     -4003.7097      149.57696     -2458.795       44830.873     -32016.282     -379.62595      49818.363      36.79565       36.79565       36.79565       1.2016879     -2468.9419     -1275.546      -1203.4755    
     21200   21200          302.32235      163.4151       15339.203      15219.913      3465.5821      11754.331      1581.8508      3719.1103     -4092.9512      141.16649     -2392.5417      44820.661     -32022.964     -377.841        50053.709      36.853501      36.853501      36.853501      1.1960377      1292.316      -164.38197     -637.68868    
[...]
    495200   495200         298.27255     -1096.2383      14395.248      15200.588      3419.1584      11781.43       1516.4136      3692.1468     -4030.2587      154.33196     -2396.6421      44861.354     -32015.915     -375.44536      50373.091      36.93172       36.93172       36.93172       1.1884544     -1262.2518     -33.349735     -1993.1135    
    495300   495300         298.90719     -2299.4961      13509.416      15200.642      3426.4335      11774.209      1539.772       3737.9789     -4051.6503      141.80544     -2416.1948      44841.116     -32018.618     -375.01822      50430.466      36.945736      36.945736      36.945736      1.1871023     -1226.5317     -2477.5045     -3194.452     
    495400   495400         299.41833     -209.01327      15029.554      15182.536      3432.2927      11750.243      1455.8452      3762.6274     -4045.1295      157.77324     -2450.1469      44888.223     -32018.95      -376.83858      50186.856      36.88615       36.88615       36.88615       1.1928646      1678.0715     -135.19898     -2169.9123    
    495500   495500         296.68178     -1213.5473      14204.256      15088.998      3400.9232      11688.075      1466.9899      3694.347      -4069.1244      134.25637     -2393.4862      44873.877     -32018.785     -378.32191      49990.082      36.837879      36.837879      36.837879      1.19756       -2679.8351      1544.5613     -2505.3682    
    495600   495600         293.31189      140.01792      15147.577      15045.754      3362.2934      11683.461      1435.5972      3652.7106     -4068.1473      154.10428     -2398.4872      44919.441     -32011.758     -379.27977      49863.834      36.806842      36.806842      36.806842      1.2005921      560.11989      21.644446     -161.71058    
    495700   495700         299.8484      -252.6054       14965.85       15149.818      3437.2227      11712.595      1500.2325      3736.3368     -4063.4051      150.83711     -2420.298       44823.471     -32014.579     -378.72335      49937.093      36.824858      36.824858      36.824858      1.1988307      157.64364      787.99537     -1703.4552    
    495800   495800         302.97891     -1573.5711      14060.938      15209.961      3473.1084      11736.852      1529.7576      3720.9286     -4061.2979      151.28119     -2416.4516      44828.745     -32016.11      -377.72793      50068.692      36.857178      36.857178      36.857178      1.1956798     -2900.4355     -1113.9451     -706.33278    
    495900   495900         302.77539      99.307959      15282.939      15210.18       3470.7754      11739.405      1473.397       3781.0386     -4063.2621      159.9158      -2425.6253      44835.923     -32021.983     -376.46314      50236.906      36.898408      36.898408      36.898408      1.1916762      111.79212     -165.25197      351.38373    
    496000   496000         303.9193      -2423.6031      13423.074      15201.036      3483.8883      11717.148      1459.093       3779.3535     -4047.8626      137.35848     -2464.2037      44874.536     -32021.127     -375.97601      50301.996      36.914337      36.914337      36.914337      1.1901341     -3867.5453     -1598.1067     -1805.1572    
    496100   496100         300.13385     -515.12016      14819.452      15196.788      3440.4949      11756.293      1487.0113      3744.5768     -4028.5872      131.26129     -2426.3359      44861.704     -32013.336     -376.53112      50227.836      36.896187      36.896187      36.896187      1.1918913     -1286.3002     -661.00515      401.94491    
    496200   496200         301.00116     -1418.2676      14147.357      15184.189      3450.437       11733.752      1520.5406      3702.4129     -4043.304       147.18788     -2433.5772      44857.798     -32017.306     -377.28624      50127.308      36.871556      36.871556      36.871556      1.1942816     -2188.3488     -1748.912      -317.54204    
    496300   496300         297.8831      -234.25046      14966.918      15137.576      3414.6941      11722.882      1437.4476      3755.4079     -4008.187       139.042       -2458.275       44875.999     -32018.552     -378.59492      49954.034      36.829022      36.829022      36.829022      1.1984242     -533.28257      245.82786     -415.29665    
    496400   496400         297.42029     -764.24034      14531.577      15086.211      3409.3888      11676.823      1484.8832      3724.9532     -4025.342       137.94018     -2482.6184      44855.918     -32018.911     -380.05337      49762.336      36.781851      36.781851      36.781851      1.2030408     -1744.1421      13.989099     -562.568      
    496500   496500         297.5016      -279.33408      14884.108      15086.388      3410.3209      11676.067      1451.9946      3758.3451     -4042.7892      137.72071     -2463.8443      44856.572     -32021.932     -380.88439      49653.763      36.755081      36.755081      36.755081      1.2056714     -1126.5793      1104.4675     -815.89051    
    496600   496600         304.2982      -2401.9218      13440.779      15185.969      3488.2317      11697.738      1570.2404      3758.3671     -4062.6691      150.70136     -2519.5373      44827.71      -32027.075     -379.60962      49820.507      36.796178      36.796178      36.796178      1.2016362     -3091.0702     -2608.6145     -1506.0807    
    496700   496700         299.33872      202.94185      15385.173      15237.084      3431.3802      11805.704      1465.265       3742.6907     -3994.6928      158.03134     -2425.2463      44875.815     -32016.159     -377.9818       50035.063      36.848925      36.848925      36.848925      1.1964834      774.8936      -400.57732      234.50928    
    496800   496800         303.77989     -2697.6041      13227.917      15209.421      3482.2902      11727.131      1477.0135      3788.0933     -4039.1362      137.32196     -2496.8561      44874.721     -32014.026     -375.49521      50366.404      36.930086      36.930086      36.930086      1.1886122     -3523.6106     -917.91266     -3651.2892    
    496900   496900         297.11221     -1500.4896      14042.571      15146.409      3405.8573      11740.552      1570.0737      3673.9923     -4084.8877      138.09215     -2423.4778      44882.189     -32015.43      -374.92879      50442.494      36.948673      36.948673      36.948673      1.1868192     -551.78632     -1854.2003     -2095.4821    
    497000   497000         294.77407      274.35711      15284.752      15083.359      3379.0546      11704.304      1468.6783      3732.295      -4095.6623      139.42587     -2417.9337      44889.707     -32012.206     -375.74409      50333.043      36.92193       36.92193       36.92193       1.1894        -411.3746       265.60285      968.84308    
    497100   497100         295.16924     -1957.9329      13592.889      15024.639      3383.5846      11641.054      1513.2672      3697.2151     -4128.2793      123.43298     -2410.6051      44862.341     -32016.318     -377.18283      50141.051      36.874925      36.874925      36.874925      1.1939543     -2295.5731     -2422.8098     -1155.4159    
    497200   497200         299.16027     -1667.2053      13871.594      15088.36       3429.3345      11659.026      1508.586       3766.9549     -4088.8035      132.94112     -2484.0081      44840.342     -32016.986     -377.92273      50042.884      36.850844      36.850844      36.850844      1.1962964     -432.79348     -1400.4985     -3168.3237    
    497300   497300         291.39412     -399.30247      14881.749      15171.992      3340.3096      11831.682      1569.9541      3745.0493     -4082.9725      137.88276     -2385.82        44860.973     -32013.384     -379.45587      49840.693      36.801147      36.801147      36.801147      1.2011495      78.803048     -353.91955     -922.79092    
    497400   497400         299.71343      235.30134      15395.158      15224.195      3435.6756      11788.52       1507.0104      3780.1771     -4044.7658      129.18445     -2403.0418      44837.778     -32017.823     -379.61472      49819.837      36.796013      36.796013      36.796013      1.2016523     -95.563376      1421.7933     -620.32595    
    497500   497500         301.95434     -1827.1333      13877.016      15209.544      3461.3635      11748.18       1532.9663      3775.7422     -4065.2755      147.42192     -2441.3861      44813.567     -32014.856     -378.19451      50006.922      36.842015      36.842015      36.842015      1.1971567     -2415.7525     -482.14253     -2583.505     
    497600   497600         299.16847     -1092.1029      14347.607      15148.077      3429.4286      11718.649      1470.5502      3797.4771     -4090.6075      147.74953     -2446.7224      44851.905     -32011.703     -376.30448      50258.087      36.903593      36.903593      36.903593      1.1911739     -610.13513     -589.43162     -2076.7418    
    497700   497700         296.19259     -703.66659      14523.951      15042.158      3395.3154      11646.843      1534.988       3642.5321     -4115.9343      144.66683     -2397.5811      44852.133     -32013.962     -374.52888      50496.356      36.96182       36.96182       36.96182       1.1855533     -617.56437     -283.14744     -1210.288     
    497800   497800         294.69302     -1413.144       14015.554      15058.077      3378.1256      11679.952      1447.5171      3773.9938     -4117.8758      134.25146     -2413.1673      44870.733     -32015.5       -373.87113      50585.193      36.983483      36.983483      36.983483      1.1834713     -1066.2198     -2201.378      -971.83408    
    497900   497900         293.7907      -1676.0566      13919.804      15156.538      3367.7821      11788.756      1546.4202      3764.9799     -4068.1553      135.5368      -2398.3833      44828.908     -32020.55      -373.79489      50595.511      36.985997      36.985997      36.985997      1.1832299     -2371.448      -801.446       -1855.2759    
    498000   498000         300.62653     -897.68686      14530.235      15191.416      3446.1426      11745.273      1516.795       3814.4935     -4119.4857      153.63633     -2425.0412      44823.474     -32018.599     -374.47781      50503.241      36.9635        36.9635        36.9635        1.1853917     -1530.408      -1059.3117     -103.34086    
    498100   498100         297.81435     -997.66084      14498.465      15230.052      3413.906       11816.146      1535.5177      3788.9883     -4068.1157      141.04375     -2422.6448      44861.43      -32020.074     -376.13064      50281.315      36.909277      36.909277      36.909277      1.1906236     -1253.3084     -974.08559     -765.58853    
    498200   498200         304.50048     -1736.2636      13954.06       15220.769      3490.5505      11730.219      1537.2506      3755.6856     -4115.2766      136.14879     -2424.8717      44852.355     -32011.072     -378.05926      50024.811      36.846408      36.846408      36.846408      1.1967286     -2937.4773     -997.15953     -1274.154     
    498300   498300         292.83354     -863.98074      14514.17       15141.61       3356.8099      11784.801      1492.6897      3765.3143     -4037.8432      138.0178      -2418.1171      44858.373     -32013.634     -379.79829      49795.758      36.790084      36.790084      36.790084      1.2022334     -2220.8845      692.99234     -1064.0501    
    498400   498400         295.47221     -524.6845       14701.389      15081.343      3387.0576      11694.285      1530.7857      3769.5656     -4094.9467      138.41291     -2488.563       44858.553     -32019.522     -380.88086      49654.223      36.755195      36.755195      36.755195      1.2056602     -563.73593     -172.10228     -838.21528    
    498500   498500         300.38254     -1558.9764      13959.311      15086.654      3443.3456      11643.308      1449.7424      3770.5363     -4064.2911      119.7499      -2486.1071      44870.633     -32016.956     -381.42109      49583.895      36.737834      36.737834      36.737834      1.2073703     -3044.6395     -1951.9304      319.64068    
    498600   498600         303.3129      -447.56339      14875.187      15198.75       3476.937       11721.813      1498.3269      3799.1506     -4039.1765      128.68946     -2491.8824      44848.604     -32021.899     -381.51885      49571.19       36.734696      36.734696      36.734696      1.2076797      591.50449     -1053.67       -880.52466    
    498700   498700         305.04065     -1291.2232      14329.79       15266.762      3496.7426      11770.019      1557.3757      3757.4864     -4073.9642      143.6219      -2464.2201      44867.778     -32018.058     -380.09848      49756.431      36.780396      36.780396      36.780396      1.2031836     -2561.3953     -317.6703      -994.60418    
    498800   498800         301.30607     -604.9129       14773.205      15214.649      3453.9323      11760.716      1497.0566      3796.5308     -4084.8231      150.16804     -2428.0489      44843.695     -32013.862     -377.95363      50038.792      36.84984       36.84984       36.84984       1.1963942     -1151.8842     -277.33846     -385.51606    
    498900   498900         299.37806     -683.98382      14643.39       15144.25       3431.8311      11712.419      1443.2875      3750.6358     -4034.1219      154.87497     -2451.4504      44870.661     -32021.468     -376.66063      50210.565      36.891958      36.891958      36.891958      1.1923013     -84.680739     -250.90844     -1716.3623    
    499000   499000         297.32423     -1685.6316      13902.499      15138.724      3408.2876      11730.436      1543.0271      3746.9089     -4082.3395      128.59055     -2491.3127      44896.709     -32011.148     -376.08529      50287.379      36.910761      36.910761      36.910761      1.1904801     -1895.9487     -1694.8716     -1466.0747    
    499100   499100         302.14045     -413.85701      14885.245      15188.266      3463.497       11724.769      1534.4859      3726.0602     -4078.226       135.60075     -2466.6089      44886.724     -32013.268     -376.70351      50204.85       36.890558      36.890558      36.890558      1.192437      -1214.0944     -147.71252      120.23583    
    499200   499200         303.47949     -2044.8809      13713.395      15209.097      3478.8467      11730.25       1577.2976      3769.6424     -4091.5973      156.12003     -2490.8181      44831.889     -32022.283     -377.08917      50153.505      36.877978      36.877978      36.877978      1.1936578     -3771.819      -2209.2578     -153.56584    
    499300   499300         293.64436     -1354.2352      14113.742      15103.102      3366.1046      11736.998      1507.2734      3681.8584     -4060.7359      145.89307     -2371.2432      44857.931     -32023.979     -377.53838      50093.83       36.863346      36.863346      36.863346      1.1950798     -2198.5632     -1271.8305     -592.31193    
    499400   499400         293.8575      -1629.2002      13854.757      15047.109      3368.5478      11678.561      1557.2999      3719.4413     -4073.0781      146.36998     -2478.2532      44828.127     -32021.346     -376.86973      50182.708      36.885134      36.885134      36.885134      1.1929632     -1878.9971     -1076.8289     -1931.7747    
    499500   499500         297.97626     -312.14148      14900.753      15128.659      3415.762       11712.897      1496.7852      3731.9894     -4064.3521      144.73059     -2391.5879      44818.06      -32022.728     -377.76012      50064.425      36.856131      36.856131      36.856131      1.1957817     -1246.2201     -157.08175      466.87743    
    499600   499600         300.74728     -1383.2797      14183.291      15189.431      3447.5267      11741.904      1507.9185      3776.0915     -4070.8741      150.85694     -2457.8274      44853.694     -32017.956     -379.20406      49873.789      36.809291      36.809291      36.809291      1.2003524     -2740.3199     -171.88322     -1237.6361    
    499700   499700         298.30024     -783.35191      14610.982      15179.926      3419.4759      11760.45       1574.0291      3695.7504     -4049.7269      148.4         -2426.5785      44836.358     -32017.782     -379.75927      49800.874      36.791344      36.791344      36.791344      1.2021099     -1609.7908     -704.08859     -36.176328    
    499800   499800         297.97683     -619.1801       14699.542      15149.602      3415.7686      11733.834      1485.9996      3726.9324     -4054.9368      158.91625     -2466.1658      44902.881     -32019.793     -379.46157      49839.945      36.800963      36.800963      36.800963      1.2011675     -1316.1777     -115.92892     -425.43366    
    499900   499900         294.29499     -2639.2778      13157.587      15081.662      3373.5628      11708.099      1543.8758      3792.1118     -4114.8562      140.46979     -2444.2155      44809.914     -32019.2       -378.34176      49987.459      36.837235      36.837235      36.837235      1.1976228     -2339.3511     -2767.9553     -2810.527     
    500000   500000         290.86262      54.86431       15086.735      15046.651      3334.2169      11712.434      1490.6055      3740.1033     -4078.1876      145.30481     -2426.6475      44857.256     -32016         -377.52103      50096.133      36.86391       36.86391       36.86391       1.1950248     -308.77451      242.57308      230.79436    
Loop time of 1954.45 on 1 procs for 500000 steps with 4520 atoms

Performance: 22.103 ns/day, 1.086 hours/ns, 255.826 timesteps/s, 1.156 Matom-step/s
100.0% CPU use with 1 MPI tasks x 1 OpenMP threads

MPI task timing breakdown:
Section |  min time  |  avg time  |  max time  |%varavg| %total
---------------------------------------------------------------
Pair    | 534.24     | 534.24     | 534.24     |   0.0 | 27.33
Bond    | 298.17     | 298.17     | 298.17     |   0.0 | 15.26
Kspace  | 609.57     | 609.57     | 609.57     |   0.0 | 31.19
Neigh   | 113.03     | 113.03     | 113.03     |   0.0 |  5.78
Comm    | 15.034     | 15.034     | 15.034     |   0.0 |  0.77
Output  | 5.294      | 5.294      | 5.294      |   0.0 |  0.27
Modify  | 263.87     | 263.87     | 263.87     |   0.0 | 13.50
Other   |            | 115.2      |            |       |  5.90

Nlocal:           4520 ave        4520 max        4520 min
Histogram: 1 0 0 0 0 0 0 0 0 0
Nghost:          14980 ave       14980 max       14980 min
Histogram: 1 0 0 0 0 0 0 0 0 0
Neighs:              0 ave           0 max           0 min
Histogram: 1 0 0 0 0 0 0 0 0 0
FullNghs:  2.59574e+06 ave 2.59574e+06 max 2.59574e+06 min
Histogram: 1 0 0 0 0 0 0 0 0 0

Total # of neighbors = 2595742
Ave neighs/atom = 574.2792
Ave special neighs/atom = 5.5353982
Neighbor list builds = 16972
Dangerous builds = 0

# --- Cleanup ---
unfix npt_fix
unfix shake_fix
undump dump_npt

# --- Write Output ---
write_dump all custom /home/arz2/PolyJarvis/data/PLA2/lammps/mechanical/bm_series/bm_P-1000/bm_P-1000_last.dump id type mol x y z xu yu zu vx vy vz modify sort id
write_data /home/arz2/PolyJarvis/data/PLA2/lammps/mechanical/bm_series/bm_P-1000/bm_P-1000_out.data
System init for write_data ...
PPPM Kokkos initialization ...
  using 12-bit tables for long-range coulomb
  G vector (1/distance) = 0.34247222
  grid = 45 45 45
  stencil order = 5
  estimated absolute RMS force accuracy = 0.00025653478
  estimated relative force accuracy = 7.7254687e-07
  using double precision cuFFT
  3d grid and FFT values/proc = 140608 91125
Generated 21 of 21 mixed pair_coeff terms from sixthpower/sixthpower mixing rule

print "STAGE COMPLETE: NPT T=300.0->300.0K P=-1000.0->-1000.0atm steps=500000"
STAGE COMPLETE: NPT T=300.0->300.0K P=-1000.0->-1000.0atm steps=500000
quit
