units real
atom_style full
boundary p p p

# --- Force Field Styles ---
pair_style lj/class2/coul/long 9.5 9.5
kspace_style pppm 1e-6
dielectric 1.000000
bond_style class2
angle_style class2
dihedral_style class2
improper_style class2
special_bonds lj/coul 0 0 1
pair_modify mix sixthpower tail yes
neighbor 2.0 bin
neigh_modify delay 0 every 1 check yes
neigh_modify one 4000
# KOKKOS: package loaded via -pk kokkos on the command line

read_data /home/alexzhao/PolyJarvis/data/PS3/lammps/equil/npt_production/npt_production_out.data
Reading data file ...
  orthogonal box = (4.20207 4.20207 4.20207) to (46.532615 46.532615 46.532615)
  1 by 1 by 1 MPI processor grid
  reading atoms ...
  6420 atoms
  reading velocities ...
  6420 velocities
  scanning bonds ...
  4 = max bonds/atom
  scanning angles ...
  14 = max angles/atom
  scanning dihedrals ...
  34 = max dihedrals/atom
  scanning impropers ...
  11 = max impropers/atom
  orthogonal box = (4.20207 4.20207 4.20207) to (46.532615 46.532615 46.532615)
  1 by 1 by 1 MPI processor grid
  reading bonds ...
  6810 bonds
  reading angles ...
  12000 angles
  reading dihedrals ...
  19110 dihedrals
  reading impropers ...
  5600 impropers
Finding 1-2 1-3 1-4 neighbors ...
  special bond factors lj:    0        0        1       
  special bond factors coul:  0        0        1       
     4 = max # of 1-2 neighbors
     8 = max # of 1-3 neighbors
    12 = max # of special neighbors
  special bonds CPU = 0.003 seconds
  read_data CPU = 0.291 seconds
include /home/alexzhao/PolyJarvis/data/PS3/lammps/cell/emc_build.params
# LAMMPS parameters created by EMC v9.4.4, build Jul 31 2025 20:33:44

# Variables

variable	seed		index	472913
variable	ntotal		index	6420
variable	fshape		index	1
variable	output		index	emc_build
variable	field		index	pcff/pcff
variable	location1	index	~/emc/field/
variable	nav		index	0.6022141179
variable	temperature	index	300
variable	radius		index	5
variable	nrelax		index	100
variable	weight_nonbond	index	0.0001
variable	weight_bond	index	0.0001
variable	weight_focus	index	1
variable	cutoff		index	9.5
variable	charge_cutoff	index	9.5
variable	kappa		index	4
variable	density1	index	0.53
variable	lprevious	index	0
variable	lphase		index	50.7346850343
variable	f_poly		index	10
variable	chem_repeat	index	*CC(c1ccccc1)*
variable	chem_cap	index	*[H]
variable	lg_repeat	index	16
variable	lg_cap		index	1
variable	norm_poly	index	100
variable	l_poly		index	642
variable	mg_repeat	index	92.14181
variable	mg_cap		index	1.00797
variable	m_poly		index	3687.68834
variable	n_poly		index	10
variable	mtotal		index	41681.3434
variable	nphase1		index	6420
variable	mphase1		index	41681.3434
variable	vphase1		index	130591.498627
variable	lbox		index	50.7346850343
variable	lphase1		index	50.7346850343
variable	lxx		index	50.7346850343
variable	lyy		index	50.7346850343
variable	lzz		index	50.7346850343
variable	lzy		index	0
variable	lzx		index	0
variable	lyx		index	0
variable	vtotal		index	130591.498627
variable	nl_poly		index	10

# Types

variable	type_c		index	1
variable	type_c1		index	2
variable	type_cp		index	3
variable	type_hc		index	4

variable	type_bond_c_c	index	1
variable	type_bond_c_c1	index	2
variable	type_bond_c_cp	index	3
variable	type_bond_c_hc	index	4
variable	type_bond_c1_cp	index	5
variable	type_bond_c1_hc	index	6
variable	type_bond_cp_cp	index	7
variable	type_bond_cp_hc	index	8

variable	type_angle_c_c_c1 index	1
variable	type_angle_c_c_cp index	2
variable	type_angle_c_c_hc index	3
variable	type_angle_c_c1_c index	4
variable	type_angle_c_c1_cp index	5
variable	type_angle_c_c1_hc index	6
variable	type_angle_c_cp_cp index	7
variable	type_angle_c1_c_c1 index	8
variable	type_angle_c1_c_hc index	9
variable	type_angle_c1_cp_cp index	10
variable	type_angle_cp_c_hc index	11
variable	type_angle_cp_c1_hc index	12
variable	type_angle_cp_cp_cp index	13
variable	type_angle_cp_cp_hc index	14
variable	type_angle_hc_c_hc index	15

# Clusters

variable	n0_poly		index	1
variable	n1_poly		index	10
variable	nl_poly		index	10

# Flags

variable	flag_charged	index	1

# Masses

mass		1    12.01115  # c
mass		2    12.01115  # c1
mass		3    12.01115  # cp
mass		4     1.00797  # hc

# Potentials

pair_modify	mix sixthpower tail yes
special_bonds	lj/coul 0 0 1

# Pair Coeffs

pair_coeff	 1  1    0.05400    4.01000  # c,c
pair_coeff	 2  2    0.05400    4.01000  # c1,c1
pair_coeff	 3  3    0.06400    4.01000  # cp,cp
pair_coeff	 4  4    0.02000    2.99500  # hc,hc

# Bond Coeffs

bond_coeff	1    1.53000  299.67000 -501.77000  679.81000  # c,c
bond_coeff	2    1.53000  299.67000 -501.77000  679.81000  # c,c1
bond_coeff	3    1.50100  321.90210 -521.82080  572.16280  # c,cp
bond_coeff	4    1.10100  345.00000 -691.89000  844.60000  # c,hc
bond_coeff	5    1.50100  321.90210 -521.82080  572.16280  # c1,cp
bond_coeff	6    1.10100  345.00000 -691.89000  844.60000  # c1,hc
bond_coeff	7    1.41700  470.83610 -627.61790 1327.63450  # cp,cp
bond_coeff	8    1.09820  372.82510 -803.45260  894.31730  # cp,hc

# Angle Coeffs

angle_coeff	 1  112.67000   39.51600   -7.44300   -9.55830  # c,c,c1
angle_coeff	 2  108.40000   43.95940   -8.39240   -9.33790  # c,c,cp
angle_coeff	 3  110.77000   41.45300  -10.60400    5.12900  # c,c,hc
angle_coeff	 4  112.67000   39.51600   -7.44300   -9.55830  # c,c1,c
angle_coeff	 5  108.40000   43.95940   -8.39240   -9.33790  # c,c1,cp
angle_coeff	 6  110.77000   41.45300  -10.60400    5.12900  # c,c1,hc
angle_coeff	 7  120.05000   44.71480  -22.73520    0.00000  # c,cp,cp
angle_coeff	 8  112.67000   39.51600   -7.44300   -9.55830  # c1,c,c1
angle_coeff	 9  110.77000   41.45300  -10.60400    5.12900  # c1,c,hc
angle_coeff	10  120.05000   44.71480  -22.73520    0.00000  # c1,cp,cp
angle_coeff	11  111.00000   44.32340   -9.44540    0.00000  # cp,c,hc
angle_coeff	12  111.00000   44.32340   -9.44540    0.00000  # cp,c1,hc
angle_coeff	13  118.90000   61.02260  -34.99310    0.00000  # cp,cp,cp
angle_coeff	14  117.94000   35.15580  -12.46820    0.00000  # cp,cp,hc
angle_coeff	15  107.66000   39.64100  -12.92100   -2.43180  # hc,c,hc

# BondBond Coeffs

angle_coeff	 1 bb    0.00000    1.53000    1.53000  # c,c,c1
angle_coeff	 2 bb    0.00000    1.53000    1.50100  # c,c,cp
angle_coeff	 3 bb    3.38720    1.53000    1.10100  # c,c,hc
angle_coeff	 4 bb    0.00000    1.53000    1.53000  # c,c1,c
angle_coeff	 5 bb    0.00000    1.53000    1.50100  # c,c1,cp
angle_coeff	 6 bb    3.38720    1.53000    1.10100  # c,c1,hc
angle_coeff	 7 bb   12.06760    1.50100    1.41700  # c,cp,cp
angle_coeff	 8 bb    0.00000    1.53000    1.53000  # c1,c,c1
angle_coeff	 9 bb    3.38720    1.53000    1.10100  # c1,c,hc
angle_coeff	10 bb   12.06760    1.50100    1.41700  # c1,cp,cp
angle_coeff	11 bb    2.91680    1.50100    1.10100  # cp,c,hc
angle_coeff	12 bb    2.91680    1.50100    1.10100  # cp,c1,hc
angle_coeff	13 bb   68.28560    1.41700    1.41700  # cp,cp,cp
angle_coeff	14 bb    1.07950    1.41700    1.09820  # cp,cp,hc
angle_coeff	15 bb    5.33160    1.10100    1.10100  # hc,c,hc

# BondAngle Coeffs

angle_coeff	 1 ba    8.01600    8.01600    1.53000    1.53000  # c,c,c1
angle_coeff	 2 ba    0.00000    0.00000    1.53000    1.50100  # c,c,cp
angle_coeff	 3 ba   20.75400   11.42100    1.53000    1.10100  # c,c,hc
angle_coeff	 4 ba    8.01600    8.01600    1.53000    1.53000  # c,c1,c
angle_coeff	 5 ba    0.00000    0.00000    1.53000    1.50100  # c,c1,cp
angle_coeff	 6 ba   20.75400   11.42100    1.53000    1.10100  # c,c1,hc
angle_coeff	 7 ba   47.05790   31.07710    1.50100    1.41700  # c,cp,cp
angle_coeff	 8 ba    8.01600    8.01600    1.53000    1.53000  # c1,c,c1
angle_coeff	 9 ba   20.75400   11.42100    1.53000    1.10100  # c1,c,hc
angle_coeff	10 ba   47.05790   31.07710    1.50100    1.41700  # c1,cp,cp
angle_coeff	11 ba   26.46080   11.77170    1.50100    1.10100  # cp,c,hc
angle_coeff	12 ba   26.46080   11.77170    1.50100    1.10100  # cp,c1,hc
angle_coeff	13 ba   28.87080   28.87080    1.41700    1.41700  # cp,cp,cp
angle_coeff	14 ba   20.00330   24.21830    1.41700    1.09820  # cp,cp,hc
angle_coeff	15 ba   18.10300   18.10300    1.10100    1.10100  # hc,c,hc

# Dihedral Coeffs

dihedral_coeff	 1    0.00000    0.00000    0.05140    0.00000   -0.14300    0.00000  # c,c,c1,c
dihedral_coeff	 2    0.00000    0.00000    0.00000    0.00000    0.15800  180.00000  # c,c,c1,cp
dihedral_coeff	 3    0.00000    0.00000    0.03160    0.00000   -0.16810    0.00000  # c,c,c1,hc
dihedral_coeff	 4   -0.28020    0.00000   -0.06780    0.00000   -0.01220    0.00000  # c,c,cp,cp
dihedral_coeff	 5    0.00000    0.00000    0.05140    0.00000   -0.14300    0.00000  # c,c1,c,c1
dihedral_coeff	 6    0.00000    0.00000    0.03160    0.00000   -0.16810    0.00000  # c,c1,c,hc
dihedral_coeff	 7   -0.28020    0.00000   -0.06780    0.00000   -0.01220    0.00000  # c,c1,cp,cp
dihedral_coeff	 8    0.00000    0.00000    4.40720    0.00000    0.00000    0.00000  # c,cp,cp,cp
dihedral_coeff	 9    0.00000    0.00000    1.55900    0.00000    0.00000    0.00000  # c,cp,cp,hc
dihedral_coeff	10    0.00000    0.00000    0.00000    0.00000    0.15800  180.00000  # c1,c,c,cp
dihedral_coeff	11    0.00000    0.00000    0.03160    0.00000   -0.16810    0.00000  # c1,c,c,hc
dihedral_coeff	12    0.00000    0.00000    0.00000    0.00000    0.15800  180.00000  # c1,c,c1,cp
dihedral_coeff	13    0.00000    0.00000    0.03160    0.00000   -0.16810    0.00000  # c1,c,c1,hc
dihedral_coeff	14    0.00000    0.00000    4.40720    0.00000    0.00000    0.00000  # c1,cp,cp,cp
dihedral_coeff	15    0.00000    0.00000    1.55900    0.00000    0.00000    0.00000  # c1,cp,cp,hc
dihedral_coeff	16   -0.02280    0.00000    0.02800    0.00000   -0.18630    0.00000  # cp,c,c,hc
dihedral_coeff	17   -0.02280    0.00000    0.02800    0.00000   -0.18630    0.00000  # cp,c1,c,hc
dihedral_coeff	18   -0.28010    0.00000   -0.06780    0.00000   -0.01220    0.00000  # cp,cp,c,hc
dihedral_coeff	19   -0.28010    0.00000   -0.06780    0.00000   -0.01220    0.00000  # cp,cp,c1,hc
dihedral_coeff	20    8.36670    0.00000    1.19320    0.00000    0.00000    0.00000  # cp,cp,cp,cp
dihedral_coeff	21    0.00000    0.00000    3.96610    0.00000    0.00000    0.00000  # cp,cp,cp,hc
dihedral_coeff	22   -0.14320    0.00000    0.06170    0.00000   -0.10830    0.00000  # hc,c,c,hc
dihedral_coeff	23   -0.14320    0.00000    0.06170    0.00000   -0.10830    0.00000  # hc,c,c1,hc
dihedral_coeff	24    0.00000    0.00000    1.87690    0.00000    0.00000    0.00000  # hc,cp,cp,hc

# MiddleBondTorsion Coeffs

dihedral_coeff	 1 mbt  -17.78700   -7.18770    0.00000    1.53000  # c,c,c1,c
dihedral_coeff	 2 mbt    0.00000    0.00000    0.00000    1.53000  # c,c,c1,cp
dihedral_coeff	 3 mbt  -14.87900   -3.65810   -0.31380    1.53000  # c,c,c1,hc
dihedral_coeff	 4 mbt    0.00000    0.00000    0.00000    1.50100  # c,c,cp,cp
dihedral_coeff	 5 mbt  -17.78700   -7.18770    0.00000    1.53000  # c,c1,c,c1
dihedral_coeff	 6 mbt  -14.87900   -3.65810   -0.31380    1.53000  # c,c1,c,hc
dihedral_coeff	 7 mbt    0.00000    0.00000    0.00000    1.50100  # c,c1,cp,cp
dihedral_coeff	 8 mbt    0.00000    9.17920    0.00000    1.41700  # c,cp,cp,cp
dihedral_coeff	 9 mbt    0.00000    3.94210    0.00000    1.41700  # c,cp,cp,hc
dihedral_coeff	10 mbt    0.00000    0.00000    0.00000    1.53000  # c1,c,c,cp
dihedral_coeff	11 mbt  -14.87900   -3.65810   -0.31380    1.53000  # c1,c,c,hc
dihedral_coeff	12 mbt    0.00000    0.00000    0.00000    1.53000  # c1,c,c1,cp
dihedral_coeff	13 mbt  -14.87900   -3.65810   -0.31380    1.53000  # c1,c,c1,hc
dihedral_coeff	14 mbt    0.00000    9.17920    0.00000    1.41700  # c1,cp,cp,cp
dihedral_coeff	15 mbt    0.00000    3.94210    0.00000    1.41700  # c1,cp,cp,hc
dihedral_coeff	16 mbt    0.00000    0.00000    0.00000    1.53000  # cp,c,c,hc
dihedral_coeff	17 mbt    0.00000    0.00000    0.00000    1.53000  # cp,c1,c,hc
dihedral_coeff	18 mbt   -5.56790    1.40830    0.30100    1.50100  # cp,cp,c,hc
dihedral_coeff	19 mbt   -5.56790    1.40830    0.30100    1.50100  # cp,cp,c1,hc
dihedral_coeff	20 mbt   27.59890   -2.31200    0.00000    1.41700  # cp,cp,cp,cp
dihedral_coeff	21 mbt    0.00000   -1.15210    0.00000    1.41700  # cp,cp,cp,hc
dihedral_coeff	22 mbt  -14.26100   -0.53220   -0.48640    1.53000  # hc,c,c,hc
dihedral_coeff	23 mbt  -14.26100   -0.53220   -0.48640    1.53000  # hc,c,c1,hc
dihedral_coeff	24 mbt    0.00000    4.82280    0.00000    1.41700  # hc,cp,cp,hc

# EndBondTorsion Coeffs

dihedral_coeff	 1 ebt   -0.07320    0.00000    0.00000   -0.07320    0.00000    0.00000    1.53000    1.53000  # c,c,c1,c
dihedral_coeff	 2 ebt    0.00000    0.00000    0.00000    0.00000    0.00000    0.00000    1.53000    1.50100  # c,c,c1,cp
dihedral_coeff	 3 ebt    0.24860    0.24220   -0.09250    0.08140    0.05910    0.22190    1.53000    1.10100  # c,c,c1,hc
dihedral_coeff	 4 ebt    0.00000    0.00000    0.00000    0.00000    0.00000    0.00000    1.53000    1.41700  # c,c,cp,cp
dihedral_coeff	 5 ebt   -0.07320    0.00000    0.00000   -0.07320    0.00000    0.00000    1.53000    1.53000  # c,c1,c,c1
dihedral_coeff	 6 ebt    0.24860    0.24220   -0.09250    0.08140    0.05910    0.22190    1.53000    1.10100  # c,c1,c,hc
dihedral_coeff	 7 ebt    0.00000    0.00000    0.00000    0.00000    0.00000    0.00000    1.53000    1.41700  # c,c1,cp,cp
dihedral_coeff	 8 ebt    0.00000    0.24210    0.00000    0.00000   -0.69180    0.00000    1.50100    1.41700  # c,cp,cp,cp
dihedral_coeff	 9 ebt    0.00000   -1.79700    0.00000    0.00000   -0.48790    0.00000    1.50100    1.09820  # c,cp,cp,hc
dihedral_coeff	10 ebt    0.00000    0.00000    0.00000    0.00000    0.00000    0.00000    1.53000    1.50100  # c1,c,c,cp
dihedral_coeff	11 ebt    0.24860    0.24220   -0.09250    0.08140    0.05910    0.22190    1.53000    1.10100  # c1,c,c,hc
dihedral_coeff	12 ebt    0.00000    0.00000    0.00000    0.00000    0.00000    0.00000    1.53000    1.50100  # c1,c,c1,cp
dihedral_coeff	13 ebt    0.24860    0.24220   -0.09250    0.08140    0.05910    0.22190    1.53000    1.10100  # c1,c,c1,hc
dihedral_coeff	14 ebt    0.00000    0.24210    0.00000    0.00000   -0.69180    0.00000    1.50100    1.41700  # c1,cp,cp,cp
dihedral_coeff	15 ebt    0.00000   -1.79700    0.00000    0.00000   -0.48790    0.00000    1.50100    1.09820  # c1,cp,cp,hc
dihedral_coeff	16 ebt    0.00000    0.00000    0.00000    0.00000    0.00000    0.00000    1.50100    1.10100  # cp,c,c,hc
dihedral_coeff	17 ebt    0.00000    0.00000    0.00000    0.00000    0.00000    0.00000    1.50100    1.10100  # cp,c1,c,hc
dihedral_coeff	18 ebt   -0.58350    1.12200    0.39780    1.39970    0.77560    0.00000    1.41700    1.10100  # cp,cp,c,hc
dihedral_coeff	19 ebt   -0.58350    1.12200    0.39780    1.39970    0.77560    0.00000    1.41700    1.10100  # cp,cp,c1,hc
dihedral_coeff	20 ebt   -0.11850    6.32040    0.00000   -0.11850    6.32040    0.00000    1.41700    1.41700  # cp,cp,cp,cp
dihedral_coeff	21 ebt    0.00000   -6.89580    0.00000    0.00000   -0.46690    0.00000    1.41700    1.09820  # cp,cp,cp,hc
dihedral_coeff	22 ebt    0.21300    0.31200    0.07770    0.21300    0.31200    0.07770    1.10100    1.10100  # hc,c,c,hc
dihedral_coeff	23 ebt    0.21300    0.31200    0.07770    0.21300    0.31200    0.07770    1.10100    1.10100  # hc,c,c1,hc
dihedral_coeff	24 ebt    0.00000   -0.68900    0.00000    0.00000   -0.68900    0.00000    1.09820    1.09820  # hc,cp,cp,hc

# AngleTorsion Coeffs

dihedral_coeff	 1 at    0.38860   -0.31390    0.13890    0.38860   -0.31390    0.13890  112.67000  112.67000  # c,c,c1,c
dihedral_coeff	 2 at    0.00000    0.00000    0.00000    0.00000    0.00000    0.00000  112.67000  108.40000  # c,c,c1,cp
dihedral_coeff	 3 at   -0.24540    0.00000   -0.11360    0.31130    0.45160   -0.19880  112.67000  110.77000  # c,c,c1,hc
dihedral_coeff	 4 at    0.00000    0.00000    0.00000    0.00000    0.00000    0.00000  108.40000  120.05000  # c,c,cp,cp
dihedral_coeff	 5 at    0.38860   -0.31390    0.13890    0.38860   -0.31390    0.13890  112.67000  112.67000  # c,c1,c,c1
dihedral_coeff	 6 at   -0.24540    0.00000   -0.11360    0.31130    0.45160   -0.19880  112.67000  110.77000  # c,c1,c,hc
dihedral_coeff	 7 at    0.00000    0.00000    0.00000    0.00000    0.00000    0.00000  108.40000  120.05000  # c,c1,cp,cp
dihedral_coeff	 8 at    0.00000   -4.46830    0.00000    0.00000    3.89870    0.00000  120.05000  118.90000  # c,cp,cp,cp
dihedral_coeff	 9 at    0.00000   -0.12420    0.00000    0.00000    3.46010    0.00000  120.05000  117.94000  # c,cp,cp,hc
dihedral_coeff	10 at    0.00000    0.00000    0.00000    0.00000    0.00000    0.00000  112.67000  108.40000  # c1,c,c,cp
dihedral_coeff	11 at   -0.24540    0.00000   -0.11360    0.31130    0.45160   -0.19880  112.67000  110.77000  # c1,c,c,hc
dihedral_coeff	12 at    0.00000    0.00000    0.00000    0.00000    0.00000    0.00000  112.67000  108.40000  # c1,c,c1,cp
dihedral_coeff	13 at   -0.24540    0.00000   -0.11360    0.31130    0.45160   -0.19880  112.67000  110.77000  # c1,c,c1,hc
dihedral_coeff	14 at    0.00000   -4.46830    0.00000    0.00000    3.89870    0.00000  120.05000  118.90000  # c1,cp,cp,cp
dihedral_coeff	15 at    0.00000   -0.12420    0.00000    0.00000    3.46010    0.00000  120.05000  117.94000  # c1,cp,cp,hc
dihedral_coeff	16 at    0.00000    0.00000    0.00000    0.00000    0.00000    0.00000  108.40000  110.77000  # cp,c,c,hc
dihedral_coeff	17 at    0.00000    0.00000    0.00000    0.00000    0.00000    0.00000  108.40000  110.77000  # cp,c1,c,hc
dihedral_coeff	18 at    0.22510    0.65480    0.12370    4.62660    0.16320    0.04610  120.05000  111.00000  # cp,cp,c,hc
dihedral_coeff	19 at    0.22510    0.65480    0.12370    4.62660    0.16320    0.04610  120.05000  111.00000  # cp,cp,c1,hc
dihedral_coeff	20 at    1.97670    1.02390    0.00000    1.97670    1.02390    0.00000  118.90000  118.90000  # cp,cp,cp,cp
dihedral_coeff	21 at    0.00000    2.50140    0.00000    0.00000    2.71470    0.00000  118.90000  117.94000  # cp,cp,cp,hc
dihedral_coeff	22 at   -0.80850    0.55690   -0.24660   -0.80850    0.55690   -0.24660  110.77000  110.77000  # hc,c,c,hc
dihedral_coeff	23 at   -0.80850    0.55690   -0.24660   -0.80850    0.55690   -0.24660  110.77000  110.77000  # hc,c,c1,hc
dihedral_coeff	24 at    0.00000    2.45010    0.00000    0.00000    2.45010    0.00000  117.94000  117.94000  # hc,cp,cp,hc

# AngleAngleTorsion Coeffs

dihedral_coeff	 1 aat  -22.04500  112.67000  112.67000  # c,c,c1,c
dihedral_coeff	 2 aat    0.00000  112.67000  108.40000  # c,c,c1,cp
dihedral_coeff	 3 aat  -16.16400  112.67000  110.77000  # c,c,c1,hc
dihedral_coeff	 4 aat    0.00000  108.40000  120.05000  # c,c,cp,cp
dihedral_coeff	 5 aat  -22.04500  112.67000  112.67000  # c,c1,c,c1
dihedral_coeff	 6 aat  -16.16400  112.67000  110.77000  # c,c1,c,hc
dihedral_coeff	 7 aat    0.00000  108.40000  120.05000  # c,c1,cp,cp
dihedral_coeff	 8 aat  -14.40970  120.05000  118.90000  # c,cp,cp,cp
dihedral_coeff	 9 aat    4.44440  120.05000  117.94000  # c,cp,cp,hc
dihedral_coeff	10 aat    0.00000  112.67000  108.40000  # c1,c,c,cp
dihedral_coeff	11 aat  -16.16400  112.67000  110.77000  # c1,c,c,hc
dihedral_coeff	12 aat    0.00000  112.67000  108.40000  # c1,c,c1,cp
dihedral_coeff	13 aat  -16.16400  112.67000  110.77000  # c1,c,c1,hc
dihedral_coeff	14 aat  -14.40970  120.05000  118.90000  # c1,cp,cp,cp
dihedral_coeff	15 aat    4.44440  120.05000  117.94000  # c1,cp,cp,hc
dihedral_coeff	16 aat    0.00000  108.40000  110.77000  # cp,c,c,hc
dihedral_coeff	17 aat    0.00000  108.40000  110.77000  # cp,c1,c,hc
dihedral_coeff	18 aat   -5.88880  120.05000  111.00000  # cp,cp,c,hc
dihedral_coeff	19 aat   -5.88880  120.05000  111.00000  # cp,cp,c1,hc
dihedral_coeff	20 aat    0.00000  118.90000  118.90000  # cp,cp,cp,cp
dihedral_coeff	21 aat   -4.81410  118.90000  117.94000  # cp,cp,cp,hc
dihedral_coeff	22 aat  -12.56400  110.77000  110.77000  # hc,c,c,hc
dihedral_coeff	23 aat  -12.56400  110.77000  110.77000  # hc,c,c1,hc
dihedral_coeff	24 aat    0.35980  117.94000  117.94000  # hc,cp,cp,hc

# BondBond13 Coeffs

dihedral_coeff	 1 bb13    0.00000    1.53000    1.53000  # c,c,c1,c
dihedral_coeff	 2 bb13    0.00000    1.53000    1.50100  # c,c,c1,cp
dihedral_coeff	 3 bb13    0.00000    1.53000    1.10100  # c,c,c1,hc
dihedral_coeff	 4 bb13    0.00000    1.53000    1.41700  # c,c,cp,cp
dihedral_coeff	 5 bb13    0.00000    1.53000    1.53000  # c,c1,c,c1
dihedral_coeff	 6 bb13    0.00000    1.53000    1.10100  # c,c1,c,hc
dihedral_coeff	 7 bb13    0.00000    1.53000    1.41700  # c,c1,cp,cp
dihedral_coeff	 8 bb13    2.50850    1.50100    1.41700  # c,cp,cp,cp
dihedral_coeff	 9 bb13    0.87430    1.50100    1.09820  # c,cp,cp,hc
dihedral_coeff	10 bb13    0.00000    1.53000    1.50100  # c1,c,c,cp
dihedral_coeff	11 bb13    0.00000    1.53000    1.10100  # c1,c,c,hc
dihedral_coeff	12 bb13    0.00000    1.53000    1.50100  # c1,c,c1,cp
dihedral_coeff	13 bb13    0.00000    1.53000    1.10100  # c1,c,c1,hc
dihedral_coeff	14 bb13    2.50850    1.50100    1.41700  # c1,cp,cp,cp
dihedral_coeff	15 bb13    0.87430    1.50100    1.09820  # c1,cp,cp,hc
dihedral_coeff	16 bb13    0.00000    1.50100    1.10100  # cp,c,c,hc
dihedral_coeff	17 bb13    0.00000    1.50100    1.10100  # cp,c1,c,hc
dihedral_coeff	18 bb13   -3.48260    1.41700    1.10100  # cp,cp,c,hc
dihedral_coeff	19 bb13   -3.48260    1.41700    1.10100  # cp,cp,c1,hc
dihedral_coeff	20 bb13   53.00000    1.41700    1.41700  # cp,cp,cp,cp
dihedral_coeff	21 bb13   -6.27410    1.41700    1.09820  # cp,cp,cp,hc
dihedral_coeff	22 bb13    0.00000    1.10100    1.10100  # hc,c,c,hc
dihedral_coeff	23 bb13    0.00000    1.10100    1.10100  # hc,c,c1,hc
dihedral_coeff	24 bb13   -1.70770    1.09820    1.09820  # hc,cp,cp,hc

# Improper Coeffs

improper_coeff	 1    0.00000    0.00000  # c,c,cp,hc
improper_coeff	 2    0.00000    0.00000  # c,c,hc,c1
improper_coeff	 3    0.00000    0.00000  # c,c,hc,cp
improper_coeff	 4    0.00000    0.00000  # c,c,hc,hc
improper_coeff	 5    0.00000    0.00000  # c,c1,c1,hc
improper_coeff	 6    0.00000    0.00000  # c,c1,hc,hc
improper_coeff	 7    0.00000    0.00000  # c,cp,hc,hc
improper_coeff	 8    0.00000    0.00000  # c,hc,hc,hc
improper_coeff	 9    0.00000    0.00000  # c1,c,c,cp
improper_coeff	10    0.00000    0.00000  # c1,c,c,hc
improper_coeff	11    0.00000    0.00000  # c1,c,cp,hc
improper_coeff	12    7.81530    0.00000  # cp,c,cp,cp
improper_coeff	13    7.81530    0.00000  # cp,c1,cp,cp
improper_coeff	14    4.89120    0.00000  # cp,cp,cp,hc

# AngleAngle Coeffs

improper_coeff	 1 aa    2.04030   -1.82020    1.08270  108.40000  110.77000  111.00000  # c,c,cp,hc
improper_coeff	 2 aa    0.11840   -1.31990   -1.31990  110.77000  112.67000  110.77000  # c,c,hc,c1
improper_coeff	 3 aa    1.08270   -1.82020    2.04030  110.77000  108.40000  111.00000  # c,c,hc,cp
improper_coeff	 4 aa    0.27380   -0.48250    0.27380  110.77000  110.77000  107.66000  # c,c,hc,hc
improper_coeff	 5 aa   -1.31990   -1.31990    0.11840  112.67000  110.77000  110.77000  # c,c1,c1,hc
improper_coeff	 6 aa    0.27380   -0.48250    0.27380  110.77000  110.77000  107.66000  # c,c1,hc,hc
improper_coeff	 7 aa    2.37940    3.01180    2.37940  111.00000  111.00000  107.66000  # c,cp,hc,hc
improper_coeff	 8 aa   -0.31570   -0.31570   -0.31570  107.66000  107.66000  107.66000  # c,hc,hc,hc
improper_coeff	 9 aa    0.00000    0.00000    0.00000  112.67000  108.40000  108.40000  # c1,c,c,cp
improper_coeff	10 aa   -1.31990   -1.31990    0.11840  112.67000  110.77000  110.77000  # c1,c,c,hc
improper_coeff	11 aa    2.04030   -1.82020    1.08270  108.40000  110.77000  111.00000  # c1,c,cp,hc
improper_coeff	12 aa    0.00000    0.00000    0.00000  120.05000  120.05000  118.90000  # cp,c,cp,cp
improper_coeff	13 aa    0.00000    0.00000    0.00000  120.05000  120.05000  118.90000  # cp,c1,cp,cp
improper_coeff	14 aa    0.00000    0.00000    0.00000  118.90000  117.94000  117.94000  # cp,cp,cp,hc


# --- Thermo Output ---
thermo_style custom step time temp press enthalpy etotal ke pe ebond eangle edihed eimp evdwl ecoul elong etail vol lx ly lz density pxx pyy pzz
thermo_modify flush yes
thermo 500

# --- Velocity initialization at T_START (once only — Rule A) ---
velocity all create 600.0 408653 mom yes rot yes dist gaussian

# --- Temperature staircase (inherits momenta across steps — Rule A) ---
variable temps index 600 580 560 540 520 500 480 460 440 420 400 380 360 340 320 300 280 260 240 220 200
label TEMP_LOOP
  timestep 1
  fix npt_tg all npt temp ${temps} ${temps} 100 iso 1.0 1.0 1000.0
  fix npt_tg all npt temp 600 ${temps} 100 iso 1.0 1.0 1000.0
  fix npt_tg all npt temp 600 600 100 iso 1.0 1.0 1000.0
  run 50000
PPPM Kokkos initialization ...
  using 12-bit tables for long-range coulomb
  G vector (1/distance) = 0.300489
  grid = 30 30 30
  stencil order = 5
  estimated absolute RMS force accuracy = 0.00029342945
  estimated relative force accuracy = 8.8365407e-07
  using double precision cuFFT
  3d grid and FFT values/proc = 50653 27000
Generated 6 of 6 mixed pair_coeff terms from sixthpower/sixthpower mixing rule
Neighbor list info ...
  update: every = 1 steps, delay = 0 steps, check = yes
  max neighbors/atom: 4000, page size: 100000
  master list distance cutoff = 11.5
  ghost atom cutoff = 11.5
  binsize = 11.5, bins = 4 4 4
  1 neighbor lists, perpetual/occasional/extra = 1 0 0
  (1) pair lj/class2/coul/long/kk, perpetual
      attributes: full, newton off, kokkos_device
      pair build: full/bin/kk/device
      stencil: full/bin/3d
      bin: kk/device
Per MPI rank memory allocation (min/avg/max) = 40.75 | 40.75 | 40.75 Mbytes
   Step          Time           Temp          Press         Enthalpy        TotEng         KinEng         PotEng         E_bond        E_angle        E_dihed        E_impro         E_vdwl         E_coul         E_long         E_tail         Volume           Lx             Ly             Lz          Density          Pxx            Pyy            Pzz      
         0   0              600            1032.2847      21415.757      20273.833      11480.292      8793.5416      4720.6051      4075.2705     -1049.3722      362.1637       778.48892      3827.9787     -3921.593      -379.19445      75851.047      42.330545      42.330545      42.330545      0.91249225     2249.313      -11.879732      859.42072    
       500   500            603.13019     -46.975455      21501.764      21554          11540.184      10013.816      5188.6641      4536.4526     -879.05817      414.46287      836.1485       3833.0924     -3915.9464     -377.22158      76247.75       42.404213      42.404213      42.404213      0.90774472     64.06081      -1291.1708      1086.1837    
      1000   1000           609.8833       712.47031      22455.158      21654.613      11669.397      9985.2159      5113.1423      4569.8637     -908.56696      396.69285      894.96267      3829.7048     -3910.5835     -373.31917      77044.789      42.551456      42.551456      42.551456      0.89835399     2381.7347      1346.1829     -1590.5066    
      1500   1500           596.88061     -400.18885      20925.406      21373.396      11420.606      9952.7895      4917.5923      4586.4882     -755.74626      416.78051      862.97062      3839.7668     -3915.0626     -374.71147      76758.517      42.498688      42.498688      42.498688      0.9017044      1773.6961     -207.42588     -2766.8368    
      2000   2000           598.16618     -1773.8688      19313.427      21302.835      11445.204      9857.6316      5015.7153      4530.6322     -817.36945      414.81519      795.18384      3833.4555     -3914.8011     -374.02195      76900.023      42.524788      42.524788      42.524788      0.90004515    -3326.7386     -206.82665     -1788.0412    
      2500   2500           585.95931     -655.84266      20476.133      21215.727      11211.64       10004.087      4964.3714      4603.59       -814.29506      414.07969      915.35209      3830.1255     -3909.1364     -371.96817      77324.618      42.60291       42.60291       42.60291       0.89510295    -886.38243     -2290.9099      1209.7644    
      3000   3000           598.19414      2468.3446      24118.098      21356.421      11445.739      9910.6816      5068.8464      4499.1077     -906.71586      393.1507       933.1011       3836.718      -3913.5264     -374.91454      76716.94       42.491014      42.491014      42.491014      0.90219308     2297.5553      2598.1818      2509.2969    
      3500   3500           600.30617      2901.2495      24751.472      21517.491      11486.15       10031.34       5031.6596      4632.145      -947.76947      416.49313      966.89755      3845.809      -3913.8943     -376.31109      76432.232      42.438385      42.438385      42.438385      0.90555373     2229.6145      4849.0359      1625.0982    
      4000   4000           601.65983      558.93774      22150.73       21521.36       11512.051      10009.31       5082.9656      4573.6347     -843.38829      398.93615      865.99923      3842.7748     -3911.6125     -372.52659      77208.708      42.581612      42.581612      42.581612      0.89644672     367.04042      728.22068      581.55212    
      4500   4500           596.55281     -1563.0374      19653.764      21452.859      11414.334      10038.525      5068.5675      4629.2587     -849.95469      405.65173      847.81497      3842.6668     -3905.4798     -364.43059      78923.936      42.894629      42.894629      42.894629      0.87696454    -2040.3673     -1183.0501     -1465.6948    
      5000   5000           600.74208      918.16415      22461.576      21406.808      11494.491      9912.3172      4953.2098      4549.0306     -882.04982      421.6751       937.87094      3838.8913     -3906.3107     -365.14277      78770.001      42.866723      42.866723      42.866723      0.87867833    -161.46104      1752.71        1163.2434    
      5500   5500           597.61668      584.953        21997.213      21334.896      11434.69       9900.206       5025.2461      4559.7177     -902.23833      390.75983      897.18524      3835.8491     -3906.3136     -370.4712       77637.065      42.660215      42.660215      42.660215      0.89150063    -1653.7755      710.99928      2697.6352    
      6000   6000           596.89065     -559.04968      20929.791      21560.272      11420.798      10139.474      5074.648       4650.9718     -805.32788      391.52384      892.81422      3841.6107     -3906.7669     -371.94426      77329.589      42.603823      42.603823      42.603823      0.8950454     -484.76975      374.02203     -1566.4013    
      6500   6500           605.2348       654.71109      22344.129      21611.345      11580.454      10030.891      5065.1888      4639.192      -888.4046       406.24546      876.65809      3841.2333     -3909.2217     -374.777        76745.094      42.496211      42.496211      42.496211      0.90186212    -877.1808       1210.286       1631.0281    
      7000   7000           603.20422      852.87485      22559.585      21592.475      11541.601      10050.874      5035.9617      4599.4852     -820.85518      418.94671      899.94319      3828.7223     -3911.3297     -369.9209       77752.559      42.681358      42.681358      42.681358      0.8901764     -2.2192817      1331.7786      1229.0652    
      7500   7500           597.98809      3171.8812      25000.244      21398.456      11441.796      9956.6595      5051.2458      4473.6714     -853.81015      407.85666      932.48819      3851.2907     -3906.0831     -369.40108      77861.972      42.701369      42.701369      42.701369      0.88892551     1650.4055      2315.083       5550.155     
      8000   8000           599.75892     -731.8786       20553.403      21379.706      11475.679      9904.027       5034.2433      4507.7014     -859.4856       407.30037      893.84755      3833.4995     -3913.0796     -371.53469      77414.835      42.619472      42.619472      42.619472      0.89405981    -1362.2266     -126.07464     -707.33457    
      8500   8500           620.14122     -1460.523       20192.684      21846.271      11865.67       9980.601       4947.2153      4622.4638     -739.18038      416.69283      812.16755      3832.1247     -3910.8828     -370.49355      77632.38       42.659357      42.659357      42.659357      0.89155443    -2162.0708      187.7745      -2407.2728    
      9000   9000           607.4242      -510.6371       21037.136      21621.433      11622.345      9999.0881      5073.7647      4527.5966     -837.59655      407.9702       884.18604      3846.5159     -3903.3489     -366.58763      78459.54       42.810331      42.810331      42.810331      0.88215523    -1497.5481     -524.75575      490.39252    
      9500   9500           602.78483      854.23775      22420.788      21445.117      11533.576      9911.5409      4970.4248      4448.9259     -815.20577      414.14343      952.81001      3841.5238     -3901.0812     -367.26089      78315.708      42.784155      42.784155      42.784155      0.88377536     1487.4048      2523.9283     -1448.6198    
     10000   10000          596.3455       1220.2083      22792.235      21395.468      11410.367      9985.1005      5117.1494      4537.2458     -957.95977      398.06238      963.10569      3834.7094     -3907.2123     -366.44558      78489.953      42.815862      42.815862      42.815862      0.88181341     411.62012      1876.3332      1372.6716    
     10500   10500          603.17188     -1283.1483      19969.087      21434.5        11540.982      9893.5182      5008.5567      4528.9424     -870.70721      400.79168      909.30255      3824.285      -3907.6529     -367.29611      78308.199      42.782788      42.782788      42.782788      0.88386011    -3056.6287      137.53993     -930.35606    
     11000   11000          600.29334     -2123.2713      19181.997      21606.4        11485.904      10120.495      5157.4332      4525.329      -816.30958      425.97065      902.45746      3833.3675     -3907.7528     -367.36693      78293.101      42.780038      42.780038      42.780038      0.88403054     328.95458     -3323.5314     -3375.2371    
     11500   11500          593.6495      -667.68999      20626.453      21390.021      11358.783      10031.239      5164.7261      4553.1082     -868.27838      411.96463      845.2351       3836.4961     -3912.0129     -366.79763      78414.619      42.802159      42.802159      42.802159      0.88266058     725.77796     -1330.8755     -1397.9724    
     12000   12000          600.95421      2211.2077      24032.457      21549.531      11498.549      10050.982      5023.5614      4624.5588     -876.91459      405.17777      948.82147      3835.379      -3909.6019     -373.56423      76994.246      42.542149      42.542149      42.542149      0.89894371     3320.7319      1076.8895      2236.0018    
     12500   12500          607.03313      1066.6297      22830.539      21629.265      11614.863      10014.402      5046.71        4581.5346     -863.50343      419.59256      907.62893      3837.5768     -3915.1373     -372.45257      77224.051      42.584432      42.584432      42.584432      0.89626861     851.48067      2741.765      -393.35646    
     13000   13000          601.90459      281.93757      22033.947      21712.897      11516.734      10196.163      5148.2637      4658.1285     -875.82456      392.85628      959.30902      3824.0833     -3910.6533     -368.36575      78080.81       42.741337      42.741337      42.741337      0.88643411     1454.6798     -38.246278     -570.62079    
     13500   13500          612.25648     -2590.1294      18920.131      21900.037      11714.805      10185.232      5201.6425      4523.9035     -789.7551       396.7579       933.33689      3828.3694     -3909.023      -364.60145      78886.951      42.887927      42.887927      42.887927      0.87737569    -1763.6288     -3184.261      -2822.4983    
     14000   14000          599.79389     -379.95416      21051.332      21487.958      11476.348      10011.61       5238.8067      4382.0599     -887.18717      408.77198      945.03748      3833.3343     -3909.2136     -365.02378      78795.679      42.87138       42.87138       42.87138       0.87839198    -1326.8171     -776.35474      963.30935    
     14500   14500          603.25274     -1098.7041      20235.796      21497.807      11542.529      9955.2783      5013.5335      4527.8656     -855.11749      404.94617      920.06135      3840.0325     -3896.0434     -365.18825      78760.192      42.864943      42.864943      42.864943      0.87878776    -564.49052     -3296.5849      564.96315    
     15000   15000          595.13379     -325.99306      20998.934      21367.86       11387.183      9980.677       5101.9548      4478.6887     -827.25692      403.84213      900.75266      3831.0782     -3908.3826     -370.65461      77598.647      42.653177      42.653177      42.653177      0.89194201    -1056.3142      612.26327     -533.92823    
     15500   15500          600.61046     -653.06239      20868.357      21608.951      11491.972      10116.979      5096.3713      4618.5878     -854.30259      390.93888      927.54873      3847.4929     -3909.6582     -369.89125      77758.792      42.682499      42.682499      42.682499      0.89010504    -2756.4657     -732.7488       1530.0273    
     16000   16000          595.72771     -565.28521      21081.919      21735.615      11398.547      10337.068      5179.9462      4607.7295     -719.63594      409.50563      939.59605      3827.3608     -3907.4342     -362.73648      79292.54       42.961303      42.961303      42.961303      0.87288783    -146.45286      1647.8502     -3197.253     
     16500   16500          602.87309      847.87415      22565.656      21582.757      11535.265      10047.492      5071.9292      4549.6894     -881.83395      403.94485      963.63721      3844.7565     -3904.6315     -361.84435      79488.035      42.996581      42.996581      42.996581      0.87074102     1519.0099      294.59138      730.02115    
     17000   17000          602.60372      588.76363      22273.613      21597.407      11530.111      10067.296      5069.5396      4555.4149     -880.52771      382.75233      1005.441       3833.1757     -3898.4995     -365.22584      78752.086      42.863473      42.863473      42.863473      0.87887822     1284.0168      1606.7453     -1124.4712    
     17500   17500          598.24611      726.35441      22424.138      21597.72       11446.733      10150.986      5173.806       4539.9872     -853.33063      395.09285      962.04724      3837.2963     -3903.9126     -368.67868      78014.537      42.729241      42.729241      42.729241      0.88718713     646.79366     -708.19707      2240.4666    
     18000   18000          608.63474     -957.30597      20322.361      21406.617      11645.507      9761.11        4906.5786      4517.2214     -858.16105      394.78338      873.69075      3832.9287     -3905.9318     -370.35499      77661.426      42.664676      42.664676      42.664676      0.89122099     992.02997     -1591.5555     -2272.3924    
     18500   18500          594.53305     -356.52962      20868.14       21277.122      11375.688      9901.434       5006.5407      4553.9558     -921.83335      394.04983      921.52445      3851.8962     -3904.6996     -365.67148      78656.112      42.846053      42.846053      42.846053      0.87995061     267.4052      -1593.961       256.96698    
     19000   19000          603.97466      1356.4201      23268.495      21704.582      11556.342      10148.24       5132.9946      4610.5103     -875.86465      401.92814      944.74739      3837.6644     -3903.7403     -363.81546      79057.379      42.91879       42.91879       42.91879       0.87548429     998.33248      1359.8007      1711.1273    
     19500   19500          600.22603      102.01828      21619.977      21502.843      11484.617      10018.227      5068.8936      4519.6407     -886.73341      407.34439      968.61013      3843.3105     -3902.8393     -365.3399       78727.499      42.859012      42.859012      42.859012      0.87915269    -623.15464      1337.9296     -408.72009    
     20000   20000          595.09636     -534.21227      20773.755      21380.587      11386.466      9994.1203      5082.1537      4479.8506     -874.32812      383.01188      987.65272      3841.1309     -3905.3513     -369.27053      77889.499      42.706401      42.706401      42.706401      0.88861135    -969.32727     -879.80439      246.49486    
     20500   20500          601.42533     -457.27692      20835.824      21354.471      11507.564      9846.9067      5042.9241      4426.9634     -826.10758      412.14492      871.41187      3833.2836     -3913.7136     -369.83406      77770.816      42.684698      42.684698      42.684698      0.88996743    -1142.4315     -671.54719      442.1479     
     21000   21000          601.79275     -390.48668      21291.361      21734.96       11514.594      10220.366      5225.9353      4453.9977     -753.2929       410.17101      956.69567      3836.7476     -3909.8881     -369.245        77894.884      42.707385      42.707385      42.707385      0.88854992    -2294.517       1423.82       -300.76303    
     21500   21500          606.23589     -824.41648      20724.241      21664.432      11599.608      10064.824      5058.7515      4506.6508     -789.2731       425.10121      958.21818      3817.46       -3912.0845     -367.81526      78197.671      42.76265       42.76265       42.76265       0.88510939    -646.30705     -177.10037     -1649.842     
     22000   22000          598.25585      1157.5433      22807.253      21478.242      11446.92       10031.322      5128.4825      4579.6816     -899.19712      405.65121      901.00895      3823.648      -3907.9529     -365.34898      78725.541      42.858656      42.858656      42.858656      0.87917456    -853.98322      1088.7763      3237.837     
     22500   22500          596.64567      2154.569       23877.852      21424.582      11416.111      10008.472      5047.7752      4618.0556     -977.86748      391.21909      983.29075      3848.1866     -3902.1881     -368.39565      78074.473      42.740181      42.740181      42.740181      0.88650605     1649.9462      2534.3101      2279.4508    
     23000   23000          607.00103     -81.185767      21487.247      21578.609      11614.248      9964.3612      4966.2465      4592.3636     -787.5279       403.08296      868.04372      3834.3147     -3912.1624     -372.74286      77163.91       42.573375      42.573375      42.573375      0.89696715    -517.27128     -499.43781      773.15178    
     23500   23500          600.46258     -703.77456      20752.073      21545.845      11489.143      10056.702      5124.9555      4500.4855     -810.40203      408.66313      914.23997      3834.4693     -3915.7095     -371.90956      77336.803      42.605147      42.605147      42.605147      0.89496192    -210.32948     -1593.1954     -307.79884    
     24000   24000          602.39071     -2223.9993      19011.149      21515.293      11526.035      9989.2582      5217.1864      4526.755      -864.62584      389.09395      791.61681      3838.2015     -3908.9696     -372.5416       77205.596      42.58104       42.58104       42.58104       0.89648285    -1255.205      -1450.5862     -3966.2067    
     24500   24500          596.67183     -813.2011       20513.883      21427.755      11416.611      10011.144      5148.7883      4588.4145     -920.14536      391.05589      894.98819      3820.8898     -3912.8477     -373.26057      77056.884      42.553682      42.553682      42.553682      0.89821298    -2426.3939      1554.2741     -1567.4835    
     25000   25000          593.29659      628.97022      21937.597      21222.892      11352.03       9870.8625      5087.2742      4489.353      -922.52514      401.93743      900.69062      3824.8043     -3910.6718     -369.1502       77914.889      42.711041      42.711041      42.711041      0.88832178    -682.49585      1947.9288      621.47774    
     25500   25500          599.13261      241.16942      21757.488      21481.066      11463.695      10017.37       5114.4886      4462.3227     -878.85024      424.68083      970.83059      3826.0057     -3902.1079     -365.97307      78591.291      42.83428       42.83428       42.83428       0.88067637    -613.34142      2210.1508     -873.3011     
     26000   26000          605.74389     -355.5698       21091.443      21498.932      11590.194      9908.7373      5005.6015      4523.9405     -853.33222      389.73591      899.98825      3842.4939     -3899.6906     -366.02312      78580.547      42.832328      42.832328      42.832328      0.88079679    -773.16639      1286.3973     -1579.9404    
     26500   26500          599.02515      652.15822      22261.283      21522.738      11461.639      10061.098      5027.5575      4611.0302     -785.9037       405.13074      872.62394      3841.3434     -3910.6836     -370.40375      77651.203      42.662804      42.662804      42.662804      0.89133832     122.73071      2204.2037     -370.45974    
     27000   27000          590.85685      2783.4874      24392.717      21254.964      11305.349      9949.6157      5167.9185      4417.442      -938.40159      402.73815      962.54827      3846.5039     -3909.1336     -372.10884      77295.387      42.597541      42.597541      42.597541      0.89544145     937.3323       4138.8299      3274.3       
     27500   27500          594.32528      2359.7338      23953.964      21279.043      11371.713      9907.3302      5199.7677      4504.0614     -1017.4782      371.42136      925.89531      3835.2026     -3911.54       -370.04241      77727.027      42.676686      42.676686      42.676686      0.89046881     1094.2561      946.40636      5038.5391    
     28000   28000          599.82364      288.93463      21899.966      21568.647      11476.917      10091.729      5172.9657      4605.6417     -925.49781      392.78375      917.08329      3834.1531     -3905.4004     -365.80692      78626.989      42.840765      42.840765      42.840765      0.88027653    -795.03275      1895.2154     -233.37875    
     28500   28500          603.33632      321.3401       21947.778      21580.431      11544.128      10036.302      5103.7163      4533.9854     -883.26628      378.50482      978.75698      3828.9414     -3904.3362     -366.93365      78385.551      42.79687       42.79687       42.79687       0.8829879      810.39052      764.81764     -611.18787    
     29000   29000          595.16806     -419.06702      20882.24       21355.232      11387.838      9967.3941      5107.6408      4610.315      -924.58166      384.10554      868.23542      3835.4747     -3913.7957     -371.64508      77391.84       42.615252      42.615252      42.615252      0.89432547    -341.17066     -1625.9303      709.89993    
     29500   29500          585.17002      1456.315       22803.594      21157.219      11196.538      9960.6812      5051.1798      4613.424      -997.37029      398.42967      960.90399      3840.113      -3905.9989     -371.04444      77517.12       42.638234      42.638234      42.638234      0.89288009     2987.4962      321.97441      1059.4743    
     30000   30000          593.51845     -991.51096      20206.837      21344.983      11356.275      9988.7077      5057.938       4471.5818     -796.73238      403.66632      913.5883       3840.8543     -3902.1886     -365.4258       78708.992      42.855653      42.855653      42.855653      0.87935941    -559.4613      -1267.3671     -1147.7045    
     30500   30500          597.69571     -1467.0754      19808.412      21496.364      11436.202      10060.162      5109.5229      4493.3045     -820.72561      397.58764      944.64246      3839.7349     -3903.9045     -364.57909      78891.789      42.888804      42.888804      42.888804      0.87732189    -1642.7437     -755.30022     -2003.1823    
     31000   31000          607.32297      1306.1152      23207.58       21700.24       11620.408      10079.832      5104.5784      4563.6609     -878.93573      387.22911      960.34885      3839.7956     -3896.8456     -363.47098      79132.305      42.932345      42.932345      42.932345      0.87465534     987.35743      549.30982      2381.6783    
     31500   31500          606.69534      1057.1358      23049.129      21835.476      11608.399      10227.077      5210.3111      4667.8315     -947.37761      399.8692       964.07942      3834.339      -3901.9758     -365.37232      78720.513      42.857744      42.857744      42.857744      0.87923071     3274.3066     -420.71019      317.81099    
     32000   32000          605.06753     -948.48777      20464.415      21553.794      11577.253      9976.5409      5049.6992      4453.7236     -819.25109      411.9038       926.03905      3853.2244     -3898.7981     -365.21796      78753.784      42.863781      42.863781      42.863781      0.87885927    -1542.9306      456.50033     -1759.033     
     32500   32500          599.99015      1540.3015      23294.015      21512.906      11480.103      10032.802      5071.9844      4487.9143     -834.0987       400.98266      976.70498      3834.8597     -3905.5451     -362.75596      79288.281      42.960534      42.960534      42.960534      0.87293472     216.86017      1425.6596      2978.3848    
     33000   33000          596.80415     -440.10903      20930.577      21435.726      11419.143      10016.583      5191.5482      4425.4659     -897.64789      385.28654      980.20024      3833.0382     -3901.3079     -365.45976      78701.678      42.854325      42.854325      42.854325      0.87944114     1012.4635     -1858.3825     -474.40813    
     33500   33500          599.61121      2709.4089      24335.026      21247.273      11472.853      9774.4198      5055.0726      4463.0425     -1002.3119      397.67501      931.71754      3838.7771     -3909.5531     -368.0708       78143.381      42.752751      42.752751      42.752751      0.88572433     1891.0869      1715.6134      4521.5263    
     34000   34000          606.39682      1423.6326      23141.197      21516.651      11602.687      9913.9634      5270.0043      4450.5251     -1030.5713      403.37526      887.31117      3838.3864     -3905.0674     -367.59145      78245.282      42.771327      42.771327      42.771327      0.88457082     1069.3375      999.6277       2201.9325    
     34500   34500          609.8173      -1073.232       20440.033      21655.586      11668.134      9987.4512      4989.5427      4523.554      -791.83379      406.55842      939.79101      3833.8044     -3913.9654     -370.35592      77661.231      42.66464       42.66464       42.66464       0.89122323    -775.2531      -1587.0373     -857.40547    
     35000   35000          602.01762      1014.6719      22850.876      21700.753      11518.897      10181.856      5163.5063      4594.6027     -850.13401      404.81962      947.57819      3829.3639     -3907.8806     -370.06724      77721.813      42.675731      42.675731      42.675731      0.89052855     1200.9654      380.31442      1462.7359    
     35500   35500          594.57799      932.56435      22574.194      21512.858      11376.548      10136.31       5046.2616      4566.8932     -820.8795       405.46892      1012.3933      3832.7295     -3906.5569     -368.57473      78036.54       42.733258      42.733258      42.733258      0.88693698    -179.30651      1127.9487      1849.0509    
     36000   36000          600.80579      1577.7137      23334.598      21503.124      11495.71       10007.414      5069.8416      4476.9077     -895.96855      409.59654      1000.0081      3846.7935     -3899.7647     -361.34908      79596.984      43.016216      43.016216      43.016216      0.86954919     3069.6654      731.93066      931.545      
     36500   36500          593.70354     -1579.3578      19379.618      21210.106      11359.817      9850.2893      5026.729       4402.8736     -821.13633      401.80325      889.89687      3844.6034     -3894.4804     -361.92042      79471.329      42.993568      42.993568      42.993568      0.87092406    -356.7334      -2318.2581     -2063.0821    
     37000   37000          589.78174     -8.2389957      21344.918      21354.282      11284.777      10069.504      5010.8217      4539.4945     -778.82869      412.80435      947.23237      3848.8939     -3910.9138     -369.06501      77932.872      42.714326      42.714326      42.714326      0.8881168     -925.10079     -994.09058      1894.4744    
     37500   37500          596.29527     -2871.7863      18205.545      21498.278      11409.406      10088.872      5046.0599      4515.7718     -735.10812      408.43772      916.63304      3843.5339     -3906.4565     -365.84329      78619.172      42.839345      42.839345      42.839345      0.88036406    -2123.5271     -3320.346      -3171.4857    
     38000   38000          604.27442      619.00463      22402.89       21688.182      11562.078      10126.104      5128.7326      4538.7804     -841.97746      413.97778      931.49402      3855.0911     -3899.9943     -363.29965      79169.623      42.939092      42.939092      42.939092      0.87424305     574.88144      1366.8931     -84.76068     
     38500   38500          606.9971      -559.05597      21152.924      21793.927      11614.173      10179.754      5132.6908      4556.3407     -755.71341      408.80712      911.03966      3831.7244     -3905.1349     -365.84257      78619.327      42.839373      42.839373      42.839373      0.88036232     179.81882     -1873.808       16.821235    
     39000   39000          597.66681      330.0671       21945.081      21566.716      11435.649      10131.067      5125.3545      4585.7409     -941.76759      412.80047      1002.703       3848.1607     -3901.9248     -365.92434      78601.759      42.836182      42.836182      42.836182      0.88055909    -169.16214      730.81778      428.54565    
     39500   39500          598.45464     -1265.7245      20028.188      21480.828      11450.723      10030.105      5045.7842      4531.417      -790.03922      392.14107      914.04933      3843.021      -3906.2686     -365.49428      78694.245      42.852976      42.852976      42.852976      0.8795242      374.97452     -310.62242     -3861.5255    
     40000   40000          601.00835      929.48018      22604.972      21533.225      11499.585      10033.639      5176.1534      4388.7917     -843.6488       410.92918      951.79957      3846.0379     -3896.4238     -363.78701      79063.561      42.919909      42.919909      42.919909      0.87541583     1095.0643     -141.65062      1835.0269    
     40500   40500          599.66485     -429.60877      20849.104      21344.787      11473.879      9870.9075      5052.7588      4396.6163     -878.94707      401.90013      954.96291      3845.9056     -3902.2892     -363.55422      79114.188      42.929068      42.929068      42.929068      0.87485564    -2405.2879      1155.8411     -39.379456    
     41000   41000          598.20787      680.85761      22289.217      21514.193      11446.002      10068.191      5172.9652      4431.8342     -851.87144      404.54983      988.73073      3830.3092     -3908.3263     -368.5026       78051.814      42.736046      42.736046      42.736046      0.88676341     773.94384      151.32928      1117.2997    
     41500   41500          606.27637      1233.2815      23064.639      21656.764      11600.383      10056.382      5048.2375      4578.4227     -899.72118      408.93667      987.9227       3841.9075     -3909.3242     -367.44946      78275.517      42.776835      42.776835      42.776835      0.88422914    -617.80306      268.46595      4049.1815    
     42000   42000          596.91103     -1251.3871      20172.226      21611.316      11421.188      10190.128      5216.5749      4468.133      -783.485        414.83477      938.73764      3841.8814     -3906.5487     -364.75658      78853.4        42.881846      42.881846      42.881846      0.877749      -1331.3014     -674.54651     -1748.3133    
     42500   42500          599.84939      366.29998      21790.75       21372.073      11477.41       9894.6633      5059.5533      4336.377      -775.52513      409.69632      941.26152      3831.0801     -3907.7798     -366.99272      78372.935      42.794574      42.794574      42.794574      0.88313004    -1193.3419      773.26107      1518.9807    
     43000   43000          595.87068     -634.45457      20703.54       21425.933      11401.282      10024.651      5130.4233      4579.3206     -891.54651      382.39951      894.68203      3838.1172     -3908.7453     -368.40555      78072.375      42.739798      42.739798      42.739798      0.88652987    -919.26677      52.780788     -1036.8777    
     43500   43500          600.03886     -1388.6477      20081.523      21666.927      11481.035      10185.892      5113.0279      4529.6016     -740.42781      409.38414      943.01781      3838.0419     -3906.7537     -367.41035      78283.849      42.778353      42.778353      42.778353      0.88413503    -1188.5324     -56.070002     -2921.3407    
     44000   44000          606.47071      1317.5509      23231.526      21735.823      11604.101      10131.721      5203.6002      4498.3709     -896.09197      401.54269      993.30709      3838.7372     -3907.7448     -369.5059       77839.885      42.697331      42.697331      42.697331      0.88917774     1165.6853      2881.4463     -94.478948    
     44500   44500          616.39783      834.99909      22739.803      21796.635      11794.045      10002.59       5039.4608      4613.2424     -892.92997      403.65785      930.33048      3822.4399     -3913.611      -371.36119      77451.004      42.626108      42.626108      42.626108      0.8936423      1404.4021      45.968042      1054.6271    
     45000   45000          599.086       -2136.8987      19102.003      21543.55       11462.804      10080.746      5031.4531      4622.7687     -779.27124      406.11547      858.82066      3842.5461     -3901.6864     -367.12862      78343.924      42.789293      42.789293      42.789293      0.88345706    -3705.9665     -2054.966      -649.76364    
     45500   45500          600.20345     -684.74667      20664.687      21449.161      11484.185      9964.9765      5091.7462      4516.4288     -906.05976      375.86008      946.43329      3839.9459     -3899.378      -366.14287      78554.846      42.827658      42.827658      42.827658      0.88108495     1012.1269     -2234.4419     -831.92506    
     46000   46000          601.14715      2027.3782      23656.873      21382.093      11502.241      9879.8523      5065.8425      4509.3174     -930.31301      399.44458      906.9315       3840.4291     -3911.7999     -373.84783      76935.838      42.531389      42.531389      42.531389      0.89962616     1289.9023      3023.0826      1769.1498    
     46500   46500          597.71819     -286.45716      21286.045      21608.706      11436.632      10172.073      5089.6946      4625.419      -804.83509      405.92911      935.77004      3833.2198     -3913.124      -372.40337      77234.254      42.586307      42.586307      42.586307      0.89615021    -688.65002      783.44149     -954.16296    
     47000   47000          601.32462     -1143.2251      20381.817      21673.264      11505.637      10167.628      5129.3836      4603.8533     -713.78251      408.41877      810.056        3841.345      -3911.6465     -371.32521      77458.508      42.627485      42.627485      42.627485      0.89355573    -581.17228     -2647.7313     -200.77189    
     47500   47500          598.9355       1754.3578      23594.556      21611.832      11459.924      10151.908      5131.982       4625.8347     -866.47116      410.69937      925.7818       3834.7163     -3910.6349     -371.15507      77494.015      42.633997      42.633997      42.633997      0.8931463      1215.3974      1031.9543      3015.7217    
     48000   48000          595.95718     -1409.6296      19788.241      21392.325      11402.937      9989.388       5228.4205      4463.0552     -881.28207      397.39593      843.2981       3845.9742     -3907.4739     -368.61869      78027.233      42.731559      42.731559      42.731559      0.88704277    -1026.8212     -2569.1391     -632.92846    
     48500   48500          589.84206     -986.14096      20134.137      21247.165      11285.932      9961.2338      5110.0598      4512.0081     -837.67151      398.99113      845.49129      3837.3383     -3904.9833     -371.64831      77391.168      42.615128      42.615128      42.615128      0.89433323    -127.13905     -928.33355     -1902.9503    
     49000   49000          595.13206     -772.15294      20565.763      21434.283      11387.15       10047.133      5103.4229      4529.0999     -822.20866      394.34047      915.76617      3835.3182     -3908.6059     -372.92626      77125.961      42.566394      42.566394      42.566394      0.8974085     -1089.6848     -322.68864     -904.08538    
     49500   49500          609.02109     -500.52204      21002.388      21567.566      11652.9        9914.6663      5200.9325      4483.5388     -907.39171      398.96156      811.2037       3835.5588     -3908.1373     -371.48147      77425.925      42.621507      42.621507      42.621507      0.89393175    -866.44093      353.15718     -988.28238    
     50000   50000          583.58036      1170.0736      22531.138      21218.064      11166.121      10051.943      5136.5785      4463.558      -834.41906      427.84013      914.97713      3851.0396     -3907.6316     -373.78648      76948.466      42.533715      42.533715      42.533715      0.89947853     3345.626      -308.77672      473.3714     
Loop time of 107.173 on 1 procs for 50000 steps with 6420 atoms

Performance: 40.309 ns/day, 0.595 hours/ns, 466.536 timesteps/s, 2.995 Matom-step/s
99.6% CPU use with 1 MPI tasks x 1 OpenMP threads

MPI task timing breakdown:
Section |  min time  |  avg time  |  max time  |%varavg| %total
---------------------------------------------------------------
Pair    | 10.106     | 10.106     | 10.106     |   0.0 |  9.43
Bond    | 13.542     | 13.542     | 13.542     |   0.0 | 12.64
Kspace  | 46.558     | 46.558     | 46.558     |   0.0 | 43.44
Neigh   | 16.692     | 16.692     | 16.692     |   0.0 | 15.57
Comm    | 2.8724     | 2.8724     | 2.8724     |   0.0 |  2.68
Output  | 0.010264   | 0.010264   | 0.010264   |   0.0 |  0.01
Modify  | 15.242     | 15.242     | 15.242     |   0.0 | 14.22
Other   |            | 2.151      |            |       |  2.01

Nlocal:           6420 ave        6420 max        6420 min
Histogram: 1 0 0 0 0 0 0 0 0 0
Nghost:          16996 ave       16996 max       16996 min
Histogram: 1 0 0 0 0 0 0 0 0 0
Neighs:              0 ave           0 max           0 min
Histogram: 1 0 0 0 0 0 0 0 0 0
FullNghs:  3.40808e+06 ave 3.40808e+06 max 3.40808e+06 min
Histogram: 1 0 0 0 0 0 0 0 0 0

Total # of neighbors = 3408082
Ave neighs/atom = 530.85389
Ave special neighs/atom = 5.8598131
Neighbor list builds = 3275
Dangerous builds = 0
  unfix npt_tg
  shell echo '{"stage":"T${temps}","status":"done"}' >> /home/alexzhao/PolyJarvis/data/PS3/lammps/thermal/tg_sweep_r400/tg_progress.jsonl
  dump per_t_snap all atom 1 per_t_structs.dump
  dump_modify per_t_snap append yes
  run 0
WARNING: No fixes with time integration, atoms won't move
For more information see https://docs.lammps.org/err0028 (src/verlet.cpp:60)
PPPM Kokkos initialization ...
  using 12-bit tables for long-range coulomb
  G vector (1/distance) = 0.30009276
  grid = 30 30 30
  stencil order = 5
  estimated absolute RMS force accuracy = 0.0002976851
  estimated relative force accuracy = 8.9646983e-07
  using double precision cuFFT
  3d grid and FFT values/proc = 50653 27000
Generated 6 of 6 mixed pair_coeff terms from sixthpower/sixthpower mixing rule
Per MPI rank memory allocation (min/avg/max) = 41.47 | 41.47 | 41.47 Mbytes
   Step          Time           Temp          Press         Enthalpy        TotEng         KinEng         PotEng         E_bond        E_angle        E_dihed        E_impro         E_vdwl         E_coul         E_long         E_tail         Volume           Lx             Ly             Lz          Density          Pxx            Pyy            Pzz      
     50000   50000          583.58036      1170.0728      22531.137      21218.064      11166.121      10051.943      5136.5785      4463.558      -834.41906      427.84013      914.97713      3846.9396     -3903.5315     -373.78648      76948.466      42.533715      42.533715      42.533715      0.89947853     3345.6258     -308.77803      473.37076    
Loop time of 5.8029e-05 on 1 procs for 0 steps with 6420 atoms

101.7% CPU use with 1 MPI tasks x 1 OpenMP threads

MPI task timing breakdown:
Section |  min time  |  avg time  |  max time  |%varavg| %total
---------------------------------------------------------------
Pair    | 0          | 0          | 0          |   0.0 |  0.00
Bond    | 0          | 0          | 0          |   0.0 |  0.00
Kspace  | 0          | 0          | 0          |   0.0 |  0.00
Neigh   | 0          | 0          | 0          |   0.0 |  0.00
Comm    | 0          | 0          | 0          |   0.0 |  0.00
Output  | 0          | 0          | 0          |   0.0 |  0.00
Modify  | 0          | 0          | 0          |   0.0 |  0.00
Other   |            | 5.803e-05  |            |       |100.00

Nlocal:           6420 ave        6420 max        6420 min
Histogram: 1 0 0 0 0 0 0 0 0 0
Nghost:          16986 ave       16986 max       16986 min
Histogram: 1 0 0 0 0 0 0 0 0 0
Neighs:              0 ave           0 max           0 min
Histogram: 1 0 0 0 0 0 0 0 0 0
FullNghs:  3.40821e+06 ave 3.40821e+06 max 3.40821e+06 min
Histogram: 1 0 0 0 0 0 0 0 0 0

Total # of neighbors = 3408212
Ave neighs/atom = 530.87414
Ave special neighs/atom = 5.8598131
Neighbor list builds = 0
Dangerous builds = 0
  undump per_t_snap
  print "STAGE COMPLETE: Tg step T=${temps}K P=1.0atm steps=50000"
STAGE COMPLETE: Tg step T=600K P=1.0atm steps=50000
  next temps
  jump SELF TEMP_LOOP
  timestep 1
  fix npt_tg all npt temp ${temps} ${temps} 100 iso 1.0 1.0 1000.0
  fix npt_tg all npt temp 580 ${temps} 100 iso 1.0 1.0 1000.0
  fix npt_tg all npt temp 580 580 100 iso 1.0 1.0 1000.0
  run 50000
PPPM Kokkos initialization ...
  using 12-bit tables for long-range coulomb
  G vector (1/distance) = 0.30009276
  grid = 30 30 30
  stencil order = 5
  estimated absolute RMS force accuracy = 0.0002976851
  estimated relative force accuracy = 8.9646983e-07
  using double precision cuFFT
  3d grid and FFT values/proc = 50653 27000
Generated 6 of 6 mixed pair_coeff terms from sixthpower/sixthpower mixing rule
Per MPI rank memory allocation (min/avg/max) = 41.47 | 41.47 | 41.47 Mbytes
   Step          Time           Temp          Press         Enthalpy        TotEng         KinEng         PotEng         E_bond        E_angle        E_dihed        E_impro         E_vdwl         E_coul         E_long         E_tail         Volume           Lx             Ly             Lz          Density          Pxx            Pyy            Pzz      
     50000   50000          583.58036      1170.0728      22531.137      21218.064      11166.121      10051.943      5136.5785      4463.558      -834.41906      427.84013      914.97713      3846.9396     -3903.5315     -373.78648      76948.466      42.533715      42.533715      42.533715      0.89947853     3345.6258     -308.77803      473.37076    
     50500   50500          587.537        1245.0648      21937.134      20546.606      11241.827      9304.7793      4845.2421      4300.771      -929.10887      375.85914      786.84311      3832.6662     -3907.4934     -375.58805      76579.37       42.4656        42.4656        42.4656        0.90381382     3047.6552      337.15699      350.38223    
     51000   51000          579.84301     -532.44889      19897.06       20492.448      11094.612      9397.8369      4861.3451      4395.1102     -930.16063      378.67212      773.64761      3825.1705     -3905.948      -375.12571      76673.754      42.483039      42.483039      42.483039      0.90270124     955.66689     -863.90464     -1689.1089    
     51500   51500          573.10881      1166.7024      21786.782      20467.08       10965.761      9501.3196      5004.8174      4281.8855     -982.55251      373.80312      884.90858      3836.5125     -3898.0549     -370.83773      77560.329      42.646155      42.646155      42.646155      0.89238267     1992.7178      339.66308      1167.7265    
     52000   52000          572.73327     -875.82522      19385.894      20379.669      10958.575      9421.0937      4975.0273      4297.2909     -988.86454      363.53997      862.56487      3817.4955     -3905.9603     -369.68251      77802.698      42.690531      42.690531      42.690531      0.88960274    -285.27059     -626.21774     -1715.9873    
     52500   52500          588.03076      827.56106      21580.321      20654.065      11251.274      9402.7904      4864.3206      4389.1089     -950.04466      387.74649      792.52047      3827.1912     -3908.0526     -374.77317      76745.88       42.496356      42.496356      42.496356      0.90185288    -864.15126     -87.61758       3434.452     
     53000   53000          580.39786      873.10154      21610.755      20630.373      11105.228      9525.1452      4941.2132      4353.2935     -939.77847      385.68451      864.94498      3828.3018     -3908.5144     -373.56744      76993.584      42.542027      42.542027      42.542027      0.89895144     2221.6981      320.42574      77.180766    
     53500   53500          583.75523      581.25905      21325.406      20673.041      11169.467      9503.5738      4937.5168      4458.1531     -998.26529      376.54941      809.42762      3830.621      -3910.4288     -373.74754      76956.484      42.535193      42.535193      42.535193      0.89938481    -207.37479      1244.971       706.18093    
     54000   54000          583.9812      -684.65574      20126.361      20902.875      11173.791      9729.084       5010.3267      4365.8761     -833.61243      392.18609      887.28282      3821.1024     -3914.0777     -369.84722      77768.049      42.684192      42.684192      42.684192      0.8899991     -794.19021     -208.96668     -1050.8103    
     54500   54500          576.12838      1893.7848      22844.797      20710.281      11023.536      9686.7442      4998.8777      4462.2052     -1044.1794      389.70067      953.84935      3833.5764     -3907.2857     -372.16078      77284.598      42.595559      42.595559      42.595559      0.89556645     3194.1432      2693.0994     -205.88824    
     55000   55000          585.44115      450.96914      21138.213      20631.057      11201.726      9429.3315      4883.2229      4331.9094     -973.13932      393.58059      876.24282      3825.7872     -3908.2721     -372.99659      77111.42       42.563719      42.563719      42.563719      0.89757772     360.69324      1586.4977     -594.28357    
     55500   55500          569.52238      890.45428      21361.757      20372.854      10897.139      9475.7155      4832.266       4449.5725     -982.47566      390.5027       870.91505      3832.3474     -3917.4126     -377.70891      76149.373      42.385968      42.385968      42.385968      0.90891744     1770.3786      449.1466       451.83763    
     56000   56000          585.76917     -994.48619      19547.882      20665.099      11208.002      9457.0976      4903.7316      4383.2665     -989.56436      389.80467      846.07958      3834.6915     -3910.9119     -373.38808      77030.569      42.548838      42.548838      42.548838      0.89851982     169.59552     -1405.7409     -1747.3132    
     56500   56500          580.33483     -689.8046       19967.057      20746.197      11104.022      9642.1751      5024.2372      4353.4311     -907.67883      405.91437      847.11881      3828.0102     -3908.8578     -371.37282      77448.576      42.625663      42.625663      42.625663      0.89367031    -1422.7428      285.07715     -931.74819    
     57000   57000          573.55174      2129.9492      22978.45       20576.696      10974.236      9602.4609      4921.44        4471.5587     -1017.1798      394.89615      914.01161      3829.2955     -3911.5613     -371.99764      77318.492      42.601785      42.601785      42.601785      0.89517386     2769.6089      3131.3653      488.87347    
     57500   57500          579.78211     -509.3329       20149.718      20717.825      11093.446      9624.3786      4939.6674      4426.9761     -888.48538      409.26873      820.1178       3828.2982     -3911.4643     -376.07211      76480.802      42.447372      42.447372      42.447372      0.90497866    -1001.2261     -1387.0029      860.23028    
     58000   58000          588.28673     -2341.5971      18296.59       20944.729      11256.172      9688.5569      4876.9429      4384.3446     -729.04325      399.42909      827.13439      3837.3336     -3907.5844     -370.91196      77544.807      42.64331       42.64331       42.64331       0.89256129    -1207.1163     -2535.9218     -3281.7532    
     58500   58500          581.97203      431.70758      21229.058      20736.931      11135.348      9601.5831      5016.6446      4343.6901     -955.17498      401.78975      882.48639      3818.0339     -3905.8867     -367.96941      78164.913      42.756677      42.756677      42.756677      0.88548034     39.947142      531.31685      723.85874    
     59000   59000          576.6453       2026.9696      22793.668      20517.91       11033.427      9484.4831      4946.3975      4348.3746     -972.64908      396.40234      854.92292      3824.484      -3913.4492     -373.61181      76984.442      42.540343      42.540343      42.540343      0.89905819     1290.5098      1981.8362      2808.5629    
     59500   59500          581.14928      1074.0339      21864.086      20675.472      11119.606      9555.8666      4993.679       4368.3784     -923.92382      370.42999      828.86364      3840.0444     -3921.605      -379.03268      75883.421      42.336567      42.336567      42.336567      0.91210296     1074.9362      2823.5921     -676.42658    
     60000   60000          588.71004     -588.15852      20191.232      20845.834      11264.272      9581.5624      5008.6253      4373.7111     -864.99202      394.81671      736.69198      3845.7712     -3913.0619     -376.89168      76314.49       42.416582      42.416582      42.416582      0.90695087     172.91608     -1721.186      -216.20569    
     60500   60500          587.93541      373.11992      21309.131      20890.112      11249.45       9640.6614      4971.4959      4430.5823     -893.10968      406.30881      821.76572      3820.8548     -3917.2365     -373.51995      77003.374      42.54383       42.54383       42.54383       0.89883715     1324.9318     -1407.2373      1201.6653    
     61000   61000          581.19574     -397.22658      20571.572      21020.424      11120.494      9899.9296      5134.4163      4429.7158     -865.44048      419.4359       863.42763      3826.6589     -3908.2844     -371.22263      77479.911      42.631411      42.631411      42.631411      0.89330889    -2461.7426      215.0233       1055.0396    
     61500   61500          591.82221      1018.7264      21895.972      20751.233      11323.82       9427.4134      4879.5752      4337.1679     -936.61458      390.16147      825.89866      3836.5623     -3905.3375     -373.29341      77050.105      42.552434      42.552434      42.552434      0.898292       1654.8426      606.83303      794.50357    
     62000   62000          582.03471      526.16665      21146.376      20560.395      11136.547      9423.8481      4745.4814      4452.5483     -935.47652      397.09266      850.904        3826.3512     -3913.0529     -376.65126      76363.203      42.425605      42.425605      42.425605      0.90637231     2232.4941     -1671.548       1017.5538    
     62500   62500          584.84888     -795.72004      19825.995      20711.948      11190.393      9521.5548      4884.7121      4360.8846     -869.94858      373.10857      851.49839      3831.1493     -3909.8495     -376.74645      76343.909      42.422032      42.422032      42.422032      0.90660138     1210.2335     -3959.4353      362.04173    
     63000   63000          577.84946     -1240.9945      19458.5        20865.177      11056.467      9808.7095      5063.2623      4400.1497     -889.36587      401.92198      914.31523      3826.4691     -3908.0429     -370.06239      77722.83       42.675918      42.675918      42.675918      0.89051689     1157.6936     -1938.9812     -2941.696     
     63500   63500          578.91798      204.28674      20874.102      20643.232      11076.912      9566.3197      4918.4998      4428.8843     -947.5934       396.18142      869.82968      3805.531      -3905.0131     -371.16991      77490.917      42.633429      42.633429      42.633429      0.89318201     751.6218       442.17092     -580.93249    
     64000   64000          572.11065     -945.16356      19413.826      20480.796      10946.662      9534.1336      4839.3611      4403.3616     -863.26899      386.68526      838.36122      3833.7843     -3904.1509     -371.58158      77405.065      42.617679      42.617679      42.617679      0.89417266    -853.94193     -2011.9497      30.400994    
     64500   64500          579.92665      137.47989      21177.504      21023.529      11096.212      9927.3168      5074.5649      4480.0909     -853.66889      399.19603      906.64539      3837.2895     -3916.8011     -374.53003      76795.701      42.50555       42.50555       42.50555       0.9012678     -48.716804      83.626208      377.53026    
     65000   65000          593.16062      1577.5997      22454.705      20697.981      11349.428      9348.5528      4863.0265      4239.3319     -976.93696      383.27339      919.30216      3834.3908     -3913.835      -376.69745      76353.838      42.423871      42.423871      42.423871      0.90648348     636.36695      2627.5598      1468.8723    
     65500   65500          576.67961     -1348.0816      19139.768      20668.786      11034.084      9634.7024      4911.204       4448.6645     -855.67169      394.12132      791.69569      3851.4665     -3906.778      -369.83062      77771.539      42.684831      42.684831      42.684831      0.88995915    -1387.6039     -1712.1226     -944.51811    
     66000   66000          579.57992      654.56383      21400.694      20652.475      11089.578      9562.8977      4933.8147      4363.8717     -976.45409      402.02928      915.60054      3830.5156     -3906.4801     -366.96334      78379.209      42.795716      42.795716      42.795716      0.88305934     301.28678      1826.2846     -163.87993    
     66500   66500          579.6294       1200.5181      22097.797      20730.699      11090.524      9640.1746      4977.8118      4447.2912     -1037.1355      402.00852      930.46574      3825.612      -3905.8791     -368.35669      78082.732      42.741688      42.741688      42.741688      0.88641229     2278.2942      1074.1225      249.13751    
[...]
   1029500   1029500        200.09985     -667.64465      4964.5455      5631.6763      3828.6744      1803.0019      2163.5128      2059.7699     -2335.3628      145.8293      -84.905093      3836.3312     -3982.1734     -419.79169      68515.641      40.919461      40.919461      40.919461      1.0101853     -408.52841     -624.14378     -970.26176    
   1030000   1030000        200.85908      940.94351      6406.5805      5475.8564      3843.2013      1632.655       2138.6903      1975.5854     -2389.066       137.62678     -75.363578      3831.3972     -3986.2149     -424.07437      67823.709      40.781248      40.781248      40.781248      1.0204911      730.98597      840.11925      1251.7253    
   1030500   1030500        199.00055      134.71046      5576.8426      5442.4729      3807.6406      1634.8323      2136.6111      1950.8514     -2358.9792      146.88758     -79.538631      3827.1197     -3988.1198     -420.53256      68394.933      40.895417      40.895417      40.895417      1.0119681     -291.13942      647.28805      47.982735    
   1031000   1031000        197.25825      977.0146       6480.5066      5505.9692      3774.3039      1731.6654      2154.2329      1987.7427     -2334.1504      145.97635     -73.131628      3835.4816     -3984.4861     -420.53487      68394.558      40.895342      40.895342      40.895342      1.0119737      262.72301      344.966        2323.3548    
   1031500   1031500        198.25428     -233.20622      5263.1227      5494.7493      3793.3617      1701.3876      2213.7358      1985.4722     -2390.7399      138.25868     -86.689506      3827.8884     -3986.5382     -422.32928      68103.961      40.837341      40.837341      40.837341      1.0162917      890.02932     -256.47284     -1333.1752    
   1032000   1032000        202.6226      -762.61983      4851.3425      5610.9421      3876.9444      1733.9978      2138.1944      1955.0118     -2281.1211      148.19823     -86.506116      3843.3718     -3983.1513     -421.13643      68296.862      40.875861      40.875861      40.875861      1.0134213     -1508.6639     -637.58392     -141.61173    
   1032500   1032500        201.01478     -359.09673      5194.644       5550.2795      3846.1805      1704.099       2170.8871      2012.8059     -2348.6379      145.48605     -115.59203      3827.4806     -3988.3306     -423.55099      67907.517      40.798039      40.798039      40.798039      1.0192317     -1124.9262     -175.0767       222.71275    
   1033000   1033000        200.78246     -358.19016      5171.6211      5527.7991      3841.7353      1686.0637      2158.1789      2031.5119     -2381.1005      142.04982     -105.46558      3827.0663     -3986.1771     -421.83831      68183.225      40.853178      40.853178      40.853178      1.0151103     -2773.7911      700.76415      998.45648    
   1033500   1033500        200.07765      83.268612      5495.9715      5413.2017      3828.2497      1584.952       2133.0666      1978.5226     -2363.5722      142.49421     -144.99767      3825.5554     -3986.117      -421.99638      68157.686      40.848077      40.848077      40.848077      1.0154907      667.10843     -871.4692       454.1666     
   1034000   1034000        199.9443      -1007.4724      4501.8914      5505.5836      3825.6983      1679.8853      2174.3381      2010.7136     -2396.0774      136.13301     -91.164405      3830.3524     -3984.41       -421.04841      68311.139      40.878709      40.878709      40.878709      1.0132095     -738.44613     -1370.3074     -913.66359    
   1034500   1034500        199.76944      779.63578      6275.7258      5503.3772      3822.3524      1681.0249      2178.6105      1965.6945     -2371.9682      137.1562      -68.353476      3828.534      -3988.6487     -423.42636      67927.505      40.802041      40.802041      40.802041      1.0189318      252.6009       1216.2458      870.06064    
   1035000   1035000        198.9831      -860.38558      4633.9048      5495.5449      3807.3068      1688.2381      2133.3171      1981.8041     -2306.2883      143.54915     -103.71777      3826.0094     -3986.4356     -418.85785      68668.395      40.949849      40.949849      40.949849      1.0079381      229.49363     -1024.0862     -1786.5642    
   1035500   1035500        199.15008     -101.50562      5410.0116      5510.1687      3810.5017      1699.667       2165.9699      1980.2731     -2362.1657      138.5043      -67.937954      3830.6047     -3985.5813     -425.11652      67657.442      40.747896      40.747896      40.747896      1.022999      -46.929195     -117.07581     -140.51185    
   1036000   1036000        200.81615     -1080.0062      4487.9062      5568.5387      3842.3801      1726.1586      2132.3069      2007.4972     -2304.6804      139.65965     -104.20944      3836.7667     -3981.182      -419.22546      68608.181      40.937876      40.937876      40.937876      1.0088227     -2145.6924     -1486.2628      391.93672    
   1036500   1036500        203.39772      1357.1475      6849.7139      5500.2852      3891.7754      1608.5098      2148.1949      1987.7602     -2430.6365      131.57951     -57.487406      3816.1001     -3987.0009     -421.86795      68178.434      40.852221      40.852221      40.852221      1.0151816      1636.9196      1037.0417      1397.4811    
   1037000   1037000        202.39209      1376.6904      6945.2043      5575.6579      3872.5338      1703.1241      2194.5254      1953.5565     -2367.0429      142.89231     -62.332009      3828.5939     -3987.0691     -421.65668      68212.595      40.859043      40.859043      40.859043      1.0146732      1431.3443      578.88618      2119.8406    
   1037500   1037500        203.78824     -705.86645      4883.9061      5587.5313      3899.2475      1688.2838      2179.4284      1952.4336     -2320.6412      143.50514     -112.50176      3829.9096     -3983.85       -420.80473      68350.697      40.886599      40.886599      40.886599      1.0126231     -1869.5067     -259.05531      10.962701    
   1038000   1038000        199.79222     -1798.0764      3746.1457      5516.7895      3822.7883      1694.0012      2130.0647      2001.8465     -2294.3615      142.39298     -117.90129      3819.9791     -3988.0194     -425.96744      67522.289      40.720745      40.720745      40.720745      1.0250466     -1177.8696     -2322.8991     -1893.4605    
   1038500   1038500        195.29381      970.83814      6441.3772      5472.2445      3736.7165      1735.528       2149.1839      2028.7376     -2377.3634      147.44061     -56.269259      3829.7236     -3985.925      -420.20672      68447.968      40.905985      40.905985      40.905985      1.011184       799.46179      888.63465      1224.418     
   1039000   1039000        197.45669      634.92852      6122.8191      5489.2113      3778.1008      1711.1106      2160.2973      1971.4685     -2333.925       143.2163      -86.804722      3839.9813     -3983.1231     -420.34299      68425.779      40.901564      40.901564      40.901564      1.0115119     -514.04462      1271.6219      1147.2083    
   1039500   1039500        201.97383      898.19507      6466.6106      5573.4192      3864.5309      1708.8883      2192.7503      2010.4568     -2419.4279      140.1128      -60.503158      3832.608      -3987.1085     -421.81848      68186.431      40.853818      40.853818      40.853818      1.0150626      358.73542      2084.0596      251.79024    
   1040000   1040000        202.11094     -17.988813      5522.5857      5540.3867      3867.1542      1673.2324      2126.5296      1993.7994     -2362.4048      140.75902     -70.225051      3830.0544     -3985.2801     -423.89602      67852.245      40.786967      40.786967      40.786967      1.0200619      89.945201     -454.14312      310.23148    
   1040500   1040500        201.53084      134.23139      5704.6465      5570.7764      3856.0547      1714.7217      2165.2324      2053.8532     -2395.4725      138.10049     -99.273616      3837.8705     -3985.5888     -420.60068      68383.857      40.89321       40.89321       40.89321       1.012132      -189.27639      527.80889      64.161664    
   1041000   1041000        205.05132     -1046.5748      4548.5982      5589.4529      3923.4149      1666.038       2146.3504      1989.522      -2351.2963      141.26645     -99.85006       3827.3011     -3987.2557     -421.77378      68193.657      40.855261      40.855261      40.855261      1.014955      -1052.4617     -925.71973     -1161.5428    
   1041500   1041500        203.38707     -522.49622      5012.3709      5530.8889      3891.5715      1639.3174      2092.3242      2014.8596     -2341.6083      141.58902     -110.0683       3829.8751     -3987.6539     -422.6869       68046.34       40.825821      40.825821      40.825821      1.0171523     -1308.9771     -1094.8661      836.35456    
   1042000   1042000        199.22158      377.625        5873.4879      5494.3133      3811.8698      1682.4435      2125.505       1974.4146     -2343.2611      139.12885     -63.627452      3833.2232     -3982.9396     -417.75428      68849.796      40.985876      40.985876      40.985876      1.0052825     -924.0051       1076.4353      980.44479    
   1042500   1042500        196.87439     -279.35666      5213.1849      5491.6209      3766.9591      1724.6619      2177.3904      1980.8928     -2346.9941      142.85648     -82.612057      3837.0502     -3983.9219     -420.85549      68342.453      40.884955      40.884955      40.884955      1.0127452      471.35805     -513.47118     -795.95686    
   1043000   1043000        200.28124      1163.3343      6720.4378      5566.8711      3832.1452      1734.7259      2174.2665      2041.2167     -2390.249       140.28155     -72.277072      3829.035      -3987.5477     -423.02036      67992.701      40.815091      40.815091      40.815091      1.0179548      57.643434      2881.7061      550.6534     
   1043500   1043500        203.30883      879.33849      6467.364       5592.4323      3890.0745      1702.3579      2116.8012      2044.3175     -2382.117       139.40262     -58.832756      3829.7916     -3987.0054     -421.58137      68224.781      40.861476      40.861476      40.861476      1.014492       1529.784      -809.92285      1918.1543    
   1044000   1044000        200.60769      739.81685      6290.017       5553.7267      3838.3914      1715.3353      2127.9656      2002.4875     -2347.3184      146.68012     -58.546936      3830.5283     -3986.4609     -421.47772      68241.558      40.864825      40.864825      40.864825      1.0142426      624.57908      500.87986      1093.9916    
   1044500   1044500        202.26195     -455.48152      5065.8743      5517.9891      3870.0437      1647.9454      2215.0998      1965.2889     -2391.6051      141.43492     -123.05703      3827.6698     -3986.8859     -422.59216      68061.594      40.828871      40.828871      40.828871      1.0169244     -1217.4058     -256.52188      107.48315    
   1045000   1045000        199.69805      220.32124      5730.8565      5511.6605      3820.9865      1690.674       2157.8772      1989.2724     -2384.2747      143.87064     -65.498782      3834.6967     -3985.2694     -421.62198      68218.21       40.860164      40.860164      40.860164      1.0145897     -648.70945      788.41488      521.2583     
   1045500   1045500        199.7831      -215.62876      5260.4166      5475.0409      3822.6139      1652.427       2111.7309      2016.442      -2348.5706      136.6065      -96.848425      3821.2034     -3988.1367     -421.43185      68248.986      40.866308      40.866308      40.866308      1.0141322     -29.032528      904.60776     -1522.4615    
   1046000   1046000        197.19302     -361.11176      5153.4202      5513.4394      3773.0558      1740.3837      2181.3276      2044.9092     -2369.4996      140.48286     -103.26691      3833.5747     -3987.1442     -420.74149      68360.971      40.888647      40.888647      40.888647      1.0124709     -1120.52       -514.87364      552.05833    
   1046500   1046500        203.41632      491.54323      6088.3261      5598.6532      3892.1313      1706.522       2170.1357      2017.3679     -2389.6821      140.53345     -73.195821      3829.9507     -3988.5879     -421.07082      68307.504      40.877984      40.877984      40.877984      1.0132634      424.23302      311.42964      738.96703    
   1047000   1047000        200.70698      358.65213      5913.1604      5557.5626      3840.2911      1717.2715      2191.9348      2024.0342     -2380.6238      140.97833     -97.465217      3824.5802     -3986.167      -423.07153      67984.477      40.813445      40.813445      40.813445      1.0180779     -1026.0708      1834.0676      267.95967    
   1047500   1047500        201.01614      65.816113      5585.8211      5520.5382      3846.2066      1674.3316      2149.8036      1989.9569     -2375.6423      138.4959      -81.536349      3839.58       -3986.3261     -422.89464      68012.913      40.819134      40.819134      40.819134      1.0176522      911.96951     -378.49152     -336.02965    
   1048000   1048000        201.12762     -438.97915      5066.0175      5504.5368      3848.3396      1656.1972      2180.7465      1974.8149     -2397.5344      144.89047     -93.369898      3830.8718     -3984.2222     -419.90847      68496.586      40.915668      40.915668      40.915668      1.0104663      281.55584     -920.21595     -678.27733    
   1048500   1048500        197.6606      -667.40231      4742.2284      5402.0849      3782.0023      1620.0825      2089.3179      1994.5278     -2343.1053      141.8601      -115.52172      3835.1218     -3982.1181     -424.26548      67793.158      40.775124      40.775124      40.775124      1.020951      -1337.1167     -693.69302      28.602771    
   1049000   1049000        204.89189     -8.2726533      5628.9602      5637.2409      3920.3645      1716.8764      2138.0334      1998.7513     -2328.1445      146.46305     -83.951523      3830.8613     -3985.1366     -419.05981      68635.302      40.943269      40.943269      40.943269      1.0084241     -221.34673      245.87231     -49.343538    
   1049500   1049500        198.37965      221.45747      5714.1118      5494.0837      3795.7605      1698.3232      2175.4368      1986.5022     -2355.1566      141.45198     -85.244828      3824.9985     -3989.6648     -422.19361      68125.846      40.841715      40.841715      40.841715      1.0159653      16.21819      -200.18064      848.33488    
   1050000   1050000        201.84305      66.992813      5518.3522      5451.9771      3862.0286      1589.9485      2179.8795      1966.5021     -2434.2265      139.9582      -101.96755      3826.1974     -3986.3947     -423.37201      67936.227      40.803787      40.803787      40.803787      1.018801      -672.98363      358.04477      515.9173     
Loop time of 94.4061 on 1 procs for 50000 steps with 6420 atoms

Performance: 45.760 ns/day, 0.524 hours/ns, 529.627 timesteps/s, 3.400 Matom-step/s
100.0% CPU use with 1 MPI tasks x 1 OpenMP threads

MPI task timing breakdown:
Section |  min time  |  avg time  |  max time  |%varavg| %total
---------------------------------------------------------------
Pair    | 11.032     | 11.032     | 11.032     |   0.0 | 11.69
Bond    | 13.692     | 13.692     | 13.692     |   0.0 | 14.50
Kspace  | 46.76      | 46.76      | 46.76      |   0.0 | 49.53
Neigh   | 4.6432     | 4.6432     | 4.6432     |   0.0 |  4.92
Comm    | 0.79722    | 0.79722    | 0.79722    |   0.0 |  0.84
Output  | 0.010138   | 0.010138   | 0.010138   |   0.0 |  0.01
Modify  | 15.316     | 15.316     | 15.316     |   0.0 | 16.22
Other   |            | 2.155      |            |       |  2.28

Nlocal:           6420 ave        6420 max        6420 min
Histogram: 1 0 0 0 0 0 0 0 0 0
Nghost:          18038 ave       18038 max       18038 min
Histogram: 1 0 0 0 0 0 0 0 0 0
Neighs:              0 ave           0 max           0 min
Histogram: 1 0 0 0 0 0 0 0 0 0
FullNghs:  3.86185e+06 ave 3.86185e+06 max 3.86185e+06 min
Histogram: 1 0 0 0 0 0 0 0 0 0

Total # of neighbors = 3861852
Ave neighs/atom = 601.53458
Ave special neighs/atom = 5.8598131
Neighbor list builds = 841
Dangerous builds = 0
  unfix npt_tg
  shell echo '{"stage":"T${temps}","status":"done"}' >> /home/alexzhao/PolyJarvis/data/PS3/lammps/thermal/tg_sweep_r400/tg_progress.jsonl
  dump per_t_snap all atom 1 per_t_structs.dump
  dump_modify per_t_snap append yes
  run 0
WARNING: No fixes with time integration, atoms won't move
For more information see https://docs.lammps.org/err0028 (src/verlet.cpp:60)
PPPM Kokkos initialization ...
  using 12-bit tables for long-range coulomb
  G vector (1/distance) = 0.30350016
  grid = 30 30 30
  stencil order = 5
  estimated absolute RMS force accuracy = 0.00026279691
  estimated relative force accuracy = 7.9140508e-07
  using double precision cuFFT
  3d grid and FFT values/proc = 50653 27000
Generated 6 of 6 mixed pair_coeff terms from sixthpower/sixthpower mixing rule
Per MPI rank memory allocation (min/avg/max) = 42.59 | 42.59 | 42.59 Mbytes
   Step          Time           Temp          Press         Enthalpy        TotEng         KinEng         PotEng         E_bond        E_angle        E_dihed        E_impro         E_vdwl         E_coul         E_long         E_tail         Volume           Lx             Ly             Lz          Density          Pxx            Pyy            Pzz      
   1050000   1050000        201.84305      66.994042      5518.3537      5451.9773      3862.0286      1589.9487      2179.8795      1966.5021     -2434.2265      139.9582      -101.96755      3828.9343     -3989.1313     -423.37201      67936.227      40.803787      40.803787      40.803787      1.018801      -672.98209      358.04605      515.91817    
Loop time of 4.5826e-05 on 1 procs for 0 steps with 6420 atoms

100.4% CPU use with 1 MPI tasks x 1 OpenMP threads

MPI task timing breakdown:
Section |  min time  |  avg time  |  max time  |%varavg| %total
---------------------------------------------------------------
Pair    | 0          | 0          | 0          |   0.0 |  0.00
Bond    | 0          | 0          | 0          |   0.0 |  0.00
Kspace  | 0          | 0          | 0          |   0.0 |  0.00
Neigh   | 0          | 0          | 0          |   0.0 |  0.00
Comm    | 0          | 0          | 0          |   0.0 |  0.00
Output  | 0          | 0          | 0          |   0.0 |  0.00
Modify  | 0          | 0          | 0          |   0.0 |  0.00
Other   |            | 4.583e-05  |            |       |100.00

Nlocal:           6420 ave        6420 max        6420 min
Histogram: 1 0 0 0 0 0 0 0 0 0
Nghost:          18039 ave       18039 max       18039 min
Histogram: 1 0 0 0 0 0 0 0 0 0
Neighs:              0 ave           0 max           0 min
Histogram: 1 0 0 0 0 0 0 0 0 0
FullNghs:  3.86204e+06 ave 3.86204e+06 max 3.86204e+06 min
Histogram: 1 0 0 0 0 0 0 0 0 0

Total # of neighbors = 3862038
Ave neighs/atom = 601.56355
Ave special neighs/atom = 5.8598131
Neighbor list builds = 0
Dangerous builds = 0
  undump per_t_snap
  print "STAGE COMPLETE: Tg step T=${temps}K P=1.0atm steps=50000"
STAGE COMPLETE: Tg step T=200K P=1.0atm steps=50000
  next temps
  jump SELF TEMP_LOOP

write_data tg_step_out.data
System init for write_data ...
PPPM Kokkos initialization ...
  using 12-bit tables for long-range coulomb
  G vector (1/distance) = 0.30350016
  grid = 30 30 30
  stencil order = 5
  estimated absolute RMS force accuracy = 0.00026279691
  estimated relative force accuracy = 7.9140508e-07
  using double precision cuFFT
  3d grid and FFT values/proc = 50653 27000
Generated 6 of 6 mixed pair_coeff terms from sixthpower/sixthpower mixing rule
Total wall time: 0:35:21
