LAMMPS data file via write_data, version 22 Jul 2025, timestep = 2000000, units = real

4096 atoms
7 atom types
4448 bonds
7 bond types
7080 angles
9 angle types
10544 dihedrals
13 dihedral types
2280 impropers
5 improper types

3.9786070246406275 40.34624877535059 xlo xhi
3.9786070246406275 40.34624877535059 ylo yhi
3.9786070246406275 40.34624877535059 zlo zhi

Masses

1 12.01115
2 12.01115
3 1.00797
4 1.00797
5 15.9994
6 15.9994
7 15.9994

Pair Coeffs # lj/class2/coul/long/gpu

1 0.12 3.308
2 0.064 4.01
3 0.02 2.995
4 0.013 1.098
5 0.267 3.3
6 0.24 3.535
7 0.24 3.535

Bond Coeffs # class2

1 1.489 339.357 -655.724 670.236
2 1.216 823.795 -1878.79 2303.53
3 1.417 470.836 -627.618 1327.63
4 1.0982 372.825 -803.453 894.317
5 1.3768 428.88 -738.235 1114.97
6 1.3768 428.88 -738.235 1114.97
7 0.965 532.506 -1282.9 2004.77

Angle Coeffs # class2

1 108.4 43.9594 -8.3924 -9.3379
2 110.588 34.6214 -7.0939 -7.4032
3 119.3 65.1016 -17.9766 0
4 118.9 61.0226 -34.9931 0
5 117.94 35.1558 -12.4682 0
6 123.42 73.6781 -21.6787 0
7 123.42 73.6781 -21.6787 0
8 109.5 60 0 0
9 108.19 53.125 -8.5016 0

BondBond Coeffs

1 0 1.489 1.417
2 0 1.489 1.489
3 0 1.489 1.216
4 68.2856 1.417 1.417
5 1.0795 1.417 1.0982
6 48.4754 1.417 1.3768
7 48.4754 1.417 1.3768
8 0 1.3768 1.3768
9 20.6577 1.3768 0.965

BondAngle Coeffs

1 0 0 1.489 1.417
2 0 0 1.489 1.489
3 0 0 1.489 1.216
4 28.8708 28.8708 1.417 1.417
5 20.0033 24.2183 1.417 1.0982
6 58.479 107.681 1.417 1.3768
7 58.479 107.681 1.417 1.3768
8 0 0 1.3768 1.3768
9 53.8614 23.9224 1.3768 0.965

Dihedral Coeffs # class2

1 0 0 4.6282 0 0 0
2 0 0 2.167 0 0 0
3 0 0 2.5 0 0 0
4 0 0 0.9063 0 0 0
5 8.3667 0 1.1932 0 0 0
6 0 0 3.9661 0 0 0
7 0 0 4.8498 0 0 0
8 0 0 4.8498 0 0 0
9 0 0 1.8 0 0 0
10 -0.69 0 0.5097 0 0.0095 0
11 0 0 1.8769 0 0 0
12 0 0 1.7234 0 0 0
13 0 0 1.7234 0 0 0

AngleAngleTorsion Coeffs

1 0 108.4 118.9
2 0 108.4 117.94
3 0 110.588 108.4
4 0 108.4 119.3
5 0 118.9 118.9
6 -4.8141 118.9 117.94
7 -21.0247 118.9 123.42
8 -21.0247 118.9 123.42
9 0 123.42 109.5
10 -4.6072 123.42 108.19
11 0.3598 117.94 117.94
12 4.2296 117.94 123.42
13 4.2296 117.94 123.42

EndBondTorsion Coeffs

1 0 0 0 0 0 0 1.489 1.417
2 0 0 0 0 0 0 1.489 1.0982
3 0 0 0 0 0 0 1.489 1.417
4 0 0 0 0 0 0 1.417 1.216
5 -0.1185 6.3204 0 -0.1185 6.3204 0 1.417 1.417
6 0 -6.8958 0 0 -0.4669 0 1.417 1.0982
7 0 0.2655 0 0 4.8905 0 1.417 1.3768
8 0 0.2655 0 0 4.8905 0 1.417 1.3768
9 0 0 0 0 0 0 1.417 1.3768
10 0.9 -1.3456 1.19 3.4132 0.5873 -0.1323 1.417 0.965
11 0 -0.689 0 0 -0.689 0 1.0982 1.0982
12 0 -1.5867 0 0 4.2641 0 1.0982 1.3768
13 0 -1.5867 0 0 4.2641 0 1.0982 1.3768

MiddleBondTorsion Coeffs

1 0 0 0 1.417
2 0 0 0 1.417
3 0 0 0 1.489
4 0 0 0 1.489
5 27.5989 -2.312 0 1.417
6 0 -1.1521 0 1.417
7 0 4.8255 0 1.417
8 0 4.8255 0 1.417
9 0 0 0 1.3768
10 1.158 3.2697 3.5132 1.3768
11 0 4.8228 0 1.417
12 0 5.5432 0 1.417
13 0 5.5432 0 1.417

BondBond13 Coeffs

1 0 1.489 1.417
2 0 1.489 1.0982
3 0 1.489 1.417
4 0 1.417 1.216
5 53 1.417 1.417
6 -6.2741 1.417 1.0982
7 -2.2436 1.417 1.3768
8 -2.2436 1.417 1.3768
9 0 1.417 1.3768
10 1.159 1.417 0.965
11 -1.7077 1.0982 1.0982
12 2.0517 1.0982 1.3768
13 2.0517 1.0982 1.3768

AngleTorsion Coeffs

1 0 0 0 0 0 0 108.4 118.9
2 0 0 0 0 0 0 108.4 117.94
3 0 0 0 0 0 0 110.588 108.4
4 0 0 0 0 0 0 108.4 119.3
5 1.9767 1.0239 0 1.9767 1.0239 0 118.9 118.9
6 0 2.5014 0 0 2.7147 0 118.9 117.94
7 0 10.0155 0 0 1.7404 0 118.9 123.42
8 0 10.0155 0 0 1.7404 0 118.9 123.42
9 0 0 0 0 0 0 123.42 109.5
10 -5.136 -1.0122 0 4.6852 0.023 -0.598 123.42 108.19
11 0 2.4501 0 0 2.4501 0 117.94 117.94
12 0 1.8729 0 0 2.5706 0 117.94 123.42
13 0 1.8729 0 0 2.5706 0 117.94 123.42

Improper Coeffs # class2

1 38.7949 0
2 0 0
3 4.8912 0
4 13.0421 0
5 13.0421 0

AngleAngle Coeffs

1 0 0 0 110.588 119.3 119.3
2 0 0 0 108.4 108.4 118.9
3 0 0 0 118.9 117.94 117.94
4 0 0 0 118.9 123.42 123.42
5 0 0 0 118.9 123.42 123.42

Atoms # full

875 2 2 -0.1268 6.361744322850923 5.927747433852546 5.491605429252363 0 -1 1
877 2 2 -0.1268 6.713496048529713 6.471007469766731 6.709034557018512 0 -1 1
878 2 3 0.1268 6.969012049448327 7.532362268367926 6.780331360585111 0 -1 1
869 2 2 0 6.774854100710468 5.614029739158727 7.897443463864148 0 -1 1
876 2 3 0.1268 6.104039994991259 6.60169697328631 4.627367756002522 0 -1 1
874 2 2 0.0265 6.037370887175604 4.59143665713916 5.344268145517724 0 -1 1
867 2 1 0.3964 7.0457888587820126 6.129925100216097 9.309105961329474 0 -1 1
3584 7 3 0.1268 8.680514056793353 9.000840191836064 6.047658270127765 1 0 0
868 2 5 -0.3964 7.425444094410312 7.265624725868531 9.466205518898128 0 -1 1
887 2 6 -0.053 5.841425278831326 4.004007477491927 4.141779916717414 0 -1 1
3125 7 3 0.1268 40.07655922662265 6.369445540159152 7.513430933462148 0 0 0
3127 7 3 0.1268 40.09716347727178 8.658041635306539 7.830148597262234 0 0 0
1139 3 3 0.1268 9.891735795954745 7.220812484253937 7.451449559666221 0 1 0
1138 3 2 -0.1268 10.827439124643272 6.9526998843927945 7.779086086541325 0 1 0
1140 3 2 0 11.625515256769987 5.9921630527534235 7.09139900973211 0 1 0
1155 3 2 -0.1268 13.410047129221896 6.3648621079189285 8.724828147347932 0 1 0
1141 3 1 0.3964 11.028605642413966 5.2831919786674355 5.917933980852453 0 1 0
1153 3 2 -0.1268 12.881272907924918 5.677477685643309 7.600942887830799 0 1 0
1136 3 2 -0.1268 11.31475136914354 7.6285360977091985 8.902555917329604 0 1 0
1154 3 3 0.1268 13.49322452345262 4.903151813942054 7.128086345801943 0 1 0
3939 8 1 0.3964 14.944459860931255 8.103765273289632 4.863331872619717 0 2 1
1156 3 3 0.1268 14.33206713838796 6.027493356918253 9.173014226391379 0 1 0
1145 3 3 0.1268 10.597592362544237 8.088865038933392 5.4683253662039935 0 1 0
1142 3 5 -0.3964 11.351390293318966 4.119035401050423 5.686919866904964 0 1 0
1135 3 2 0.0265 12.605653260170183 7.345226607364581 9.37281347315822 0 1 0
1137 3 3 0.1268 10.651116078881866 8.339782678757306 9.487304014879756 0 1 0
1143 3 2 0 10.077489820200828 6.044059137526429 4.990107844931949 0 1 0
1144 3 2 -0.1268 10.101665135887202 7.400125806170156 4.750473062587485 0 1 0
3937 8 3 0.1268 15.871087989411986 5.4849264053744635 4.957527116508571 0 2 1
938 2 2 -0.1268 20.190204181246596 32.89873142923351 4.32583760384862 -1 -2 1
3938 8 2 0 16.32211223815844 7.563001392738608 5.342610294206347 0 2 1
3951 8 2 -0.1268 17.218193414406073 8.443494794843831 5.937050243735273 0 2 1
3953 8 2 -0.1268 18.47560284107024 7.942381732028995 6.30881224652774 0 2 1
3933 8 2 0.0265 18.821752043247137 6.585208589489093 6.204088599839075 0 2 1
3932 8 6 -0.053 20.05773351813086 6.078065918428852 6.50647886990922 0 2 1
3954 8 3 0.1268 19.213315486899702 8.668996798139062 6.659571639819689 0 2 1
3934 8 2 -0.1268 17.871951586601135 5.707681894028025 5.735347580950328 0 2 1
3931 8 2 0.0265 20.836493053500188 5.311421898501492 5.632573612548741 0 2 1
3935 8 3 0.1268 18.128596370580354 4.588992611161442 5.55630892038275 0 2 1
2375 5 3 0.1268 16.86787762495576 5.6135470804374155 8.07778795262369 -1 0 1
3936 8 2 -0.1268 16.637415604749812 6.193473105461151 5.268604011011522 0 2 1
2374 5 2 -0.1268 17.666275231274106 5.183259295368756 8.786994376036493 -1 0 1
2372 5 2 -0.1268 18.476015522697548 4.136061333130798 8.500191474453079 -1 0 1
2444 5 2 0.0265 30.25868005896482 24.42780099125324 4.068398925421087 -1 0 1
3929 8 2 -0.1268 21.955292591804096 4.757514193305847 6.253355830350359 0 2 1
3930 8 3 0.1268 22.10234583005164 4.878862344799075 7.342301888709654 0 2 1
2506 5 5 -0.3964 22.23190568549327 9.15874147564738 8.478592419889285 -1 1 1
2503 5 3 0.1268 24.35019641474666 6.036207687121662 7.127933332592061 -1 1 1
2502 5 2 -0.1268 24.30364641138116 6.926210831963504 6.476929290683778 -1 1 1
2504 5 2 0 23.62996579061511 8.133027794130426 6.84323132861575 -1 1 1
2517 5 2 -0.1268 23.230926939808253 9.058954394606012 5.845320498679152 -1 1 1
2516 5 3 0.1268 25.76268920247659 8.024228702971486 8.463817620992812 -1 1 1
2505 5 1 0.3964 23.151816376088842 8.344489124510853 8.252850334850217 -1 1 1
2500 5 2 -0.1268 24.740841928680773 6.8442925818456715 5.148067780952618 -1 1 1
2507 5 2 0 23.8311974092346 7.582727440181307 9.354855622863937 -1 1 1
2515 5 2 -0.1268 25.213660922654725 7.540841844873953 9.294032981504483 -1 1 1
2501 5 3 0.1268 25.366887771506537 5.962912622866422 4.986806824582897 -1 1 1
2519 5 2 -0.1268 23.749298459019343 8.908418865919291 4.571693297870152 -1 1 1
2499 5 2 0.0265 24.62544161066818 7.875612897349095 4.207906714655856 -1 1 1
3927 8 2 -0.1268 22.654849421791106 40.1285472059396 5.593425624776163 0 1 1
2360 5 3 0.1268 25.691115262170715 40.315321113143064 7.772300497564582 -1 -1 1
2359 5 2 -0.1268 26.655519568237697 4.062753700218254 8.33572834958602 -1 0 1
2358 5 3 0.1268 27.13152543902103 5.690649858681575 7.169328962991137 -1 0 1
2357 5 2 -0.1268 27.557687082087522 4.987030423745377 7.870899831326563 -1 0 1
2355 5 6 -0.053 29.891111080250926 5.764535531712136 7.845355118558729 -1 0 1
2342 5 2 0.0265 30.1611310048926 5.622308911316704 6.499287398000441 -1 0 1
2340 5 2 -0.1268 31.06038329745326 6.600976818306835 6.0069199331937835 -1 0 1
2341 5 3 0.1268 31.613228354988518 7.2342736522802245 6.719581607071451 -1 0 1
3423 7 3 0.1268 28.4038903951619 8.327340242655715 7.399946083152949 1 0 0
2356 5 2 0.0265 28.839732123435798 4.939054269986438 8.308423008758307 -1 0 1
2343 5 2 -0.1268 29.60790335197243 4.694670423635441 5.598405236164695 -1 0 1
2338 5 2 -0.1268 31.396776882940223 6.5798517919588555 4.668579901186704 -1 0 1
1830 4 2 0.0265 32.84234747859904 9.582065996264364 8.61523629526768 -1 0 1
2344 5 3 0.1268 29.011561305712497 40.29330651400144 6.064388308833194 -1 -1 1
2387 5 2 -0.1268 29.2144483835854 40.32420957233289 9.240386957294762 -1 -1 1
3424 7 2 -0.1268 28.917900165201644 8.655220252616989 9.55804443374768 1 0 0
2388 5 3 0.1268 30.297750994512786 40.257676663617914 9.454186044831474 -1 -1 1
3994 8 2 0.0265 36.88323183658285 6.971560659434154 4.5128589856987436 -1 2 1
2143 5 2 -0.1268 34.190124909220316 5.321107324797195 9.13371543823521 0 1 1
2144 5 3 0.1268 34.69274011097734 5.901524245078049 8.363574065611218 0 1 1
3996 8 3 0.1268 37.72636855552699 5.237694543990903 5.619394361849857 -1 2 1
3993 8 6 -0.053 37.46833989393873 7.9158431370828515 5.358397938582767 -1 2 1
1832 4 3 0.1268 34.759438038549746 8.688981082707961 8.176296829746885 -1 0 1
1831 4 2 -0.1268 33.877768423593956 9.119865830764354 7.746027571631146 -1 0 1
3131 7 2 -0.1268 37.435125745391844 6.628209021010334 9.623620144898496 0 0 0
3129 7 2 -0.1268 37.4831706514033 7.970844188176791 9.887944742145088 0 0 0
3995 8 2 -0.1268 37.10361700815055 5.573127136688619 4.693735571727495 -1 2 1
3123 7 2 0 38.41925115747523 5.950516579726574 8.852647296601724 0 0 0
3128 7 2 0.0265 38.34489406903381 8.773485702371321 9.196337687280158 0 0 0
1834 4 3 0.1268 34.8866929138921 9.251304262102707 5.924463888643736 -1 0 1
3980 8 2 0.0265 38.435149797268366 8.797733338708717 4.776895332167869 -1 2 1
1833 4 2 -0.1268 33.92346450222751 9.492120030032853 6.362083038561945 -1 0 1
3982 8 3 0.1268 38.61719578744747 10.195467135068178 6.404763878858937 -1 2 1
3121 7 1 0.3964 38.31147346236408 4.4062886007691535 8.585552580692589 0 0 0
890 2 3 0.1268 39.7779871248739 4.063498491921848 5.122344959833274 -1 -1 1
3126 7 2 -0.1268 39.22707965480643 8.154318243993739 8.333384128693362 0 0 0
3124 7 2 -0.1268 39.29837701684092 6.758746898336786 8.134753956123028 0 0 0
3981 8 2 -0.1268 39.06455707608471 9.864603984890262 5.489510943085911 -1 2 1
3572 7 3 0.1268 10.154146927802428 9.838448722145596 7.725209829773692 1 0 0
3570 7 2 -0.1268 8.42093142897702 9.949970583511572 6.602876863971659 1 0 0
3569 7 3 0.1268 6.550265552423864 10.253901957243531 5.489817735279105 1 0 0
3568 7 2 -0.1268 7.173743847904863 10.52964864291721 6.341039539673618 1 0 0
3566 7 2 -0.1268 6.754062802837806 11.495867548435998 7.228362662171187 1 0 0
3567 7 3 0.1268 5.806387829500918 11.964752725623155 7.16162953758696 1 0 0
3565 7 2 0 7.5771380157382 11.97287043788771 8.227775798515513 1 0 0
3964 8 3 0.1268 8.92492000652219 12.589102104623752 5.878977228002824 0 2 1
3571 7 2 -0.1268 9.227149234129442 10.411081874615498 7.577810996487578 1 0 0
3573 7 2 -0.1268 8.869619236120432 11.438980982077156 8.459605360569249 1 0 0
3563 7 1 0.3964 7.090545648472173 13.196572647277963 9.108040072317745 1 0 0
3564 7 5 -0.3964 5.937546676248504 13.460168907640469 9.137999537888462 1 0 0
3968 8 2 -0.1268 6.183926302874614 14.162924079589883 4.638448483191555 0 2 1
3967 8 2 0.0265 7.604534327391781 14.214543743026203 4.459152519211207 0 2 1
3969 8 3 0.1268 5.753565302894918 14.874153213440474 5.363866536794013 0 2 1
3984 8 3 0.1268 4.05002299599265 11.400660920044846 5.5389910825387885 0 2 1
3966 8 6 -0.053 8.409861442812558 15.150635580945634 5.126409605406852 0 2 1
3965 8 2 0.0265 9.652328914532255 14.649479566226383 5.554557445413508 0 2 1
3963 8 2 -0.1268 9.831525437174184 13.315743997661496 5.8573062355437955 0 2 1
3576 7 3 0.1268 9.834883455596216 13.621912852729924 8.63079691741772 1 0 0
3574 7 3 0.1268 9.612380776556781 11.667617563061267 9.245519279458113 1 0 0
3562 7 2 0 8.05892007354307 14.090180145195962 9.841895292046917 1 0 0
3575 7 2 -0.1268 9.390142459330978 14.249353246096605 9.471411831195137 1 0 0
3950 8 3 0.1268 15.170831876641829 9.257791296428586 7.281431221187757 0 2 1
3763 8 2 0.0265 30.722738278102483 14.501063706956112 3.990973788419882 0 1 0
3941 8 2 0 14.576531321079655 9.482197334263876 5.211409832723249 0 2 1
3949 8 2 -0.1268 14.685383820804244 9.901824598372846 6.560645292453546 0 2 1
3946 8 2 0.0265 13.940231803774418 12.091302043767946 5.970143033621397 0 2 1
3947 8 2 -0.1268 14.260368955530431 11.194382371058285 6.964398132414656 0 2 1
3962 8 3 0.1268 11.158802583306095 11.84763430135785 6.343370304927195 0 2 1
3959 8 6 -0.053 13.621929839972394 13.416982037963052 6.227159808148922 0 2 1
3961 8 2 -0.1268 11.14542598300039 12.903418163270791 6.085898118733903 0 2 1
3948 8 3 0.1268 14.447273134767682 11.50120641509157 7.977965135595339 0 2 1
3960 8 2 0.0265 12.226945556728296 13.738496820197904 6.020392910771414 0 2 1
3944 8 2 -0.1268 13.746415282476688 11.655080979135732 4.635083404869835 0 2 1
3991 8 2 -0.1268 11.97017401970372 15.061731768948972 5.903313338854694 0 2 1
3942 8 2 -0.1268 13.985396253752105 10.33699622961262 4.223370792686204 0 2 1
3578 7 3 0.1268 11.287662548474971 15.24775226708728 9.901162413693871 1 0 0
3952 8 3 0.1268 17.101897956916687 9.57623512800749 6.103725794368813 0 2 1
370 1 3 0.1268 16.873101699957232 10.675063751967805 8.379626606316508 0 -1 1
373 1 2 -0.1268 19.864055949622042 11.054208174670684 4.776519205645408 0 -1 1
346 1 3 0.1268 16.998651602153977 12.672717164990233 6.8162515629451566 0 -1 1
371 1 2 -0.1268 19.93647676976861 11.11997953805147 6.145108134882264 0 -1 1
347 1 2 0.0265 18.996616479879634 11.701066163344596 6.949772438514258 0 -1 1
345 1 2 -0.1268 17.848341234891755 12.185727266264125 6.296020732257174 0 -1 1
343 1 2 -0.1268 17.69137857833998 12.044255527600287 4.851522252387831 0 -1 1
348 1 6 -0.053 19.26509405045752 12.049614113518581 8.297115852452844 0 -1 1
372 1 3 0.1268 20.762793122067553 10.521440176940626 6.631179933489541 0 -1 1
3399 7 3 0.1268 20.416463143042876 14.63041656038084 7.887269512468761 1 0 0
374 1 3 0.1268 20.734214435284215 10.655762977991333 4.30568920916225 0 -1 1
344 1 3 0.1268 16.829655791856915 12.55614219515335 4.360084869369591 0 -1 1
795 2 3 0.1268 18.13613291809487 14.956789575085052 7.005500143412798 0 -2 1
792 2 6 -0.053 17.549624038646662 15.271991955446074 4.520609045324919 0 -2 1
342 1 2 0.0265 18.730390944703814 11.57440293870816 4.090691635500224 0 -1 1
369 1 2 -0.1268 17.054714063624527 11.41420746570121 9.137144418584509 0 -1 1
349 1 2 0.0265 18.21088950805934 12.21397148891875 9.244479130847614 0 -1 1
794 2 2 -0.1268 17.2703860037114 15.638861678017541 6.869073138471501 0 -2 1
797 2 3 0.1268 16.959212594086203 15.882170300097272 8.924590801037015 0 -2 1
2518 5 3 0.1268 22.607002867784963 9.895628704431275 6.148117261915935 -1 1 1
3414 7 2 0.0265 23.678270699407292 12.819517049922599 6.598688687009812 1 0 0
3417 7 2 -0.1268 25.83331971059025 12.077529024338853 5.577164002621239 1 0 0
3419 7 2 0.0265 26.142960541376432 11.300776595767918 6.717451453144503 1 0 0
3415 7 2 -0.1268 24.605603707944592 12.837078345370353 5.559824912737422 1 0 0
3413 7 6 -0.053 22.441709684123822 13.520420792265506 6.523997198386085 1 0 0
3443 7 2 -0.1268 25.109341425907015 11.299341553635756 7.754813356596785 1 0 0
3445 7 2 -0.1268 23.879585204385155 11.930429572549553 7.627657518910383 1 0 0
3416 7 3 0.1268 24.378132164775067 13.506228939728468 4.65771355862488 1 0 0
3418 7 3 0.1268 26.627444243411514 12.170231057953558 4.827029580621362 1 0 0
3446 7 3 0.1268 23.029099958694275 11.768138012527553 8.331045214915372 1 0 0
3444 7 3 0.1268 25.251517955920985 10.707820740015343 8.70500967756201 1 0 0
3422 7 2 -0.1268 28.450475188660757 8.959223239499362 8.318262230533307 1 0 0
3420 7 6 -0.053 27.313350376529723 10.618503808047839 6.855074679775562 1 0 0
3442 7 3 0.1268 26.96903724873447 11.947609128037604 9.007079077617703 1 0 0
1821 4 3 0.1268 30.133110351352745 9.545476680286137 4.892318900110134 -1 0 1
3421 7 2 0.0265 27.78082375733387 10.195800056119456 8.14919012911832 1 0 0
3784 8 3 0.1268 28.823471078964037 13.60799067045863 4.425949711642386 0 1 0
1828 4 2 -0.1268 31.77340173561116 10.22265778300612 8.039691702486433 -1 0 1
3783 8 2 -0.1268 29.718430321823703 14.021407694296446 4.882664578374439 0 1 0
3781 8 2 -0.1268 29.855433283940666 13.91462353135433 6.255839118093623 0 1 0
3768 8 2 0 31.07152959618402 14.355280130073712 6.864405356770314 0 1 0
1826 4 2 -0.1268 31.704846450996165 10.462656903588954 6.658129316747663 -1 0 1
1827 4 3 0.1268 30.793264683387633 10.917449629952328 6.243726574631887 -1 0 1
1829 4 3 0.1268 30.96035336168406 10.594162371025401 8.681895758080548 -1 0 1
3782 8 3 0.1268 29.071902631818286 13.647561831549856 7.006127280672775 0 1 0
3764 8 2 -0.1268 31.948979398463198 14.868170137758918 4.57918123206409 0 1 0
3971 8 3 0.1268 4.428777133543163 13.065574442934068 4.451334436143213 0 2 1
3769 8 1 0.3964 31.288400192857434 14.177194698761555 8.367705252685141 0 1 0
2796 6 3 0.1268 34.65608378245328 26.935380182903167 4.113359767984773 -1 0 0
3766 8 2 -0.1268 32.04136929494837 14.868207194077197 5.984307450547119 0 1 0
1823 4 1 0.3964 32.84702177675938 10.309433845086076 4.2691173550937185 -1 0 1
1825 4 2 0 32.82836921144255 10.157127431117745 5.809100098750213 -1 0 1
3770 8 5 -0.3964 30.426854032138476 13.857255067037569 9.148278033462063 0 1 0
3441 7 2 -0.1268 27.542921006313914 11.039727974299478 9.232344906115856 1 0 0
3773 8 3 0.1268 33.541413223467416 13.104184477975762 7.168355097302738 0 1 0
3772 8 2 -0.1268 33.81035961745638 13.68447758484624 8.093313532679154 0 1 0
3775 8 3 0.1268 36.0470003954121 13.549473238766389 7.825927215984507 0 1 0
3774 8 2 -0.1268 35.122379266599005 13.868687382394665 8.481288248128708 0 1 0
3771 8 2 0 32.774304297008705 14.210093955565366 8.887098149623533 0 1 0
16 1 5 -0.3964 37.624309168958945 12.50403435637111 6.105018172659856 0 0 0
15 1 1 0.3964 37.93548327513267 13.260540925600173 5.168635021039896 0 0 0
1846 4 3 0.1268 34.86879394658919 10.9046146473951 9.450758295691475 -1 0 1
3776 8 2 0.0265 35.42666327879091 14.577656892251804 9.637059549048178 0 1 0
3141 7 6 -0.053 38.29712847166928 10.178337300965246 9.284205369220288 0 0 0
3174 7 3 0.1268 38.474111596527536 12.82400035959114 9.209545471513088 0 0 0
17 1 2 0 38.71759064188909 14.506546837218842 5.533050306934115 0 0 0
2761 6 2 -0.1268 24.877506288924064 23.42284531619653 4.076896479177126 -1 0 0
13 1 3 0.1268 36.184799190969954 11.4466972223087 4.134833419444461 0 0 0
3983 8 2 -0.1268 40.1369381366175 10.502650875931 4.896041592388793 -1 2 1
19 1 3 0.1268 39.38484237184177 13.780401490669968 7.3995085029050305 0 0 0
18 1 2 -0.1268 39.35415299188088 14.588310349063052 6.721928057270974 0 0 0
3173 7 2 -0.1268 39.06846946192516 12.338323934625773 9.994306883968235 0 0 0
2773 6 2 0.0265 36.01150945106831 24.41955313350801 4.129375805241742 -1 0 0
68 1 3 0.1268 6.856200276255859 17.427021765443378 6.871817173780765 1 0 0
36 1 2 0.0265 4.958743661414258 18.228629646097197 7.700484722739681 1 0 0
67 1 2 -0.1268 6.312088232077407 17.854444153781152 7.709254383794944 1 0 0
65 1 2 -0.1268 7.0422111072007 18.039845932577585 8.900445895051755 1 0 0
37 1 2 -0.1268 4.494445349891574 19.079174677737626 8.71474784731914 1 0 0
66 1 3 0.1268 8.078846659318165 17.6998864849922 8.859244805784327 1 0 0
1432 3 3 0.1268 7.483813168051455 20.346115473874704 6.747524581141048 0 1 0
1431 3 2 -0.1268 8.09608482190823 21.115237838594943 6.2380338707877865 0 1 0
39 1 2 -0.1268 5.272263546408636 19.35205865308037 9.790105103077664 1 0 0
552 2 3 0.1268 13.901324548578625 30.14576400885974 5.168672211567267 0 -1 1
41 1 2 0.0265 6.548864420636381 18.805180315452485 9.946608790801807 1 0 0
40 1 3 0.1268 4.855353001368459 19.995460993651626 10.600209373704198 1 0 0
509 1 2 -0.1268 12.761691724366713 25.155387517920648 4.520495883469059 -1 -2 1
1429 3 2 -0.1268 9.463692269070783 20.87935795097551 6.3672344051276175 0 1 0
3989 8 2 -0.1268 10.683949270305302 15.52598824825829 5.6856154230559275 0 2 1
1430 3 3 0.1268 9.819522213314126 19.90001793742585 6.80626991366264 0 1 0
3992 8 3 0.1268 12.816687520670385 15.77935860800909 5.892979438665815 0 2 1
803 2 3 0.1268 13.0802453573089 16.930137124743855 8.16003159644409 0 -2 1
802 2 2 -0.1268 12.919590874725463 17.94908252965685 8.608689350491034 0 -2 1
3990 8 3 0.1268 10.51415024726725 16.577512568665277 5.561672550258644 0 2 1
2644 6 5 -0.3964 14.07839416852493 20.04745455572791 5.000335483602845 0 0 0
812 2 3 0.1268 14.510639708051634 18.202686220038167 6.212395337117219 0 -2 1
805 2 3 0.1268 10.744422873544238 17.97752332769864 8.33715216237372 0 -2 1
804 2 2 -0.1268 11.626368650122817 18.453136569398758 8.720925572303017 0 -2 1
801 2 2 0 14.020492591310427 18.603456242062215 9.091844337264806 0 -2 1
811 2 2 -0.1268 15.35136722008735 17.571227730484914 6.419159329111571 0 -2 1
799 2 1 0.3964 15.379355860937748 18.091025095409428 9.011297615600984 0 -2 1
1406 3 6 -0.053 11.752934262210161 21.751304878972974 6.402298367024619 0 1 0
2654 6 3 0.1268 13.398140893204303 17.47286910103571 4.216806037967686 0 0 0
806 2 2 0.0265 11.454676748440605 19.69870611400743 9.411317945816808 0 -2 1
819 2 6 -0.053 10.150964642030436 20.231126616995418 9.523237080326407 0 -2 1
814 2 3 0.1268 15.549528787125556 17.410009238885124 4.430629583389183 0 -2 1
813 2 2 -0.1268 15.879451179273838 16.916261311991263 5.369116121192562 0 -2 1
793 2 2 0.0265 16.884743631399257 15.909935978767553 5.526223655886624 0 -2 1
2063 5 1 0.3964 16.96519982605593 38.77931486738845 16.030412434523946 0 0 1
798 2 2 0 15.788924529718255 17.332200646753137 7.727472118127338 0 -2 1
796 2 2 -0.1268 16.6469874674871 16.234896052882476 7.944017489813228 0 -2 1
3405 7 2 -0.1268 19.67549745527759 19.47315519441029 7.96745829394238 1 0 0
3406 7 3 0.1268 19.756391006444694 18.892747961613765 7.056857786250177 1 0 0
3397 7 3 0.1268 20.31451279110331 16.964521668205144 8.476683145825142 1 0 0
3407 7 2 -0.1268 18.535656677401406 20.135568186285983 8.202317400703773 1 0 0
3408 7 3 0.1268 17.682668657231808 20.237157688603734 7.480185078320531 1 0 0
3392 7 2 0 20.77604564478129 19.60214157410673 8.774000923167549 1 0 0
3390 7 2 -0.1268 20.844064194085814 20.659677434885896 9.723493152925844 1 0 0
3398 7 2 -0.1268 21.266109870096056 15.259476022536981 7.575691273007218 1 0 0
3396 7 2 -0.1268 21.12654077838209 16.600386257309918 7.875201546132067 1 0 0
2339 5 3 0.1268 32.15005290663286 7.2777858221798475 4.1506875864823005 -1 0 1
816 2 3 0.1268 15.054545587021657 14.30465240181626 4.19467877376391 0 -2 1
3400 7 2 0.0265 22.42601130855692 14.839434620027259 6.9120300530228995 1 0 0
3402 7 3 0.1268 24.391411184113917 15.271099271651972 6.394039054957577 1 0 0
3401 7 2 -0.1268 23.51940938547295 15.718184784755003 6.8784382107512005 1 0 0
3395 7 2 0 22.154842456013686 17.55990868071816 7.661755658617111 1 0 0
3393 7 1 0.3964 22.10371826152175 18.920544792107115 8.298145995637071 1 0 0
3403 7 2 -0.1268 23.362922733058692 17.010029596586442 7.253448260735888 1 0 0
3404 7 3 0.1268 24.282211014799113 17.62666678096211 7.287468499932084 1 0 0
3394 7 5 -0.3964 23.081237245566083 19.614780235442147 8.421944041833758 1 0 0
2734 6 3 0.1268 24.200939286767017 19.88146918243928 5.510779540707527 -1 0 0
1560 4 3 0.1268 25.536341107177826 19.588844645481547 9.124998478375684 0 0 0
1559 4 2 -0.1268 26.181980938899553 20.149982810618862 8.349269272175306 0 0 0
1562 4 3 0.1268 26.441614455173024 18.365906947592244 7.402150348342897 0 0 0
1561 4 2 -0.1268 26.752783069365197 19.41323957332814 7.332705369325632 0 0 0
4086 8 3 0.1268 11.569581389662616 39.154089473121005 15.247472014100456 0 1 0
2409 5 3 0.1268 24.10409407686244 15.900206760651056 10.12188386385031 -1 0 1
2486 5 3 0.1268 28.08004131677244 30.75881667425165 4.383260180196968 -1 0 1
1550 4 2 0 29.22420279751974 19.639043327581383 4.213667992650933 0 0 0
1553 4 2 0 27.54780289310663 19.979829987954222 6.312623157572233 0 0 0
1552 4 5 -0.3964 28.16557971752997 17.918084139647775 5.441089018556542 0 0 0
1551 4 1 0.3964 28.31972038320338 19.10151996015801 5.33127144078303 0 0 0
1564 4 3 0.1268 30.415864082380548 17.86385961800412 4.449953068168768 0 0 0
2452 5 3 0.1268 29.854500835492004 19.505143652626806 8.72935613829255 -1 0 1
2451 5 2 -0.1268 30.833998748648476 20.064208265090844 8.7698319778702 -1 0 1
2449 5 2 -0.1268 31.308947915248016 20.86094418058563 7.748239982443217 -1 0 1
2450 5 3 0.1268 30.6663631418585 21.13829678933116 6.925018902259474 -1 0 1
2456 5 3 0.1268 28.54971842734962 16.015103969926038 9.458567618545207 -1 0 1
2454 5 3 0.1268 30.813984371953673 16.978708135690894 9.754374947025632 -1 0 1
2455 5 2 -0.1268 28.70382732350504 16.9093042579163 10.113974942384178 -1 0 1
3736 8 5 -0.3964 20.2356926497781 16.193665351054676 4.160766321405434 0 1 0
3767 8 3 0.1268 33.061632394040615 15.258032552284813 6.177615572794917 0 1 0
599 2 3 0.1268 35.499441375626155 20.587240612642535 5.086829844441466 -1 -1 1
595 2 1 0.3964 35.870225774245704 18.04586729328511 6.2576057996707455 -1 -1 1
596 2 5 -0.3964 35.57097932275991 16.91689641064861 6.601145856732439 -1 -1 1
594 2 2 0 36.45274157729885 19.064892319347308 7.227769730643228 -1 -1 1
607 2 2 -0.1268 36.14733343282437 19.03095277865804 8.624301682403814 -1 -1 1
608 2 3 0.1268 35.41674786593978 18.329573534391383 8.956745465800548 -1 -1 1
592 2 2 -0.1268 37.38020323504304 19.960402938106192 6.659628973952364 -1 -1 1
593 2 3 0.1268 37.7672953120189 19.879153399304847 5.644571944589845 -1 -1 1
609 2 2 -0.1268 36.59588946570385 20.00964197671399 9.43211274183702 -1 -1 1
589 2 2 0.0265 37.46697494474377 20.935457401476736 8.86907153273703 -1 -1 1
597 2 2 0 35.54889539188822 18.494969932087677 4.809610331877023 -1 -1 1
3779 8 2 -0.1268 33.04835930777048 14.845551776434007 10.084914734446954 0 1 0
2434 5 2 -0.1268 33.424752386500295 21.16296581202788 8.789335556640328 -1 0 1
25 1 2 -0.1268 38.496262471913994 15.682644719764697 4.721953907108929 0 0 0
35 1 6 -0.053 4.080940384432647 18.083522964265452 6.644577146180254 1 0 0
21 1 3 0.1268 4.117778471162067 15.890848536821917 8.144248045560023 1 0 0
3822 8 3 0.1268 37.912403445789295 16.659092234391053 9.236725759737311 0 1 0
38 1 3 0.1268 39.80701795321751 19.338862204682705 8.627111253013812 0 0 0
20 1 2 -0.1268 39.93401306729383 15.774162753992226 7.159221086484196 0 0 0
22 1 2 0.0265 39.882053037385106 16.832970592922823 6.318381521927035 0 0 0
23 1 2 -0.1268 39.15982676285475 16.85336150485145 5.140533510362005 0 0 0
1400 3 2 0.0265 7.609691507611808 22.1981567511935 5.525275170401633 0 1 0
567 2 3 0.1268 5.463915122589449 24.833696621446666 7.245185352343467 0 -1 1
566 2 2 -0.1268 5.884993302668571 25.809001963682654 7.379018732247044 0 -1 1
565 2 3 0.1268 7.8443501122551655 25.132433444677222 7.500423909554325 0 -1 1
564 2 2 -0.1268 7.274662968159154 26.01484689993971 7.3272908672951 0 -1 1
852 2 3 0.1268 8.805193911314802 22.246572488358318 8.809411257445637 0 -2 1
568 2 2 0.0265 5.009274142605772 26.873048082194725 7.694635842851896 0 -1 1
1399 3 6 -0.053 6.251461052140771 22.309337077959228 5.340275375763571 0 1 0
1401 3 2 -0.1268 8.5270802497607 23.22441466602703 5.185665553287524 0 1 0
1402 3 3 0.1268 8.165162308783682 24.09681859517809 4.652497861751956 0 1 0
1385 3 3 0.1268 39.97884020038866 22.273179832380578 5.359602187016737 -1 1 0
581 2 6 -0.053 40.051378699270174 26.737112553389697 7.8837178076095 -1 -1 1
1384 3 2 -0.1268 4.091847475046786 21.577321665472827 4.635489261359868 0 1 0
442 1 3 0.1268 39.9052635195189 34.352712136555084 14.813578078668632 -1 -2 1
465 1 2 -0.1268 15.667420212122588 27.31576655314008 4.669970745310166 -1 -2 1
1409 3 3 0.1268 14.273411940768863 21.68615227712177 6.9855748692751085 0 1 0
1405 3 2 0.0265 10.391407191250963 21.860513671067398 6.058692904202889 0 1 0
1403 3 2 -0.1268 9.887570505946787 23.049100969429755 5.4664587326687215 0 1 0
1408 3 2 -0.1268 13.697358487213007 22.493455519286783 7.418888964792361 0 1 0
1407 3 2 0.0265 12.333453106224406 22.580829218106096 7.3094021127344355 0 1 0
1428 3 3 0.1268 10.499955488747407 23.656523816968075 7.9343549697536755 0 1 0
1427 3 2 -0.1268 11.591379579751766 23.456082416092922 8.108462978238332 0 1 0
1425 3 2 -0.1268 12.235440818734395 24.34652179701106 8.97144861360601 0 1 0
1412 3 2 0 13.647562482122881 24.40336860080148 8.973474876270588 0 1 0
1404 3 3 0.1268 10.581025342845289 23.84072185594447 5.150260700003969 0 1 0
478 1 2 0.0265 13.055535091257578 26.463687866090755 5.054561270243189 -1 -2 1
1410 3 2 -0.1268 14.347806429053835 23.429402514515218 8.147889490594896 0 1 0
1426 3 3 0.1268 11.702516182720043 25.09650713716226 9.549697502031611 0 1 0
562 2 5 -0.3964 9.824718488959764 26.760946924523072 8.374270977212221 0 -1 1