LAMMPS data file via write_data, version 22 Jul 2025, timestep = 1000000, units = real

7520 atoms
6 atom types
7510 bonds
9 bond types
14000 angles
17 angle types
18910 dihedrals
22 dihedral types
8500 impropers
14 improper types

4.45258132455713 47.29841680542427 xlo xhi
4.45258132455713 47.29841680542427 ylo yhi
4.45258132455713 47.29841680542427 zlo zhi

Masses

1 12.01115
2 12.01115
3 12.01115
4 1.00797
5 15.9994
6 15.9994

Pair Coeffs # lj/class2/coul/long/kk

1 0.054 4.01
2 0.054 4.01
3 0.12 3.81
4 0.02 2.995
5 0.267 3.3
6 0.24 3.42

Bond Coeffs # class2/kk

1 1.53 299.67 -501.77 679.81
2 1.53 299.67 -501.77 679.81
3 1.5202 253.707 -423.037 396.9
4 1.101 345 -691.89 844.6
5 1.43 326.727 -608.531 689.033
6 1.5202 253.707 -423.037 396.9
7 1.101 345 -691.89 844.6
8 1.202 851.14 -1918.49 2160.77
9 1.3683 367.148 -794.791 1055.23

Angle Coeffs # class2/kk

1 112.67 39.516 -7.443 -9.5583
2 112.67 39.516 -7.443 -9.5583
3 108.53 51.9747 -9.4851 -10.9985
4 110.77 41.453 -10.604 5.129
5 112.67 39.516 -7.443 -9.5583
6 108.53 51.9747 -9.4851 -10.9985
7 110.77 41.453 -10.604 5.129
8 123.145 55.5431 -17.2123 0.1348
9 100.318 38.8631 -3.8323 -7.9802
10 113.288 61.2868 -28.9786 7.9929
11 110.77 41.453 -10.604 5.129
12 123.145 55.5431 -17.2123 0.1348
13 100.318 38.8631 -3.8323 -7.9802
14 107.734 40.6099 -28.8121 0
15 107.66 39.641 -12.921 -2.4318
16 107.688 65.4801 -10.3498 5.8866
17 120.797 95.3446 -32.2869 6.3778

BondBond Coeffs

1 0 1.53 1.53
2 0 1.53 1.53
3 5.4199 1.53 1.5202
4 3.3872 1.53 1.101
5 0 1.53 1.53
6 5.4199 1.53 1.5202
7 3.3872 1.53 1.101
8 46.0685 1.5202 1.202
9 19.1069 1.5202 1.3683
10 45.4503 1.43 1.3683
11 3.3872 1.53 1.101
12 46.0685 1.5202 1.202
13 19.1069 1.5202 1.3683
14 0.7115 1.5202 1.101
15 5.3316 1.101 1.101
16 5.6454 1.101 1.43
17 121.488 1.202 1.3683

BondAngle Coeffs

1 8.016 8.016 1.53 1.53
2 8.016 8.016 1.53 1.53
3 18.1678 15.8758 1.53 1.5202
4 20.754 11.421 1.53 1.101
5 8.016 8.016 1.53 1.53
6 18.1678 15.8758 1.53 1.5202
7 20.754 11.421 1.53 1.101
8 34.9982 37.1298 1.5202 1.202
9 1.3435 4.6978 1.5202 1.3683
10 41.9116 46.4608 1.43 1.3683
11 20.754 11.421 1.53 1.101
12 34.9982 37.1298 1.5202 1.202
13 1.3435 4.6978 1.5202 1.3683
14 12.4632 9.1765 1.5202 1.101
15 18.103 18.103 1.101 1.101
16 8.6864 57.4975 1.101 1.43
17 76.2614 71.8761 1.202 1.3683

Dihedral Coeffs # class2/kk

1 0 0 0.0514 0 -0.143 0
2 0 0 0.0514 0 -0.143 0
3 0.0972 0 0.0722 0 -0.2581 0
4 0 0 0.0316 0 -0.1681 0
5 0 0 0.0514 0 -0.143 0
6 0.0972 0 0.0722 0 -0.2581 0
7 0 0 0.0316 0 -0.1681 0
8 0.0442 0 0.0292 0 0.0562 0
9 1.8341 0 2.0603 0 -0.0195 0
10 0 0 0.0316 0 -0.1681 0
11 0.0442 0 0.0292 0 0.0562 0
12 1.8341 0 2.0603 0 -0.0195 0
13 -2.5594 0 2.2013 0 0.0325 0
14 -2.5594 0 2.2013 0 0.0325 0
15 0 0 2.2089 0 0 0
16 0.0972 0 0.0722 0 -0.2581 0
17 -0.0228 0 0.028 0 -0.1863 0
18 -0.0228 0 0.028 0 -0.1863 0
19 0 0 0 0 -0.1932 0
20 -0.1432 0 0.0617 0 -0.1083 0
21 -0.1804 0 0.0012 0 0.0371 0
22 -0.6359 0 1.4807 0 -0.0438 0

AngleAngleTorsion Coeffs

1 -22.045 112.67 112.67
2 -22.045 112.67 112.67
3 -0.3801 112.67 108.53
4 -16.164 112.67 110.77
5 -22.045 112.67 112.67
6 -0.3801 112.67 108.53
7 -16.164 112.67 110.77
8 -8.019 108.53 123.145
9 0 108.53 100.318
10 -16.164 112.67 110.77
11 -8.019 108.53 123.145
12 0 108.53 100.318
13 0 100.318 113.288
14 0 113.288 100.318
15 0 113.288 120.797
16 -0.3801 112.67 108.53
17 -5.3624 108.53 110.77
18 -5.3624 108.53 110.77
19 0 113.288 107.688
20 -12.564 110.77 110.77
21 -15.3496 107.734 123.145
22 0 107.734 100.318

EndBondTorsion Coeffs

1 -0.0732 0 0 -0.0732 0 0 1.53 1.53
2 -0.0732 0 0 -0.0732 0 0 1.53 1.53
3 0.0062 -0.0002 0.0036 0.0055 0.006 -0.0009 1.53 1.5202
4 0.2486 0.2422 -0.0925 0.0814 0.0591 0.2219 1.53 1.101
5 -0.0732 0 0 -0.0732 0 0 1.53 1.53
6 0.0062 -0.0002 0.0036 0.0055 0.006 -0.0009 1.53 1.5202
7 0.2486 0.2422 -0.0925 0.0814 0.0591 0.2219 1.53 1.101
8 0.2654 0.0503 0.1046 -0.281 0.0816 -0.1522 1.53 1.202
9 0 0 0 0 0 0 1.53 1.3683
10 0.2486 0.2422 -0.0925 0.0814 0.0591 0.2219 1.53 1.101
11 0.2654 0.0503 0.1046 -0.281 0.0816 -0.1522 1.53 1.202
12 0 0 0 0 0 0 1.53 1.3683
13 0 0 0 0 0 0 1.5202 1.43
14 0 0 0 0 0 0 1.43 1.5202
15 0 0 0 0 0 0 1.43 1.202
16 0.0062 -0.0002 0.0036 0.0055 0.006 -0.0009 1.53 1.5202
17 -0.0204 0.3628 -0.4426 -0.0097 -0.0315 -0.0755 1.5202 1.101
18 -0.0204 0.3628 -0.4426 -0.0097 -0.0315 -0.0755 1.5202 1.101
19 0 0 0 0 0 0 1.3683 1.101
20 0.213 0.312 0.0777 0.213 0.312 0.0777 1.101 1.101
21 1.2143 0.2831 0.3916 -0.2298 0.0354 0.3853 1.101 1.202
22 0 0 0 0 0 0 1.101 1.3683

MiddleBondTorsion Coeffs

1 -17.787 -7.1877 0 1.53
2 -17.787 -7.1877 0 1.53
3 -1.5945 0.2267 -0.6911 1.53
4 -14.879 -3.6581 -0.3138 1.53
5 -17.787 -7.1877 0 1.53
6 -1.5945 0.2267 -0.6911 1.53
7 -14.879 -3.6581 -0.3138 1.53
8 0.3388 -0.1096 0.1219 1.5202
9 -17.328 -5.79 -3.2114 1.5202
10 -14.879 -3.6581 -0.3138 1.53
11 0.3388 -0.1096 0.1219 1.5202
12 -17.328 -5.79 -3.2114 1.5202
13 1.3445 3.5515 -4.9202 1.3683
14 1.3445 3.5515 -4.9202 1.3683
15 4.26 0 0 1.3683
16 -1.5945 0.2267 -0.6911 1.53
17 -3.5039 1.2458 -0.761 1.53
18 -3.5039 1.2458 -0.761 1.53
19 0 0 0 1.43
20 -14.261 -0.5322 -0.4864 1.53
21 0.2359 0.9139 0.9594 1.5202
22 -13.7686 -2.5959 1.1934 1.5202

BondBond13 Coeffs

1 0 1.53 1.53
2 0 1.53 1.53
3 0 1.53 1.5202
4 0 1.53 1.101
5 0 1.53 1.53
6 0 1.53 1.5202
7 0 1.53 1.101
8 0 1.53 1.202
9 0 1.53 1.3683
10 0 1.53 1.101
11 0 1.53 1.202
12 0 1.53 1.3683
13 0 1.5202 1.43
14 0 1.43 1.5202
15 0 1.43 1.202
16 0 1.53 1.5202
17 0 1.5202 1.101
18 0 1.5202 1.101
19 0 1.3683 1.101
20 0 1.101 1.101
21 0 1.101 1.202
22 0 1.101 1.3683

AngleTorsion Coeffs

1 0.3886 -0.3139 0.1389 0.3886 -0.3139 0.1389 112.67 112.67
2 0.3886 -0.3139 0.1389 0.3886 -0.3139 0.1389 112.67 112.67
3 -0.2607 0.3203 -0.2283 0.0515 -0.0674 -0.0474 112.67 108.53
4 -0.2454 0 -0.1136 0.3113 0.4516 -0.1988 112.67 110.77
5 0.3886 -0.3139 0.1389 0.3886 -0.3139 0.1389 112.67 112.67
6 -0.2607 0.3203 -0.2283 0.0515 -0.0674 -0.0474 112.67 108.53
7 -0.2454 0 -0.1136 0.3113 0.4516 -0.1988 112.67 110.77
8 0.0885 -1.3703 -0.5452 0.675 0.5965 0.6725 108.53 123.145
9 0 0 0 0 0 0 108.53 100.318
10 -0.2454 0 -0.1136 0.3113 0.4516 -0.1988 112.67 110.77
11 0.0885 -1.3703 -0.5452 0.675 0.5965 0.6725 108.53 123.145
12 0 0 0 0 0 0 108.53 100.318
13 0 0 0 0 0 0 100.318 113.288
14 0 0 0 0 0 0 113.288 100.318
15 0 0 0 0 0 0 113.288 120.797
16 -0.2607 0.3203 -0.2283 0.0515 -0.0674 -0.0474 112.67 108.53
17 -0.7466 -0.9448 -0.6321 0.0162 1.4211 -1.4092 108.53 110.77
18 -0.7466 -0.9448 -0.6321 0.0162 1.4211 -1.4092 108.53 110.77
19 0 0 0 0 0 0 113.288 107.688
20 -0.8085 0.5569 -0.2466 -0.8085 0.5569 -0.2466 110.77 110.77
21 9.1299 -0.4847 0.3582 -1.4946 0.7308 -0.2083 107.734 123.145
22 0 0 0 0 0 0 107.734 100.318

Improper Coeffs # class2/kk

1 0 0
2 0 0
3 0 0
4 0 0
5 0 0
6 0 0
7 0 0
8 0 0
9 0 0
10 0 0
11 0 0
12 0 0
13 46.9264 0
14 46.9264 0

AngleAngle Coeffs

1 -0.1729 -0.1729 -0.1729 112.67 112.67 112.67
2 0 0 0 112.67 108.53 108.53
3 -1.3199 -1.3199 0.1184 112.67 110.77 110.77
4 -1.3199 -1.3199 0.1184 112.67 110.77 110.77
5 0.2738 -0.4825 0.2738 110.77 110.77 107.66
6 0.2738 -0.4825 0.2738 110.77 110.77 107.66
7 -0.3157 -0.3157 -0.3157 107.66 107.66 107.66
8 0 0 0 107.66 107.688 107.688
9 0 0 0 112.67 108.53 108.53
10 -1.3199 -1.3199 0.1184 112.67 110.77 110.77
11 2.0403 -1.8202 1.0827 108.53 110.77 107.734
12 1.0827 -1.8202 2.0403 110.77 108.53 107.734
13 0 0 0 100.318 123.145 120.797
14 0 0 0 100.318 123.145 120.797

Atoms # full/kk

644 1 4 0.053 45.333529940071166 9.33931767506729 4.783441362058966 -1 1 0
642 1 1 0.066 46.32359416341867 8.919116766409708 4.583331009928385 -1 1 0
641 1 6 -0.396 47.23315379208735 9.283663363077466 5.683321555007605 -1 1 0
632 1 4 0.053 5.29703295699929 10.458128095543909 7.722690416819139 0 1 0
7480 10 4 0.053 10.44686888168222 7.151438896530051 11.240149180469258 0 0 0
3067 5 4 0.053 9.717167264033762 7.287471830044228 46.62584810250384 0 0 -1
651 1 4 0.053 6.672209030695155 5.709838103896567 5.852163868531198 0 1 0
631 1 1 -0.106 6.3449261246232 10.365113355225198 7.964101555304705 0 1 0
633 1 4 0.053 6.650139045418554 10.162721179846107 8.955034725013936 0 1 0
638 1 4 0.053 8.528332017524011 9.649340997226382 6.333950944639875 0 1 0
650 1 1 -0.159 5.640487720006405 5.856124990557726 6.425819415678514 0 1 0
649 1 1 0 5.686001941361243 6.4488462034964185 7.936937440918917 0 1 0
646 1 1 -0.106 5.665394907900081 8.035590445537002 7.964904883630105 0 1 0
647 1 4 0.053 6.042050491658813 8.325711799679203 8.938264553352077 0 1 0
639 1 3 0.702 5.720438289778294 8.97224600073282 5.608061791789859 0 1 0
640 1 5 -0.531 6.24839652177588 8.512339266634779 4.645390967159143 0 1 0
634 1 1 0 6.512303902895279 9.110398942208796 7.053667044879877 0 1 0
637 1 4 0.053 7.944135057093079 7.874342120243561 6.199544608713097 0 1 0
635 1 1 -0.159 8.011996496407637 8.701881735424129 6.828838914701064 0 1 0
636 1 4 0.053 8.540387513332739 8.670985271708112 7.834769279681327 0 1 0
654 1 3 0.702 7.047961990887989 5.937079396570595 8.560243997227087 0 1 0
3065 5 1 0.066 9.810775603902592 6.977471361886148 45.541079994702294 0 0 -1
3068 5 4 0.053 10.928252568924119 7.128745836439602 45.34397877628617 0 0 -1
7505 10 4 0.053 12.506640613846486 8.523773354721676 10.141813786873376 0 0 0
7495 10 4 0.053 15.834742889847282 8.344522800113724 9.961978347233892 0 0 0
7492 10 1 0 14.002846512781941 6.972756589988672 10.051422383464162 0 0 0
7511 10 4 0.053 10.775528758543752 8.857419687653046 7.6042842453265145 0 0 0
7509 10 4 0.053 11.493946612993543 10.105000613175878 8.941267828444737 0 0 0
382 1 4 0.053 10.250179359016212 10.880427160421624 4.68425694542542 0 1 0
7510 10 4 0.053 11.790584949006213 10.18809313954583 7.1673273283387156 0 0 0
7508 10 1 -0.159 11.73298080968089 9.51552932613396 8.010359656077984 0 0 0
7517 10 4 0.053 11.76367349067127 5.820419489177155 5.187309576766124 0 0 0
7499 10 6 -0.396 15.776606707995839 5.409261306006318 9.635613178279796 0 0 0
7515 10 1 0.066 12.693267332353223 6.441932296836527 5.251821929318169 0 0 0
7506 10 4 0.053 12.168582433868643 7.243851538676578 8.938543159487894 0 0 0
7504 10 1 -0.106 12.944706411037851 7.85225941331522 9.30595118063927 0 0 0
7514 10 6 -0.396 12.579165494997286 7.417208225584736 6.282893280532602 0 0 0
7513 10 5 -0.531 14.65337246117293 8.223220451894282 6.263992569055312 0 0 0
7512 10 3 0.702 13.5734623990554 8.113255480806828 6.869199813757173 0 0 0
7507 10 2 -0.053 13.122261072768406 8.781006883858105 8.197352925721576 0 0 0
7497 10 3 0.702 14.651928383159637 5.844312553823158 9.13837234524349 0 0 0
7520 10 4 0.053 13.944735083860856 9.45307867684629 8.369926439952469 0 0 0
7500 10 1 0.066 16.558090106994875 4.606400278022513 8.794901358212515 0 0 0
7502 10 4 0.053 16.091802747207296 46.491099615655244 8.7137243251783 0 -1 0
318 1 4 0.053 21.199185176197016 10.206623851571672 47.181053502199084 0 1 -1
291 1 4 0.053 17.714364386635808 6.616692432107087 6.68402232544903 0 1 0
316 1 1 -0.106 20.35129325738928 10.39278123573651 4.933415278365211 0 1 0
306 1 4 0.053 17.858426246382678 9.130748064978757 6.45308733051164 0 1 0
301 1 1 -0.106 19.8964809820374 7.714018399169275 4.814249862366988 0 1 0
294 1 3 0.702 20.09872892979869 5.6759823535053275 6.449105703956168 0 1 0
289 1 1 0 19.366082662687212 6.337682116814301 5.203144421906544 0 1 0
7503 10 4 0.053 17.507850326532022 4.504983643532036 9.262327220049297 0 0 0
290 1 1 -0.159 17.923056153947424 6.254021125691571 5.612137490831429 0 1 0
298 1 4 0.053 22.406128319894318 5.3467613533029255 8.098304280519942 0 1 0
307 1 4 0.053 18.868250125136814 9.977679846040699 7.527120498693111 0 1 0
308 1 4 0.053 18.820765932695068 8.123906738256485 7.495017438176825 0 1 0
296 1 6 -0.396 21.419657245266947 5.754895118999322 6.279144510758648 0 1 0
310 1 5 -0.531 21.16575751244805 9.035781531866471 8.015094630846958 0 1 0
305 1 1 -0.159 18.79594413828017 9.097059523205377 6.907830068158209 0 1 0
304 1 1 0 19.985197142774915 9.01047478130226 5.840286959874905 0 1 0
309 1 3 0.702 21.239398866082986 8.909081659095733 6.752441616307179 0 1 0
311 1 6 -0.396 22.46467540941227 8.586124565029905 6.218278269807499 0 1 0
295 1 5 -0.531 19.647831970245633 5.144355490358622 7.392242215503378 0 1 0
7501 10 4 0.053 16.55479498932354 5.04938563609593 7.753616853784134 0 0 0
292 1 4 0.053 17.53820676751065 5.263186139001628 5.706438760929064 0 1 0
6523 9 1 0.066 26.06115871544158 10.032281137695966 9.695288948206647 0 0 0
6525 9 4 0.053 25.98097313229847 10.375101974516554 8.67580535654536 0 0 0
3591 5 4 0.053 26.680245171738683 10.646793216032492 6.340820673722079 0 0 0
6530 9 1 0 26.996398609121815 47.10570707883363 8.221176736693522 0 -1 0
6532 9 4 0.053 24.754060158777676 46.48859441434277 8.324003066813285 0 -1 0
3586 5 4 0.053 27.474977690585604 7.587874246951404 47.0656976667264 0 0 -1
3589 5 6 -0.396 26.274229006030595 9.940539807692732 4.519971032748972 0 0 0
315 1 4 0.053 24.59995112857146 8.336050544677263 6.143057167898624 0 1 0
6533 9 4 0.053 25.423238051673465 4.856064888749682 9.574840632268034 0 0 0
6534 9 4 0.053 25.133641113496722 5.2679195685452544 7.811619618810163 0 0 0
313 1 4 0.053 23.90648094118805 9.303154727495443 7.651642849264958 0 1 0
312 1 1 0.066 23.655099843724056 8.48080768475597 6.89013915960502 0 1 0
314 1 4 0.053 23.685249940153888 7.5721576771615 7.471887453322793 0 1 0
3577 5 4 0.053 24.129155579756517 4.47707794206032 45.631397898555505 0 0 -1
6522 9 6 -0.396 26.97747601462216 8.946875450657181 9.737366600245112 0 0 0
6527 9 1 -0.106 27.928756361458888 5.557360381442184 8.104364299046887 0 0 0
6521 9 5 -0.531 25.804512191959947 7.692482391328291 8.305810014485258 0 0 0
6520 9 3 0.702 26.800341186608758 7.834795614365429 8.993116836178029 0 0 0
6531 9 1 -0.159 25.471135410396702 4.501049815195381 8.50098483320192 0 0 0
6502 9 4 0.053 27.83308669051287 8.404827718773166 6.537431255154628 0 0 0
6484 9 4 0.053 33.43365754086375 10.360955899960988 8.681838857021487 0 0 0
6485 9 1 0 31.961850352141955 9.975260195237134 6.994487489097352 0 0 0
6511 9 4 0.053 31.309504572802698 5.952458532987228 46.8154949891476 0 0 -1
6529 9 4 0.053 27.696999814933783 6.010148211658063 7.042399867108539 0 0 0
6515 9 1 0 27.95824913170854 6.805682420197929 9.138774084329809 0 0 0
6503 9 4 0.053 28.55425516675348 9.89769914814352 6.907911021196261 0 0 0
6508 9 1 0.066 30.43065534703831 5.638296111340777 4.542372072751769 0 0 0
6643 9 1 0.066 35.30947797411298 7.779936752859074 10.912903630991059 0 0 0
6501 9 1 -0.159 28.767398695270174 8.835589341000194 6.620028583233151 0 0 0
6645 9 4 0.053 35.67559282367852 6.759205087356067 10.558636741451732 0 0 0
6528 9 4 0.053 28.990311936153187 5.060295942471836 8.066347106279807 0 0 0
6509 9 4 0.053 30.747015326748052 4.764306124965585 5.155996608018855 0 0 0
6504 9 4 0.053 29.19382359557114 9.067803275764797 5.598819750030666 0 0 0
6514 9 4 0.053 29.341929672839758 8.405266957315128 9.429363802817077 0 0 0
6487 9 4 0.053 32.49755160557639 8.661611178028357 5.287192035813048 0 0 0
6486 9 1 -0.159 32.967994783959625 9.09006555905179 6.151341135154002 0 0 0
6499 9 4 0.053 30.57888522766327 9.726306316040429 8.602083102934635 0 0 0
6489 9 4 0.053 33.402140708881774 8.268754657718954 6.722646826887717 0 0 0
6512 9 1 -0.106 29.267054029279524 7.509173384055428 8.814635540693683 0 0 0
6506 9 5 -0.531 31.259148975598414 6.1084198054554175 7.050876108002956 0 0 0
6500 9 1 0 29.79341648876852 8.139624390848258 7.446196415141092 0 0 0
6505 9 3 0.702 30.488214627803085 6.906420170634776 6.612688888358675 0 0 0
6513 9 4 0.053 30.04449070898649 6.837141067703954 9.24393808469631 0 0 0
6507 9 6 -0.396 30.03945425476115 6.871559798352173 5.332587462607078 0 0 0
6497 9 1 -0.106 31.0458255976741 9.056988133441482 7.8894211987632685 0 0 0
6498 9 4 0.053 31.780037398564396 8.43961449875044 8.578241813074516 0 0 0
6644 9 4 0.053 34.79218347221973 8.334250394163938 10.026286299180427 0 0 0
6389 9 4 0.053 36.49278560809267 6.853713889671155 7.813724301234399 0 0 0
6397 9 4 0.053 39.39709874628027 9.670636980657171 9.311611967388998 0 0 0
6388 9 1 0.066 37.14633207398023 7.688032295583538 7.48318476884928 0 0 0
6398 9 4 0.053 40.06594553770697 9.56026280476245 7.825501277650103 0 0 0
6380 9 1 0 40.73136076341472 6.661441910703399 8.634503436705343 0 0 0
6391 9 4 0.053 37.10233505494626 8.739260487684952 7.865729786613106 0 0 0
6395 9 1 0 41.59290226797894 9.358777369760212 9.346808915492 0 0 0
6379 9 4 0.053 41.54834568404345 5.5412836277814845 10.350065057302578 0 0 0
6392 9 1 -0.106 41.49483339783073 7.784472907331379 9.477453929764922 0 0 0
6393 9 4 0.053 41.01252077647672 7.646504943638455 10.393899862948958 0 0 0
6377 9 1 -0.106 41.24938347679882 5.4245564628635865 9.304981978021985 0 0 0
6646 9 4 0.053 36.264484886631124 8.2923247798484 11.071280505682525 0 0 0
3683 5 4 0.053 33.954503501058184 5.767481289103453 5.879173586903128 0 0 0
6396 9 1 -0.159 40.25584552696023 9.9722009613525 8.79204391350251 0 0 0
6387 9 6 -0.396 38.56802556702067 7.261769217668334 7.682745839305638 0 0 0
6390 9 4 0.053 37.265718043485094 7.737976471362196 6.351552381416811 0 0 0
6385 9 3 0.702 39.185978274457966 7.041724900560099 8.82419650065091 0 0 0
6369 9 4 0.053 39.677716535051 46.8050871992596 7.230275339695207 0 -1 0
6386 9 5 -0.531 38.67833818511203 7.031433234020367 9.923668792167577 0 0 0
6382 9 4 0.053 40.78311422720833 7.530506459632166 6.693568801662562 0 0 0
6402 9 6 -0.396 43.74648839554979 10.554493675477648 8.683923868989412 0 0 0
6405 9 4 0.053 44.6270045069984 10.297328584144687 6.8125159536584485 0 0 0
6400 9 3 0.702 42.79371241106185 9.67155983022623 8.369047397661008 0 0 0
6394 9 4 0.053 42.531581362922 7.481556651546337 9.712683847800538 0 0 0
662 1 4 0.053 46.43570957501507 6.129517588368165 7.942476895280301 -1 1 0
6384 9 4 0.053 40.75665512321638 5.6574946448065555 6.670854462417538 0 0 0
661 1 1 -0.106 47.22215218627189 5.863744186319421 8.731655701071181 -1 1 0
653 1 4 0.053 5.171462515628214 6.601842329868619 5.787670634156657 0 1 0
6378 9 4 0.053 42.105287219792174 5.315776905617388 8.767014908225466 0 0 0
668 1 4 0.053 44.62923676010281 5.379240660229908 9.666271082148057 -1 1 0
648 1 4 0.053 4.537634617980505 8.28543958354403 7.904196747813589 0 1 0
6353 9 4 0.053 43.80071663139173 47.057577534474994 7.457474336019219 0 -1 0
6381 9 1 -0.159 41.126052052254934 6.5542899756698 7.194295751623953 0 0 0
6383 9 4 0.053 42.22374467665731 6.473945997039595 6.989353305344036 0 0 0
6352 9 4 0.053 42.04326391223703 46.97824374866767 6.738065329526256 0 -1 0
670 1 5 -0.531 45.209418596085406 8.01573168143018 9.382423007361227 -1 1 0
663 1 4 0.053 47.212315435783964 4.697548156588029 8.689089026319651 -1 1 0
767 2 4 0.053 42.10611662960241 11.139008113750043 5.391503977210959 0 0 1
643 1 4 0.053 46.88826573305495 9.082127719438075 46.50166286148805 -1 1 -1
612 1 1 0.066 8.676327224666995 16.1598631515944 6.405968710784341 0 1 0
617 1 4 0.053 4.9326576962445525 12.748075849597663 7.6462339755243205 0 1 0
615 1 4 0.053 8.044224124970492 17.04417205729014 5.9581373262363755 0 1 0
613 1 4 0.053 9.695816625871426 16.47321822139332 6.697829026373109 0 1 0
590 1 1 -0.159 4.908665826405563 17.27676607509837 7.962542760216662 0 1 0
614 1 4 0.053 8.848555531885946 15.303110456469575 5.702249891219296 0 1 0
592 1 4 0.053 4.6221105539743625 17.124002650184245 6.951825325745266 0 1 0
610 1 5 -0.531 6.327657663025963 14.920665892062146 6.349993986578529 0 1 0
618 1 4 0.053 5.568843928791539 12.526778541608861 9.363791656211168 0 1 0
616 1 1 -0.106 5.918064974160119 12.918907660113367 8.363321500557594 0 1 0
604 1 1 0 6.15244213779995 14.372798688063664 8.666288396491389 0 1 0
605 1 1 -0.159 6.970363014267819 14.597791638195366 10.079214911564103 0 1 0
609 1 3 0.702 6.847455003095451 14.95756059034731 7.482188753254923 0 1 0
606 1 4 0.053 7.253153342074331 15.60324530341848 10.436293230865218 0 1 0
611 1 6 -0.396 8.130552434549546 15.473435657253884 7.605056865849535 0 1 0
625 1 5 -0.531 8.292297832991897 12.44441072858369 5.74415681697212 0 1 0
619 1 1 0 6.925953909268605 11.842553268372491 7.721167242028803 0 1 0
624 1 3 0.702 7.231581283316572 12.147805734998126 6.179965823508921 0 1 0
620 1 1 -0.159 8.382494593462532 11.77721381305178 8.393022230816172 0 1 0
626 1 6 -0.396 6.0218544521745985 12.090710686596005 5.489033814771231 0 1 0
622 1 4 0.053 8.724001759167965 12.807174620473365 8.334472851961273 0 1 0
608 1 4 0.053 7.895145020814782 14.121322761074945 10.060491708189527 0 1 0
621 1 4 0.053 8.445854500886313 11.446816238362612 9.456711619635945 0 1 0
607 1 4 0.053 6.423039885826248 14.105479879243449 10.916899090679856 0 1 0
623 1 4 0.053 9.009002208092848 11.043090070538746 7.802003694778638 0 1 0
5111 7 4 0.053 11.18600623647129 16.198473326588925 9.337848820659762 0 0 0
360 1 4 0.053 15.020181788259253 17.14718911352939 8.79395140273193 0 1 0
378 1 4 0.053 10.663969526047552 13.067967538966714 4.939150084578062 0 1 0
5112 7 4 0.053 11.925248416768813 17.81417914517014 9.268983846612521 0 0 0
367 1 4 0.053 11.2756950054185 15.169539583472991 6.4373935450904565 0 1 0
358 1 4 0.053 15.772564672671159 15.590210202442577 9.556870597461785 0 1 0
366 1 4 0.053 12.844739983952941 15.585061457042999 6.632311752220232 0 1 0
357 1 1 0.066 15.897028609576202 16.49687907409551 8.714975456592526 0 1 0
368 1 4 0.053 12.09869559055883 13.885701363148378 7.114356407088186 0 1 0
349 1 1 0 15.37355489634766 14.527717429375823 5.784753235856624 0 1 0
365 1 1 -0.159 12.254802241276263 14.7474157951508 6.471826624596458 0 1 0
361 1 1 -0.106 14.180539874008232 13.6055019980236 5.258502509574039 0 1 0
5110 7 4 0.053 12.962144395221472 16.192519154331556 9.314781315316774 0 0 0
355 1 5 -0.531 14.399636161953492 14.31833381067971 8.012718006136287 0 1 0
356 1 6 -0.396 16.033435032861192 15.904998603490121 7.464814675996589 0 1 0
354 1 3 0.702 15.173907612291622 14.800443822872428 7.2744132641525265 0 1 0
362 1 4 0.053 14.185763534045071 12.56622070753689 5.640379961346374 0 1 0
377 1 4 0.053 11.60119607967367 12.124170599216164 5.739357941097014 0 1 0
350 1 1 -0.159 15.561098964906172 15.646652184631018 4.770848082235756 0 1 0
348 1 4 0.053 16.2671589102982 12.605500473430228 6.296065401538476 0 1 0
364 1 1 0 12.70962409308801 14.006696762926161 5.1460381250993334 0 1 0
351 1 4 0.053 14.674895097756263 16.279830229928542 4.610350057372805 0 1 0
376 1 1 -0.106 11.80663392788344 12.740153367393196 4.853368765541251 0 1 0
352 1 4 0.053 16.408660859145762 16.22964586245454 4.88738177437596 0 1 0
1518 3 4 0.053 22.46173313327147 16.141270800688602 8.943293204652356 0 0 1
347 1 4 0.053 16.438303330230507 12.953373119465738 4.684981929267947 0 1 0
1517 3 4 0.053 21.581729023661875 15.060615107913456 7.75111639459172 0 0 1
346 1 1 -0.106 16.632652840389138 13.37217198956889 5.682570306600841 0 1 0
1516 3 1 0.066 22.3755088956754 15.79333595467983 7.925745633110387 0 0 1
5427 8 4 0.053 21.054461063988654 10.879321264103357 10.323539093565124 0 0 0
335 1 1 -0.159 18.882045010315057 14.7508651516265 5.279122881647455 0 1 0
338 1 4 0.053 18.63738109649823 15.72443477549425 5.673948311844013 0 1 0
345 1 4 0.053 18.567189087977802 15.573692457597746 9.584407410712139 0 1 0
340 1 5 -0.531 17.693179169225356 13.13241041853778 8.51403633731394 0 1 0
343 1 4 0.053 20.07290849849432 15.962228440684195 8.859508286456556 0 1 0
341 1 6 -0.396 19.06596883179064 14.626740154718002 7.830763659583149 0 1 0
344 1 4 0.053 19.885608642518896 14.463911005003359 9.71080905488647 0 1 0
336 1 4 0.053 19.949728257546376 14.656688819756056 5.2637776575492765 0 1 0
342 1 1 0.066 19.346668918359125 15.145937654426017 9.049071722272567 0 1 0
339 1 3 0.702 18.2213307727121 13.649102115398508 7.593032184040436 0 1 0
320 1 1 -0.159 20.98186799372688 12.09607607817898 6.789111087329598 0 1 0
334 1 1 0 18.17690510999722 13.495228899685925 5.924101820200192 0 1 0
321 1 4 0.053 21.301139964994853 13.198571693678693 6.95971818771019 0 1 0
319 1 1 0 20.36107903213575 11.871489736044271 5.448862399065028 0 1 0
331 1 1 -0.106 18.849844446002123 12.097416890278229 5.445764595967039 0 1 0
332 1 4 0.053 18.351301357454325 11.315649295619865 5.993792525153407 0 1 0
323 1 4 0.053 21.936359913753293 11.543578972118143 6.679758681865134 0 1 0
322 1 4 0.053 20.39522483847938 11.775481145620185 7.638816293666919 0 1 0
324 1 3 0.702 21.082392027989048 12.821324432261436 47.10212127030687 0 1 -1
337 1 4 0.053 18.549287799579513 14.896885824798861 47.100419502432814 0 1 -1
325 1 5 -0.531 21.855026409508557 13.705395407861236 4.5211835550345 0 1 0
1515 3 6 -0.396 23.620509267362756 15.274959443176064 7.510182933390649 0 0 1
1520 3 1 -0.106 25.80292401374984 14.703739544187698 5.661289872611497 0 0 1
1505 3 1 -0.159 27.41345007679604 15.824622493376783 7.540565707482543 0 0 1
1508 3 1 0 26.018926790084738 15.071122935197451 7.188734673680473 0 0 1
1506 3 4 0.053 27.64064294019128 16.727708527661406 6.986731771302682 0 0 1
1511 3 4 0.053 25.048386718111207 13.01359407547696 7.707636595437721 0 0 1
1513 3 3 0.702 24.78765028526154 15.845564224678574 7.768466529610788 0 0 1
1512 3 4 0.053 26.894409238911855 13.142013484499476 7.927248335614764 0 0 1
1509 3 1 -0.159 25.91435599916994 13.689173428111266 7.990951989719921 0 0 1
2255 3 4 0.053 28.23763506811377 15.101738778265553 7.535565804162355 0 0 1
1507 3 4 0.053 27.334548768563398 16.051855616122616 8.56830877738346 0 0 1
1521 3 4 0.053 26.549952490976903 13.95553276988226 5.432581348851481 0 0 1
1510 3 4 0.053 25.856524326582917 13.911559810990573 9.064130188975161 0 0 1
1522 3 4 0.053 24.832895117978858 14.289374016628532 5.613131015465322 0 0 1
3593 5 4 0.053 26.830864326678093 11.815136202481515 4.976686066995447 0 0 0
3590 5 1 0.066 26.27492079073887 11.019235573598024 5.430481893697343 0 0 0
2939 4 4 0.053 27.347980261983942 15.403908852987367 11.431483587292007 0 0 0
3592 5 4 0.053 25.279739219012537 11.487153586310857 5.578560164115182 0 0 0
2937 4 4 0.053 27.335693469878603 13.992979672477018 12.50363814271919 0 0 0
2936 4 1 -0.159 27.53271795966982 15.013453536266972 12.443779077431412 0 0 0
6475 9 3 0.702 32.89707387042281 13.291584038645658 6.891683656822716 0 0 0
6483 9 4 0.053 32.09302529860756 11.386367750776898 8.738369100044036 0 0 0
6493 9 1 0.066 29.417976759491925 12.77432573330639 6.423381450404343 0 0 0
6496 9 4 0.053 29.444221204374994 12.666420276517321 5.338445566955625 0 0 0
6495 9 4 0.053 29.61460314854863 13.783083099152815 6.699816083279899 0 0 0
6477 9 6 -0.396 32.63162569683698 13.26824936045811 5.611101896049358 0 0 0
6474 9 4 0.053 34.09383538228231 11.499199207248138 5.393925897910311 0 0 0
6482 9 1 -0.106 32.84207137884401 11.014857593383166 7.988843615802072 0 0 0
2923 4 4 0.053 29.768112510248912 15.833993004552934 10.022007991734657 0 0 0
6490 9 3 0.702 30.950454050768023 10.885405281740198 6.226134695406075 0 0 0
6491 9 5 -0.531 30.61291409077862 10.733996192045176 5.1240353248456545 0 0 0
6469 9 4 0.053 33.423863645547655 12.995338057406304 9.359805806320523 0 0 0
6458 9 4 0.053 33.91946221058816 15.28790941262844 9.108565647340004 0 0 0
6476 9 5 -0.531 32.40636982556947 14.167453554756305 7.546322193185201 0 0 0
6470 9 1 0 33.83143118941575 12.190181307086105 7.4586389366343315 0 0 0
6492 9 6 -0.396 30.380130874472943 11.818088774332754 6.986858587983559 0 0 0
2944 4 4 0.053 30.40521660130967 12.815316342561289 9.509278933161319 0 0 0
6494 9 4 0.053 28.39003492472539 12.539804693237565 6.767317940420416 0 0 0
2941 4 5 -0.531 30.961988789048746 13.660041458981464 12.27670152658066 0 0 0
6457 9 4 0.053 35.10171159385435 15.182172226592577 7.811536839841433 0 0 0
6468 9 4 0.053 34.59713597080851 11.719771746275448 9.496773497694539 0 0 0
6471 9 1 -0.159 34.763491160154004 11.739303056983129 6.340246447817232 0 0 0
6467 9 1 -0.106 34.35416440807599 12.592465455339156 8.958248201574934 0 0 0
6456 9 1 -0.159 34.959965396590164 15.160128863821505 8.902246495670123 0 0 0
6473 9 4 0.053 35.28115056259441 10.750009698948094 6.496292244299762 0 0 0
6472 9 4 0.053 35.46913785316788 12.43680423115591 5.947485696514562 0 0 0
6459 9 4 0.053 35.62077802026125 16.05615898732486 9.196909922622467 0 0 0
6455 9 1 0 35.53244365113695 13.702804214067532 9.218175384854183 0 0 0
6466 9 4 0.053 39.12398063368279 14.018845032213683 7.9942598748979234 0 0 0
6462 9 6 -0.396 37.20856775637836 14.053405325427283 7.554616342274408 0 0 0
6461 9 5 -0.531 37.231122698630294 12.023714671576665 8.691934552649897 0 0 0
6464 9 4 0.053 38.72274951492658 14.85117353172668 6.355870656220391 0 0 0
6460 9 3 0.702 36.76846451623825 13.09103903883477 8.426544970209708 0 0 0
6463 9 1 0.066 38.51214463857393 13.948457803692849 7.04536118962322 0 0 0
6465 9 4 0.053 38.859792011882476 12.994733452317035 6.602675202324965 0 0 0
6399 9 4 0.053 40.24842327979089 10.999859840876479 8.679733864017168 0 0 0
6439 9 4 0.053 38.736707674902604 13.024771684785378 10.129858252419075 0 0 0
6446 9 5 -0.531 37.853458434631456 15.68536255707933 9.715276597758995 0 0 0
6452 9 1 -0.106 35.99442699934675 13.638477511368793 10.754794626140074 0 0 0
6423 9 4 0.053 40.65162957851683 12.245397881413846 10.366578393742222 0 0 0
6445 9 3 0.702 37.57395915001707 15.587636453655673 10.841556290498069 0 0 0
6401 9 5 -0.531 42.827172192424996 8.98985262446135 7.367553238033185 0 0 0
6454 9 4 0.053 35.12439341433877 14.122980458053979 11.338798283349405 0 0 0
6438 9 4 0.053 38.07476090642814 12.262998488854556 11.56423735038542 0 0 0
6453 9 4 0.053 35.900598886007636 12.574011698168752 10.96126627001171 0 0 0
6440 9 1 0 37.368007902577894 14.164481226297038 11.456275154904148 0 0 0
766 2 4 0.053 40.645025217127085 11.867273138831614 6.0310553528347075 0 0 1
6403 9 1 0.066 44.57616723000522 10.981178277030708 7.681898954022599 0 0 0
6404 9 4 0.053 44.309807957985846 12.003257150407972 7.329772217656287 0 0 0
588 1 4 0.053 45.21193582275873 15.732296718985047 7.746201738413473 -1 1 0
587 1 4 0.053 45.079350510823176 15.603069428773162 9.503392872747401 -1 1 0