LAMMPS data file via write_data, version 22 Jul 2025, timestep = 300000, units = real

4020 atoms
6 atom types
4010 bonds
7 bond types
7600 angles
12 angle types
9570 dihedrals
14 dihedral types
4800 impropers
11 improper types

1.4676482596139735 40.85681098038941 xlo xhi
1.4676482596139735 40.85681098038941 ylo yhi
1.4676482596139735 40.85681098038941 zlo zhi

Masses

1 12.01115
2 12.01115
3 1.00797
4 1.00797
5 32.064
6 32.064

Pair Coeffs # lj/class2/coul/long/gpu

1 0.054 4.01
2 0.054 4.01
3 0.02 2.995
4 0.02 2.995
5 0.071 4.027
6 0.071 4.027

Bond Coeffs # class2

1 1.53 299.67 -501.77 679.81
2 1.101 345 -691.89 844.6
3 1.823 225.277 -327.706 488.972
4 1.101 345 -691.89 844.6
5 1.823 225.277 -327.706 488.972
6 1.823 225.277 -327.706 488.972
7 1.3261 275.112 -531.318 562.963

Angle Coeffs # class2

1 112.67 39.516 -7.443 -9.5583
2 110.77 41.453 -10.604 5.129
3 112.564 47.0276 -10.679 -10.1687
4 112.564 47.0276 -10.679 -10.1687
5 97.5 57.6938 -5.0559 -11.8206
6 110.77 41.453 -10.604 5.129
7 112.564 47.0276 -10.679 -10.1687
8 96.8479 56.7336 14.2713 0
9 107.66 39.641 -12.921 -2.4318
10 107.852 51.4949 -13.527 7.026
11 107.852 51.4949 -13.527 7.026
12 107.852 51.4949 -13.527 7.026

BondBond Coeffs

1 0 1.53 1.53
2 3.3872 1.53 1.101
3 10.9186 1.53 1.823
4 10.9186 1.53 1.823
5 -22.3144 1.823 1.823
6 3.3872 1.53 1.101
7 10.9186 1.53 1.823
8 -0.57 1.823 1.3261
9 5.3316 1.101 1.101
10 7.0463 1.101 1.823
11 7.0463 1.101 1.823
12 7.0463 1.101 1.823

BondAngle Coeffs

1 8.016 8.016 1.53 1.53
2 20.754 11.421 1.53 1.101
3 -3.5621 22.3865 1.53 1.823
4 -3.5621 22.3865 1.53 1.823
5 -13.0015 -13.0015 1.823 1.823
6 20.754 11.421 1.53 1.101
7 -3.5621 22.3865 1.53 1.823
8 10.7325 5.1221 1.823 1.3261
9 18.103 18.103 1.101 1.101
10 9.3225 44.9874 1.101 1.823
11 9.3225 44.9874 1.101 1.823
12 9.3225 44.9874 1.101 1.823

Dihedral Coeffs # class2

1 0 0 0.0316 0 -0.1681 0
2 -0.7017 0 0.0201 0 0.104 0
3 -0.4871 0 -0.4514 0 -0.1428 0
4 -0.5073 0 0.0155 0 -0.0671 0
5 -0.3338 0 -0.0684 0 -0.1706 0
6 -0.5073 0 0.0155 0 -0.0671 0
7 -0.3338 0 -0.0684 0 -0.1706 0
8 -0.1432 0 0.0617 0 -0.1083 0
9 -0.2078 0 -0.106 0 -0.3595 0
10 -0.2078 0 -0.106 0 -0.3595 0
11 -0.2078 0 -0.106 0 -0.3595 0
12 -0.5374 0 -0.5091 0 -0.1361 0
13 -1.2002 0 -1.2999 0 -0.1626 0
14 -1.2002 0 -1.2999 0 -0.1626 0

AngleAngleTorsion Coeffs

1 -16.164 112.67 110.77
2 -26.71 112.67 112.564
3 -28.1728 112.564 96.8479
4 -32.8949 112.564 97.5
5 -26.49 97.5 107.852
6 -32.8949 112.564 97.5
7 -26.49 97.5 107.852
8 -12.564 110.77 110.77
9 -13.1026 110.77 112.564
10 -13.1026 110.77 112.564
11 -13.1026 110.77 112.564
12 -18.6334 107.852 96.8479
13 -13.9674 112.564 112.564
14 -13.9674 112.564 112.564

EndBondTorsion Coeffs

1 0.2486 0.2422 -0.0925 0.0814 0.0591 0.2219 1.53 1.101
2 -0.1586 -0.7244 -0.2608 -0.7991 -0.959 0.5855 1.53 1.823
3 0.1026 0.0936 -0.0404 -0.3008 0.0606 0.4501 1.53 1.3261
4 -0.2542 -0.7984 -0.6525 -0.3047 -0.0109 -0.3763 1.53 1.823
5 0.2592 -0.0166 0.1306 -0.41 0.0668 0.4187 1.823 1.101
6 -0.2542 -0.7984 -0.6525 -0.3047 -0.0109 -0.3763 1.53 1.823
7 0.2592 -0.0166 0.1306 -0.41 0.0668 0.4187 1.823 1.101
8 0.213 0.312 0.0777 0.213 0.312 0.0777 1.101 1.101
9 -0.1526 -0.371 0.1048 1.0661 0.3298 0.425 1.101 1.823
10 -0.1526 -0.371 0.1048 1.0661 0.3298 0.425 1.101 1.823
11 -0.1526 -0.371 0.1048 1.0661 0.3298 0.425 1.101 1.823
12 0.4376 0.2001 -1.0696 0.2902 0.0695 0.1726 1.101 1.3261
13 -0.3252 0.5008 0.5191 -0.3252 0.5008 0.5191 1.823 1.823
14 -0.3252 0.5008 0.5191 -0.3252 0.5008 0.5191 1.823 1.823

MiddleBondTorsion Coeffs

1 -14.879 -3.6581 -0.3138 1.53
2 -4.2593 -5.6468 -3.3835 1.53
3 0.502 -1.0204 -0.9177 1.823
4 -2.5172 -2.0107 -2.8547 1.823
5 -0.6955 -2.9427 -1.2372 1.823
6 -2.5172 -2.0107 -2.8547 1.823
7 -0.6955 -2.9427 -1.2372 1.823
8 -14.261 -0.5322 -0.4864 1.53
9 -5.7537 -2.0104 0.2813 1.53
10 -5.7537 -2.0104 0.2813 1.53
11 -5.7537 -2.0104 0.2813 1.53
12 -0.3729 0.5373 -0.7035 1.823
13 1.7001 -3.3479 -0.8067 1.53
14 1.7001 -3.3479 -0.8067 1.53

BondBond13 Coeffs

1 0 1.53 1.101
2 0 1.53 1.823
3 0 1.53 1.3261
4 0 1.53 1.823
5 0 1.823 1.101
6 0 1.53 1.823
7 0 1.823 1.101
8 0 1.101 1.101
9 0 1.101 1.823
10 0 1.101 1.823
11 0 1.101 1.823
12 0 1.101 1.3261
13 0 1.823 1.823
14 0 1.823 1.823

AngleTorsion Coeffs

1 -0.2454 0 -0.1136 0.3113 0.4516 -0.1988 112.67 110.77
2 -2.0927 -0.1498 -1.7848 1.1179 0.3638 0.9423 112.67 112.564
3 -0.6045 3.8941 0.8885 1.0193 -0.6016 0.2097 112.564 96.8479
4 5.1289 2.0927 -2.4004 -4.5489 0.0886 0.6237 112.564 97.5
5 -1.0888 -0.2 -0.0909 0.5962 3.3479 0.2265 97.5 107.852
6 5.1289 2.0927 -2.4004 -4.5489 0.0886 0.6237 112.564 97.5
7 -1.0888 -0.2 -0.0909 0.5962 3.3479 0.2265 97.5 107.852
8 -0.8085 0.5569 -0.2466 -0.8085 0.5569 -0.2466 110.77 110.77
9 -2.0382 0.2102 -0.9023 0.3322 -0.0519 -0.3553 110.77 112.564
10 -2.0382 0.2102 -0.9023 0.3322 -0.0519 -0.3553 110.77 112.564
11 -2.0382 0.2102 -0.9023 0.3322 -0.0519 -0.3553 110.77 112.564
12 -2.2533 2.6948 -0.1723 1.434 -0.1915 -0.2611 107.852 96.8479
13 -5.0565 -0.6355 0.6015 -5.0565 -0.6355 0.6015 112.564 112.564
14 -5.0565 -0.6355 0.6015 -5.0565 -0.6355 0.6015 112.564 112.564

Improper Coeffs # class2

1 0 0
2 0 0
3 0 0
4 0 0
5 0 0
6 0 0
7 0 0
8 0 0
9 0 0
10 0 0
11 0 0

AngleAngle Coeffs

1 0.2738 -0.4825 0.2738 110.77 110.77 107.66
2 2.7985 -3.0031 -0.0668 110.77 112.564 107.852
3 -0.3157 -0.3157 -0.3157 107.66 107.66 107.66
4 0.5086 0.5086 -0.064 107.66 107.852 107.852
5 -1.3199 -1.3199 0.1184 112.67 110.77 110.77
6 -0.2564 -0.2564 -0.8766 112.67 112.564 112.564
7 -0.2564 -0.2564 -0.8766 112.67 112.564 112.564
8 2.7985 -3.0031 -0.0668 110.77 112.564 107.852
9 2.7985 -3.0031 -0.0668 110.77 112.564 107.852
10 -0.0668 -3.0031 2.7985 112.564 110.77 107.852
11 -0.0668 -3.0031 2.7985 112.564 110.77 107.852

Atoms # full

3833 10 3 0.053 5.256233920209285 7.111495831498444 4.140271607711075 1 1 1
3840 10 3 0.053 3.92022348560561 3.8874883981354014 4.873572567560785 1 1 1
3832 10 2 0.012 4.528546412467261 6.952020313941774 3.1609568680212963 1 1 1
3839 10 1 -0.041 4.569755011512541 4.61230373989487 4.408940548792134 1 1 1
3841 10 3 0.053 4.621016248392368 5.4801351687868225 5.036760577434431 1 1 1
3835 10 3 0.053 6.1485140212794 6.6907912444606135 1.664654097068239 1 1 1
3838 10 6 -0.13 3.893333662903327 5.3808734417354 2.9304594902838232 1 1 1
3844 10 1 -0.159 6.559164034760776 3.033346247133707 5.241556080420748 1 1 1
3846 10 3 0.053 6.232459842545422 2.92755486952852 6.258454822033271 1 1 1
3842 10 2 0.012 5.887698879950077 3.8517119260007977 4.053479162430626 1 1 1
3843 10 3 0.053 5.4572044511836495 3.2797892771192623 3.262996559081517 1 1 1
3848 10 6 -0.13 7.179824741264816 5.043662066845601 3.423240034365403 1 1 1
3847 10 3 0.053 6.567308875071448 1.933406116702881 4.839350802748624 1 1 1
3215 8 3 0.053 12.660508705852857 7.099604143279299 5.374116449947675 0 0 1
3845 10 3 0.053 7.570810904078038 3.1197599501469306 5.352557409483568 1 1 1
2816 8 3 0.053 11.729275621386567 5.858234338976236 4.31068250237521 0 0 1
2815 8 1 -0.159 12.646425949781563 6.527140930572704 4.462843182344262 0 0 1
3849 10 1 -0.041 8.379042494587788 3.9735462770586274 2.608706246509344 1 1 1
3850 10 3 0.053 8.402648278927671 3.0980228071601728 3.252084093754782 1 1 1
1886 5 3 0.053 10.227650742947525 7.216127455789954 3.588968775057449 1 1 0
3851 10 3 0.053 9.37395512101185 4.527400213773459 2.4428804075732264 1 1 1
3856 10 3 0.053 9.661004751301743 2.038519037691307 1.549335954086055 1 1 1
2818 8 2 0.012 13.960499648042877 5.965987304063571 4.168419892020483 0 0 1
2822 8 3 0.053 15.920679452627192 6.777571024303056 4.095066851783024 0 0 1
2820 8 1 -0.159 14.926901710820124 7.127463940844677 4.231804976379928 0 0 1
2827 8 3 0.053 16.1022152574091 4.056755245364593 3.973341129195214 0 0 1
2819 8 3 0.053 13.99247244065381 5.365283957445513 3.2116184322689767 0 0 1
2825 8 1 -0.041 15.972683159235796 4.25531697611974 5.063963314007234 0 0 1
2826 8 3 0.053 16.769673942444268 5.058519332832946 5.26994566086819 0 0 1
2824 8 6 -0.13 14.322219014678005 4.74488819400134 5.560335707259734 0 0 1
2830 8 1 -0.159 18.232122113694103 2.89952170263017 5.616414395836561 0 0 1
1399 4 3 0.053 16.812273136799092 3.694205864167333 1.544183583354531 0 0 0
2831 8 3 0.053 18.667557495463868 2.4367316724369594 4.716731838436996 0 0 1
2829 8 3 0.053 16.304628611324894 3.003262411665083 6.840625475877912 0 0 1
2828 8 2 0.012 16.52652090787757 3.0600296135439295 5.771078701256353 0 0 1
2832 8 3 0.053 18.423998496669604 2.207718988257392 6.5700636550988705 0 0 1
2837 8 3 0.053 16.469916941829837 1.9029531036050389 3.248589389926715 0 0 1
2834 8 6 -0.13 15.642543450472706 1.496044587959377 5.420541380243463 0 0 1
1387 4 1 -0.041 20.546965982552372 5.489472758158363 2.299194774286801 0 0 0
2833 8 3 0.053 18.74972725491472 3.786327927293499 5.692592503067536 0 0 1
1389 4 3 0.053 20.19638571055837 4.484016863419342 2.60903891296617 0 0 0
1386 4 6 -0.13 19.959844364425994 6.359889681413539 3.834185754669728 0 0 0
3834 10 1 -0.159 5.240936857679097 7.337236608830422 1.84889088077449 1 1 1
3829 10 1 -0.041 3.4466389566033513 8.090343833408102 3.0803881506584156 1 1 1
3830 10 3 0.053 3.0496680277142487 8.399618147630488 2.0892501315360885 1 1 1
3828 10 6 -0.13 1.8586667847949874 7.8442573885858895 3.896470926415846 1 1 1
3824 10 1 -0.159 1.6371494263499233 10.704070177769255 3.2593019260352944 1 1 1
3836 10 3 0.053 5.666898002870114 8.329506975131462 2.1561795622434485 1 1 1
727 2 3 0.053 4.863520336010623 11.323051467529663 6.09326704493877 -1 -1 0
726 2 2 0.012 5.383138107531453 12.362750985530731 5.974645420791053 -1 -1 0
732 2 6 -0.13 6.3459874936775424 12.256096965361738 4.418858675248835 -1 -1 0
3823 10 3 0.053 2.2451004302246584 9.743828267187695 5.186237786067217 1 1 1
3831 10 3 0.053 4.0580410016184745 9.001325453626208 3.4295191606295754 1 1 1
3827 10 3 0.053 2.730814189657208 10.556543987023337 2.8100734204921762 1 1 1
741 2 3 0.053 6.002747952266839 12.57423816581501 2.107449382245856 -1 -1 0
2817 8 3 0.053 12.413587131141904 7.337634255074491 3.716449699212724 0 0 1
1887 5 3 0.053 8.966634170486358 8.157853785860354 2.3164432454119184 1 1 0
1884 5 1 -0.159 10.020106050961564 7.969696645214096 2.739946320623127 1 1 0
1881 5 3 0.053 10.598706616663296 9.197284762996091 4.975486595211546 1 1 0
1880 5 3 0.053 9.55404861823735 10.431006962763526 4.396383460674817 1 1 0
1879 5 1 -0.041 10.58554535829003 9.962895775986121 4.248078299766325 1 1 0
1882 5 2 0.012 10.727321402616374 9.330246411441617 2.8487098010240635 1 1 0
1878 5 6 -0.13 11.666078975511052 11.350401397174124 4.752239791641133 1 1 0
1869 5 1 -0.041 12.534151173059618 9.71275335111142 6.776043627946337 1 1 0
1872 5 2 0.012 11.734095736440633 11.056733543984544 6.616483142446878 1 1 0
1873 5 3 0.053 10.683340988091263 10.71914828446363 6.738435819703551 1 1 0
1871 5 3 0.053 12.747202068166633 9.133721506206445 5.886987115932419 1 1 0
1885 5 3 0.053 10.591497853192337 7.615195448908138 1.8195122816765403 1 1 0
1888 5 6 -0.13 9.723558131903262 10.410868233458647 1.5399976561673447 1 1 0
1883 5 3 0.053 11.740555201288673 9.215562482845886 2.3750507754927903 1 1 0
2823 8 3 0.053 14.717729343274035 8.077538127516156 3.6475157847988253 0 0 1
1384 4 3 0.053 17.804728521555262 9.193918759271021 4.238179095804384 0 0 0
1383 4 3 0.053 17.59700414700737 7.879333590672004 3.244047167401458 0 0 0
2821 8 3 0.053 14.859648038730192 7.7413545779420545 5.261153359385164 0 0 1
1382 4 1 -0.159 18.225687009162545 8.640256323858262 3.3346344669452934 0 0 0
1385 4 3 0.053 18.151568891178734 9.313489658018987 2.446522528414921 0 0 0
1356 4 6 -0.13 17.28917501735596 12.035944091292155 6.270359926957086 0 0 0
1361 4 3 0.053 17.37733608541935 12.507505199863362 3.671796450149696 0 0 0
1344 4 3 0.053 17.810146527142443 8.751141950632501 6.2168403110280055 0 0 0
1342 4 1 -0.159 17.99814045553448 7.9357529711123345 6.899350533022437 0 0 0
1345 4 3 0.053 17.35553775096082 7.247819683854452 6.3319523204750086 0 0 0
1343 4 3 0.053 18.979795660928993 7.389822167171207 6.802780628977349 0 0 0
1380 4 2 0.012 19.70020790417148 8.223296375765845 3.6120339022456522 0 0 0
1381 4 3 0.053 20.00480410635521 8.341027881093014 4.639990422913481 0 0 0
1367 4 1 -0.041 19.980260681337253 11.88826919369434 3.1078452259220852 0 0 0
1368 4 3 0.053 19.115276906525313 11.324648030829396 3.5519765376292387 0 0 0
1369 4 3 0.053 20.62826590475966 11.717042466092533 4.037602874955997 0 0 0
1370 4 2 0.012 20.55158418077431 11.457916291458012 1.7080734771686341 0 0 0
1377 4 1 -0.041 20.877913110430338 8.744158889440179 2.806002503503357 0 0 0
738 2 1 -0.159 6.127669511901374 13.728441288827986 1.956221102931767 -1 -1 0
728 2 1 -0.159 4.269690867769274 13.447094568185026 5.784764445494052 -1 -1 0
731 2 3 0.053 3.7772488669682347 13.584311303252031 6.78026710174519 -1 -1 0
739 2 3 0.053 5.160366266199767 14.152629327398753 2.230425881567198 -1 -1 0
730 2 3 0.053 3.300921995652582 13.438647861253772 5.050725381789075 -1 -1 0
734 2 3 0.053 6.696713638658106 14.524145586259179 4.93078309673326 -1 -1 0
729 2 3 0.053 4.595023549305498 14.456334864472332 5.466184638795754 -1 -1 0
743 2 1 -0.041 7.001370279044237 16.869691284413573 2.2069750759996714 -1 -1 0
747 2 3 0.053 5.687347156466281 16.29228661755721 3.900632901899841 -1 -1 0
751 2 3 0.053 4.242195704731628 17.23136222076885 2.0452879886605286 -1 -1 0
746 2 2 0.012 6.069355905685499 17.12517756987984 3.332328053482433 -1 -1 0
750 2 3 0.053 5.110650113786443 18.688380201761163 2.2632670412199234 -1 -1 0
748 2 1 -0.159 4.826036893758779 17.795236305024584 2.834497892670308 -1 -1 0
749 2 3 0.053 4.102454788974692 18.100263734061375 3.611185593904607 -1 -1 0
752 2 6 -0.13 6.788331727575018 18.02976189504297 4.681447842746675 -1 -1 0
745 2 3 0.053 7.358833164016699 17.800423016351864 1.8293388484348494 -1 -1 0
737 2 3 0.053 8.100789570489484 13.401393632200259 2.511053680096727 -1 -1 0
736 2 2 0.012 7.372018609230045 14.199359051054742 2.8741074869879126 -1 -1 0
733 2 1 -0.041 7.248110127068703 13.789705552000166 4.321867012170721 -1 -1 0
1875 5 3 0.053 11.823526727267911 13.31631998301886 6.884105032609834 1 1 0
1893 5 3 0.053 10.54294851034137 13.217747943419896 1.6842874088879556 1 1 0
735 2 3 0.053 8.261103089897437 13.580335221373481 4.76666527305481 -1 -1 0
742 2 6 -0.13 8.356060023936838 15.725529317430293 2.6780817445104566 -1 -1 0
711 2 3 0.053 8.460886089451769 15.663232516463204 6.493715441434333 -1 -1 0
710 2 3 0.053 9.796062141604274 16.94349201300013 6.093176734566213 -1 -1 0
708 2 1 -0.159 9.52054555651545 16.16918457766908 6.89348626361025 -1 -1 0
709 2 3 0.053 10.498723522671286 15.615389841712839 6.751795152399381 -1 -1 0
1357 4 1 -0.041 18.20717926264867 13.434430148845815 5.5575947578764735 0 0 0
1358 4 3 0.053 17.943160929336216 14.271780063338543 6.23508508590978 0 0 0
1360 4 2 0.012 17.93674769494599 13.412795641203537 4.044485146880388 0 0 0
1362 4 1 -0.159 16.839371129815394 14.49058313815598 3.7554642430355356 0 0 0
1365 4 3 0.053 15.97338312746867 14.284220588717465 4.449374006269725 0 0 0
1363 4 3 0.053 16.581423007636147 14.414805900054366 2.7014533040522326 0 0 0
1364 4 3 0.053 17.110680475892373 15.603414424098098 3.925318770382478 0 0 0
790 2 3 0.053 14.142440562805598 18.074411175552115 5.416151810925285 -1 -1 0
1359 4 3 0.053 19.303400572012823 13.417473026478497 5.787517459125226 0 0 0
1366 4 6 -0.13 19.506431096329244 13.60017726668521 3.2355456456060865 0 0 0
1268 4 3 0.053 19.915360876294038 17.955964814933917 6.396625768453913 0 0 0
1269 4 3 0.053 19.909302920398964 16.255542806872093 6.423328306496475 0 0 0
1267 4 1 -0.041 20.135053890706107 17.09801968778789 7.061068218672294 0 0 0
756 2 2 0.012 6.6678171627761085 20.695267999045093 3.55970988064544 -1 -1 0
757 2 3 0.053 6.490430103714111 20.240768248048028 2.5868584895825144 -1 -1 0
753 2 1 -0.041 6.245092422443819 19.774204185897712 4.720843696372693 -1 -1 0
754 2 3 0.053 5.2213113896617305 19.708307276418893 4.853191102657944 -1 -1 0
755 2 3 0.053 6.713663470398989 20.09700705543357 5.648162129872233 -1 -1 0
1938 5 6 -0.13 1.8860973134231145 19.67661885255386 2.0134624683308444 1 1 0
2048 6 3 0.053 1.5319537424381657 19.82976287962663 6.1716044760217725 1 1 0
785 2 3 0.053 12.186619558681633 20.090049924227813 3.7340386880910095 -1 -1 0
792 2 6 -0.13 12.555854948412676 20.244448942475266 6.710482767712842 -1 -1 0
762 2 6 -0.13 8.542142746353377 21.13060131436875 3.5552689107300273 -1 -1 0
1143 3 3 0.053 17.973865345787456 19.719975037537186 2.764674421291751 0 -1 0
791 2 3 0.053 15.034713301825917 18.987133848522078 4.312577761998918 -1 -1 0
789 2 3 0.053 15.407713484502695 19.338668372219075 5.887136387593765 -1 -1 0
788 2 1 -0.159 14.59343019183245 19.063595031322482 5.252546472447934 -1 -1 0
782 2 6 -0.13 14.234358362798792 20.729224380654568 2.6254381397559046 -1 -1 0
783 2 1 -0.041 12.975834430263507 20.78561991457133 3.9614821074068503 -1 -1 0
786 2 2 0.012 13.650006960062884 20.324948618767912 5.27636646670269 -1 -1 0
1261 4 3 0.053 17.586085846190855 18.824333332384995 7.183243431268701 0 0 0
787 2 3 0.053 14.48598064451724 21.126918942353246 5.510577788906838 -1 -1 0
1142 3 3 0.053 19.586285785965572 19.464320191239782 3.49360365931556 0 -1 0
1141 3 3 0.053 19.373198223700093 19.242019357764978 1.7180350875077783 0 -1 0
1140 3 1 -0.159 19.063345061649727 19.886349896161672 2.6141931109518866 0 -1 0
1802 5 2 0.012 2.2808219332555355 6.91845343679052 8.816842097623221 1 1 0
1806 5 3 0.053 3.343806249215322 5.0863729543698675 8.12528154194862 1 1 0
1804 5 1 -0.159 2.84525716465984 5.538970379622166 8.97488104685777 1 1 0
1805 5 3 0.053 3.596803866776078 5.5523919000620126 9.769351347321948 1 1 0
1818 5 6 -0.13 6.045074935175638 5.522471291409413 10.492898994344063 1 1 0
1817 5 3 0.053 5.8957381826064275 6.019688606396734 7.825081757548406 1 1 0
1812 5 2 0.012 6.138921265105962 7.075532730010173 9.603209809636448 1 1 0
1814 5 1 -0.159 6.644380368484313 6.671282772435752 8.18927855738369 1 1 0
1820 5 3 0.053 5.241247376860914 6.655033241052563 12.590182345480786 1 1 0
1819 5 1 -0.041 6.128983755295496 6.047939046117961 12.197223990415747 1 1 0
1821 5 3 0.053 6.872582584019405 6.756305947520133 12.384944154841087 1 1 0
1807 5 3 0.053 2.0257239199216714 4.801070049656384 9.487520339472315 1 1 0
1715 5 3 0.053 1.7662811196966333 3.080331966869543 8.322691610616756 1 1 0
1815 5 3 0.053 7.598165451091151 6.074136459159577 8.224051818736136 1 1 0
1850 5 3 0.053 11.682595121844503 6.561510460532195 12.94834624725966 1 1 0
1828 5 6 -0.13 7.852091983585139 3.8663346545999278 12.856152558490747 1 1 0
1831 5 3 0.053 9.987351206293072 4.176366680526549 12.721127472894592 1 1 0
1830 5 3 0.053 9.432898152936268 5.792647335868444 12.951830120154181 1 1 0
1855 5 3 0.053 14.558579837184148 6.604479699238246 10.256061938318775 1 1 0
1856 5 3 0.053 14.374248404342213 5.569951254656836 11.86738492031438 1 1 0
1338 4 3 0.053 17.12234210893206 6.283022226447268 8.643510985739857 0 0 0
1337 4 1 -0.041 17.568298616479936 7.095273760092878 9.152840399026992 0 0 0
1339 4 3 0.053 18.671517864676943 6.825424371441598 9.379322162047552 0 0 0
1335 4 3 0.053 16.337805185526324 4.507321324689254 11.594842885264637 0 0 0
1334 4 3 0.053 17.85740909246958 4.551795284850181 10.52538565652855 0 0 0
1333 4 3 0.053 17.915635793321684 4.072139662390589 12.412687084971216 0 0 0
1332 4 1 -0.159 17.468729453477575 4.775373913801189 11.594113206806401 0 0 0
1330 4 2 0.012 18.04961182223478 6.157114190876684 11.830391421552312 0 0 0
1857 5 3 0.053 13.138711410608765 5.544306412323763 10.643278264569489 1 1 0
1854 5 1 -0.159 13.841522066619545 6.258528186411917 11.093849681086345 1 1 0
1331 4 3 0.053 19.163791179522967 6.125636324875264 11.487717611839464 0 0 0
1318 4 3 0.053 20.96298547056108 6.0870107968491105 12.634593811314065 0 0 0
1816 5 3 0.053 6.87789773148439 7.350942785567593 7.321302088779184 1 1 0
1811 5 3 0.053 5.2331502609567835 9.100700297392994 9.656850932844923 1 1 0
724 2 3 0.053 6.351220523835134 11.277501073547505 7.43445220901384 -1 -1 0
723 2 1 -0.041 6.068444797173383 12.318668651246387 7.3669323420994814 -1 -1 0
1808 5 6 -0.13 3.6525729705429004 8.023531988465564 8.259504436237027 1 1 0
1813 5 3 0.053 7.068598812654875 7.607550704281585 10.113895286639803 1 1 0
1810 5 3 0.053 4.368019180839261 7.902016367196005 10.468324622784401 1 1 0
1809 5 1 -0.041 4.955303393902308 8.048711638485214 9.616424731544102 1 1 0
725 2 3 0.053 5.203473756592725 12.461204618452065 8.040059633810127 -1 -1 0
721 2 3 0.053 7.062050326064923 11.87365440959207 11.042667689143682 -1 -1 0
1800 5 3 0.053 2.3802785056821802 7.36775028583259 10.865315835133025 1 1 0
1799 5 1 -0.041 1.5506359006851052 7.415762641400628 10.147862956343378 1 1 0
1868 5 6 -0.13 11.647002587615939 8.281394062083624 7.544636803676209 1 1 0
1874 5 1 -0.159 12.151860804192076 12.271755713993684 7.2903362300899115 1 1 0
1865 5 3 0.053 8.897400143896146 9.08689211609771 8.130423375407947 1 1 0
1876 5 3 0.053 11.813891079554933 12.276031529894881 8.348473961630164 1 1 0
718 2 1 -0.159 7.497959372416859 12.95956827605504 10.958028871173704 -1 -1 0
719 2 3 0.053 8.545577109511434 12.754698731570828 10.788832950682208 -1 -1 0
1851 5 3 0.053 11.07967855285825 7.416539198512327 11.783980437093499 1 1 0
1849 5 1 -0.041 11.917893589378506 7.502942604965727 12.454918300495542 1 1 0
1863 5 3 0.053 10.743538167165584 7.94599806191488 9.695358929949855 1 1 0
1862 5 2 0.012 10.842034039485386 8.807378795179378 9.068522371383086 1 1 0
1867 5 3 0.053 9.591791880654771 10.638338196376564 8.88174774063665 1 1 0
1864 5 1 -0.159 9.483148655495288 9.485807393522876 8.962358077240744 1 1 0
1866 5 3 0.053 8.902180801550983 9.342824354775598 9.857848318898258 1 1 0
1859 5 1 -0.041 11.646234519472337 9.596592508200722 10.199495822173212 1 1 0
1861 5 3 0.053 10.89540253431533 9.450837475582533 11.099423670986935 1 1 0
1860 5 3 0.053 11.766405193802692 10.638433634062991 9.964673867741242 1 1 0
1870 5 3 0.053 13.631042402941624 9.72819967745263 7.337488138097289 1 1 0
1877 5 3 0.053 13.321373687011372 12.183923210453257 7.228543845288468 1 1 0
1351 4 3 0.053 18.543592688629214 12.630485901872346 8.281895397233646 0 0 0
1336 4 6 -0.13 16.974216874782726 7.218521807732437 10.871597339419472 0 0 0
1852 5 2 0.012 13.330427555753138 7.547055767232946 11.687064723212734 1 1 0
1853 5 3 0.053 14.020035258878377 7.560775962882425 12.584468144569373 1 1 0
1858 5 6 -0.13 13.483825881795346 9.010990013440745 10.712108043082418 1 1 0
1350 4 2 0.012 17.518568215354623 12.303308946199481 8.129600480946422 0 0 0
1346 4 6 -0.13 18.617640858005498 9.7257271176004 8.99190683194379 0 0 0
1340 4 2 0.012 17.593756263158085 8.397605829950955 8.279298987885142 0 0 0
1347 4 1 -0.041 17.378749620914032 11.073187852548294 9.072178790553824 0 0 0
1348 4 3 0.053 16.33852515468503 10.583846585346576 9.061644543930068 0 0 0
1349 4 3 0.053 17.31379613188716 11.55381189190958 10.070680936743624 0 0 0
1341 4 3 0.053 16.588064872184752 8.86798130493618 8.107742532966181 0 0 0
1353 4 3 0.053 15.375319950345299 12.901725402953304 8.419913635204452 0 0 0
1316 4 6 -0.13 20.85607103029152 7.668609777367667 10.658286928200996 0 0 0
2139 6 3 0.053 19.482704597238865 12.621268569427299 11.23242818560801 0 1 0
2136 6 1 -0.159 20.470809991738168 12.82174105644877 10.839247193103192 0 1 0
2137 6 3 0.053 21.09285613016537 11.812894798588564 10.719031728212935 0 1 0
717 2 3 0.053 5.846804559100404 13.57277088957507 9.766948603445623 -1 -1 0
716 2 2 0.012 6.889024005194878 13.786128099036443 9.795687526337781 -1 -1 0
715 2 3 0.053 6.640836086371523 15.836870568189177 10.55880020753127 -1 -1 0
714 2 3 0.053 6.58086690176828 15.814963402509658 8.808115919927449 -1 -1 0
713 2 1 -0.041 7.057680918360516 15.305640302382292 9.671696526316655 -1 -1 0
2032 6 3 0.053 4.379817237173087 18.432110287199475 11.153651830998031 1 1 0
2050 6 6 -0.13 1.7558767772413508 17.359920524418996 9.035151652718246 1 1 0
2028 6 3 0.053 7.097185987644993 17.856373743293794 12.722102149924002 1 1 0
2058 6 3 0.053 2.4343096813784086 14.99903230685653 10.708697729501152 1 1 0
2059 6 3 0.053 1.6773774678946494 15.572868268971408 12.117615946282818 1 1 0
722 2 6 -0.13 7.628288518451897 13.049718889446169 8.233262421456157 -1 -1 0
704 2 3 0.053 9.065692052691098 18.638880946885493 7.257420903273011 -1 -1 0
720 2 3 0.053 7.252884933011086 13.517027364261907 11.929013584573198 -1 -1 0
712 2 6 -0.13 8.941712059586166 15.708911998442412 9.68420752068176 -1 -1 0
705 2 3 0.053 7.424669538516351 17.759792068201673 7.4927107112615605 -1 -1 0
703 2 1 -0.041 8.368608526979221 18.15585145092177 7.937636180064258 -1 -1 0
707 2 3 0.053 10.28861308446502 17.226064958208674 8.659582541612039 -1 -1 0
706 2 2 0.012 9.353851194654276 16.868422362066063 8.249584531433154 -1 -1 0
1255 4 3 0.053 12.696298494541654 16.433134762268168 9.771776960017078 0 0 0
699 2 3 0.053 10.796676130426198 18.392122513198178 10.56176415615842 -1 -1 0
700 2 3 0.053 9.542886813349968 18.51693625046141 11.628041535158243 -1 -1 0
1352 4 1 -0.159 16.46209425126009 13.309888322450853 8.490436053764727 0 0 0
1354 4 3 0.053 16.48300927879166 13.588524130381213 9.631262187432382 0 0 0
1355 4 3 0.053 16.46211862053 14.356070011748654 8.23488701417251 0 0 0
1254 4 3 0.053 13.532210219896992 15.21305654721607 8.930340417131465 0 0 0
1256 4 6 -0.13 15.211665136926554 17.465347793254274 8.606905314164479 0 0 0
1257 4 1 -0.041 16.730602491476688 18.438805359345277 9.250571105998917 0 0 0
1247 4 1 -0.041 14.206457863549144 17.748077505433606 11.164966390201059 0 0 0
1253 4 3 0.053 13.515821808885983 15.082563135857209 10.618840017827086 0 0 0
1250 4 2 0.012 14.748347376967216 16.773917395072 10.174791052617563 0 0 0
1251 4 3 0.053 15.614556408962489 16.241799207769887 10.646319088881562 0 0 0
1252 4 1 -0.159 13.576344406481622 15.820067922608661 9.763210682727394 0 0 0
1259 4 3 0.053 17.17548738898637 17.88689459399732 10.19540175128047 0 0 0
1260 4 2 0.012 17.89057853723914 18.547796446189583 8.287192468595219 0 0 0
1248 4 3 0.053 13.064927659961093 17.792981732027823 11.271987782026859 0 0 0
1246 4 6 -0.13 14.906525281399603 17.278427521359735 12.816349247745698 0 0 0
2138 6 3 0.053 20.57239730249679 13.347915898405642 9.91598066929711 0 1 0
1266 4 6 -0.13 18.884139107472343 17.026485341794878 8.393881394208503 0 0 0
2140 6 6 -0.13 20.338185472277942 14.873631092982603 12.813299714244879 0 1 0
2044 6 2 0.012 1.9157214941292637 19.02211745777755 8.31120958498225 1 1 0
2036 6 1 -0.159 2.210687612577369 21.002438070254232 12.440010435899847 1 1 0
2042 6 3 0.053 1.5529726350725526 21.101384314826635 8.173695992951568 1 1 0
2045 6 3 0.053 2.9959693400385987 19.05378174427519 8.111172782603262 1 1 0
2035 6 3 0.053 2.2841069584845624 19.13842867490483 11.194106470555461 1 1 0
2040 6 6 -0.13 3.1729004680561 20.78279299588472 9.77695899377394 1 1 0
2031 6 1 -0.041 4.213345553938291 19.28351654275955 11.939160351040444 1 1 0
2034 6 2 0.012 2.874004045233735 20.05405036314616 11.439642589042128 1 1 0
2033 6 3 0.053 5.018987028186 20.075403806745825 11.890063324071217 1 1 0
2041 6 1 -0.041 1.6693374671610717 20.358834436093886 8.958080192531959 1 1 0
697 2 3 0.053 9.945808360933903 20.245217929297375 9.1564667739269 -1 -1 0
698 2 1 -0.159 10.149503518032644 19.146651941637916 11.052552527669087 -1 -1 0
702 2 6 -0.13 7.783122872640637 19.116364263983044 9.414266270708447 -1 -1 0
696 2 2 0.012 9.303852963167095 20.03003553056695 10.155881143169173 -1 -1 0
701 2 3 0.053 10.924084061314908 19.683553931604003 11.706751956763503 -1 -1 0
1249 4 3 0.053 14.39290814134089 18.750447097401146 10.961276882036191 0 0 0
1258 4 3 0.053 16.465053975594298 19.373497189789877 9.637533034219743 0 0 0
1263 4 3 0.053 18.485577189530527 20.733641204303762 8.37231714380065 0 0 0
3294 9 3 0.053 17.845136453937798 20.658475175597502 12.199151383088585 0 1 0
1236 4 6 -0.13 14.293640595687242 20.710015037249136 12.90532190251699 0 0 0
1264 4 3 0.053 19.892717513757475 19.52023702506822 8.568835283290973 0 0 0
1262 4 1 -0.159 18.86960024571654 19.67467436220653 8.79411381570771 0 0 0
1265 4 3 0.053 18.849172064909105 19.674850820049492 9.91715123249823 0 0 0
1683 5 3 0.053 2.7020213414120695 1.648410532481741 16.435769317042748 1 1 0
1823 5 3 0.053 5.5087392651397105 4.143234438819145 13.014862113710693 1 1 0
1826 5 3 0.053 7.162622828194474 5.381868028747016 15.117075999758587 1 1 0
1822 5 2 0.012 6.335510334968815 4.832411676484899 13.136825580219892 1 1 0
1690 5 3 0.053 1.7548886562204555 5.011601759237365 14.773005324525467 1 1 0
1684 5 1 -0.159 4.466239035690816 2.8028813494403186 17.16063347158246 1 1 0
1682 5 2 0.012 3.6521704078087036 2.08479617478622 16.075616181010545 1 1 0
1686 5 3 0.053 3.91193022411883 3.713189449891842 17.618571121213495 1 1 0
1688 5 6 -0.13 3.294423056633323 3.1476467781470463 14.58132732234832 1 1 0
1685 5 3 0.053 5.307154843928609 3.293338463270172 16.655030472499057 1 1 0
1825 5 3 0.053 5.95382753625814 4.304794376406335 15.184262571174221 1 1 0
1824 5 1 -0.159 6.215056596842984 5.2077849523699005 14.722199847052206 1 1 0
1827 5 3 0.053 5.464987568121503 6.006494384298544 15.19290731219111 1 1 0
1689 5 1 -0.041 1.6337780253901175 3.9537880634051925 15.051873366495485 1 1 0
1687 5 3 0.053 4.8620451214376 2.192891987599756 17.93797839878542 1 1 0
1691 5 3 0.053 1.6645984574972807 4.071818573938296 16.11644405219847 1 1 0
1671 5 3 0.053 6.798009603408844 1.5064488077460543 13.306084744217927 1 1 0
1837 5 3 0.053 10.4346182474273 3.3556221544446183 16.350073535575604 1 1 0
1031 3 3 0.053 8.538541032567862 6.891430179518903 18.686158280703776 0 0 0
1833 5 3 0.053 9.271139925734769 5.385505142809743 15.36544700961086 1 1 0
1835 5 3 0.053 10.043127372600546 2.496631391191416 14.800607864793049 1 1 0
1834 5 1 -0.159 9.74417774580608 3.3471355679177996 15.453744762635939 1 1 0
1836 5 3 0.053 8.765286688799545 2.8905215752597435 15.914081750789533 1 1 0
1832 5 2 0.012 9.857542245069723 4.72163749278946 14.881643510956888 1 1 0