units real
atom_style full
boundary p p p

# --- Force Field Styles ---
pair_style lj/class2/coul/long 9.5 9.5
kspace_style pppm 1e-6
dielectric 1.000000
bond_style class2
angle_style class2
dihedral_style class2
improper_style class2
special_bonds lj/coul 0 0 1
pair_modify mix sixthpower tail yes
neighbor 2.0 bin
neigh_modify delay 0 every 1 check yes
neigh_modify one 4000
package gpu 1 neigh no

read_data /home/alexzhao/PolyJarvis/data/PROPSULFIDE_CURATED/lammps/equil/minimize/minimize_out.data
Reading data file ...
  orthogonal box = (0 0 0) to (42.324459 42.324459 42.324459)
  2 by 2 by 2 MPI processor grid
  reading atoms ...
  4020 atoms
  reading velocities ...
  4020 velocities
  scanning bonds ...
  4 = max bonds/atom
  scanning angles ...
  6 = max angles/atom
  scanning dihedrals ...
  11 = max dihedrals/atom
  scanning impropers ...
  4 = max impropers/atom
  orthogonal box = (0 0 0) to (42.324459 42.324459 42.324459)
  2 by 2 by 2 MPI processor grid
  reading bonds ...
  4010 bonds
  reading angles ...
  7600 angles
  reading dihedrals ...
  9570 dihedrals
  reading impropers ...
  4800 impropers
Finding 1-2 1-3 1-4 neighbors ...
  special bond factors lj:    0        0        1       
  special bond factors coul:  0        0        1       
     4 = max # of 1-2 neighbors
     7 = max # of 1-3 neighbors
    11 = max # of special neighbors
  special bonds CPU = 0.000 seconds
  read_data CPU = 0.097 seconds
include /home/alexzhao/PolyJarvis/data/PROPSULFIDE_CURATED/lammps/build/emc_build.params
# LAMMPS parameters created by EMC v9.4.4, build Jul 31 2025 20:33:44

# Variables

variable	seed		index	1001
variable	ntotal		index	4020
variable	fshape		index	1
variable	output		index	emc_build
variable	field		index	pcff/pcff
variable	location1	index	~/emc/field/
variable	nav		index	0.6022141179
variable	temperature	index	300
variable	radius		index	5
variable	nrelax		index	100
variable	weight_nonbond	index	0.0001
variable	weight_bond	index	0.0001
variable	weight_focus	index	1
variable	cutoff		index	9.5
variable	charge_cutoff	index	9.5
variable	kappa		index	4
variable	density1	index	0.65
variable	lprevious	index	0
variable	lphase		index	42.3244592443
variable	f_poly		index	10
variable	chem_repeat	index	*CC(C)S*
variable	chem_cap	index	*[H]
variable	lg_repeat	index	10
variable	lg_cap		index	1
variable	norm_poly	index	100
variable	l_poly		index	402
variable	mg_repeat	index	30.07012
variable	mg_cap		index	0
variable	m_poly		index	1202.8048
variable	n_poly		index	10
variable	mtotal		index	29678.2674
variable	nphase1		index	4020
variable	mphase1		index	29678.2674
variable	vphase1		index	75818.3369767
variable	lbox		index	42.3244592443
variable	lphase1		index	42.3244592443
variable	lxx		index	42.3244592443
variable	lyy		index	42.3244592443
variable	lzz		index	42.3244592443
variable	lzy		index	0
variable	lzx		index	0
variable	lyx		index	0
variable	vtotal		index	75818.3369767
variable	nl_poly		index	10

# Types

variable	type_c		index	1
variable	type_c1		index	2
variable	type_hc		index	3
variable	type_hs		index	4
variable	type_s		index	5
variable	type_sc		index	6

variable	type_bond_c_c1	index	1
variable	type_bond_c_hc	index	2
variable	type_bond_c_sc	index	3
variable	type_bond_c1_hc	index	4
variable	type_bond_c1_s	index	5
variable	type_bond_c1_sc	index	6
variable	type_bond_hs_s	index	7

variable	type_angle_c_c1_c index	1
variable	type_angle_c_c1_hc index	2
variable	type_angle_c_c1_s index	3
variable	type_angle_c_c1_sc index	4
variable	type_angle_c_sc_c1 index	5
variable	type_angle_c1_c_hc index	6
variable	type_angle_c1_c_sc index	7
variable	type_angle_c1_s_hs index	8
variable	type_angle_hc_c_hc index	9
variable	type_angle_hc_c_sc index	10
variable	type_angle_hc_c1_s index	11
variable	type_angle_hc_c1_sc index	12

# Clusters

variable	n0_poly		index	1
variable	n1_poly		index	10
variable	nl_poly		index	10

# Flags

variable	flag_charged	index	1

# Masses

mass		1    12.01115  # c
mass		2    12.01115  # c1
mass		3     1.00797  # hc
mass		4     1.00797  # hs
mass		5    32.06400  # s
mass		6    32.06400  # sc

# Potentials

pair_modify	mix sixthpower tail yes
special_bonds	lj/coul 0 0 1

# Pair Coeffs

pair_coeff	 1  1    0.05400    4.01000  # c,c
pair_coeff	 2  2    0.05400    4.01000  # c1,c1
pair_coeff	 3  3    0.02000    2.99500  # hc,hc
pair_coeff	 4  4    0.02000    2.99500  # hs,hs
pair_coeff	 5  5    0.07100    4.02700  # s,s
pair_coeff	 6  6    0.07100    4.02700  # sc,sc

# Bond Coeffs

bond_coeff	1    1.53000  299.67000 -501.77000  679.81000  # c,c1
bond_coeff	2    1.10100  345.00000 -691.89000  844.60000  # c,hc
bond_coeff	3    1.82300  225.27680 -327.70570  488.97220  # c,sc
bond_coeff	4    1.10100  345.00000 -691.89000  844.60000  # c1,hc
bond_coeff	5    1.82300  225.27680 -327.70570  488.97220  # c1,s
bond_coeff	6    1.82300  225.27680 -327.70570  488.97220  # c1,sc
bond_coeff	7    1.32610  275.11230 -531.31810  562.96300  # hs,s

# Angle Coeffs

angle_coeff	 1  112.67000   39.51600   -7.44300   -9.55830  # c,c1,c
angle_coeff	 2  110.77000   41.45300  -10.60400    5.12900  # c,c1,hc
angle_coeff	 3  112.56420   47.02760  -10.67900  -10.16870  # c,c1,s
angle_coeff	 4  112.56420   47.02760  -10.67900  -10.16870  # c,c1,sc
angle_coeff	 5   97.50000   57.69380   -5.05590  -11.82060  # c,sc,c1
angle_coeff	 6  110.77000   41.45300  -10.60400    5.12900  # c1,c,hc
angle_coeff	 7  112.56420   47.02760  -10.67900  -10.16870  # c1,c,sc
angle_coeff	 8   96.84790   56.73360   14.27130    0.00000  # c1,s,hs
angle_coeff	 9  107.66000   39.64100  -12.92100   -2.43180  # hc,c,hc
angle_coeff	10  107.85220   51.49490  -13.52700    7.02600  # hc,c,sc
angle_coeff	11  107.85220   51.49490  -13.52700    7.02600  # hc,c1,s
angle_coeff	12  107.85220   51.49490  -13.52700    7.02600  # hc,c1,sc

# BondBond Coeffs

angle_coeff	 1 bb    0.00000    1.53000    1.53000  # c,c1,c
angle_coeff	 2 bb    3.38720    1.53000    1.10100  # c,c1,hc
angle_coeff	 3 bb   10.91860    1.53000    1.82300  # c,c1,s
angle_coeff	 4 bb   10.91860    1.53000    1.82300  # c,c1,sc
angle_coeff	 5 bb  -22.31440    1.82300    1.82300  # c,sc,c1
angle_coeff	 6 bb    3.38720    1.53000    1.10100  # c1,c,hc
angle_coeff	 7 bb   10.91860    1.53000    1.82300  # c1,c,sc
angle_coeff	 8 bb   -0.57000    1.82300    1.32610  # c1,s,hs
angle_coeff	 9 bb    5.33160    1.10100    1.10100  # hc,c,hc
angle_coeff	10 bb    7.04630    1.10100    1.82300  # hc,c,sc
angle_coeff	11 bb    7.04630    1.10100    1.82300  # hc,c1,s
angle_coeff	12 bb    7.04630    1.10100    1.82300  # hc,c1,sc

# BondAngle Coeffs

angle_coeff	 1 ba    8.01600    8.01600    1.53000    1.53000  # c,c1,c
angle_coeff	 2 ba   20.75400   11.42100    1.53000    1.10100  # c,c1,hc
angle_coeff	 3 ba   -3.56210   22.38650    1.53000    1.82300  # c,c1,s
angle_coeff	 4 ba   -3.56210   22.38650    1.53000    1.82300  # c,c1,sc
angle_coeff	 5 ba  -13.00150  -13.00150    1.82300    1.82300  # c,sc,c1
angle_coeff	 6 ba   20.75400   11.42100    1.53000    1.10100  # c1,c,hc
angle_coeff	 7 ba   -3.56210   22.38650    1.53000    1.82300  # c1,c,sc
angle_coeff	 8 ba   10.73250    5.12210    1.82300    1.32610  # c1,s,hs
angle_coeff	 9 ba   18.10300   18.10300    1.10100    1.10100  # hc,c,hc
angle_coeff	10 ba    9.32250   44.98740    1.10100    1.82300  # hc,c,sc
angle_coeff	11 ba    9.32250   44.98740    1.10100    1.82300  # hc,c1,s
angle_coeff	12 ba    9.32250   44.98740    1.10100    1.82300  # hc,c1,sc

# Dihedral Coeffs

dihedral_coeff	 1    0.00000    0.00000    0.03160    0.00000   -0.16810    0.00000  # c,c1,c,hc
dihedral_coeff	 2   -0.70170    0.00000    0.02010    0.00000    0.10400    0.00000  # c,c1,c,sc
dihedral_coeff	 3   -0.48710    0.00000   -0.45140    0.00000   -0.14280    0.00000  # c,c1,s,hs
dihedral_coeff	 4   -0.50730    0.00000    0.01550    0.00000   -0.06710    0.00000  # c,c1,sc,c
dihedral_coeff	 5   -0.33380    0.00000   -0.06840    0.00000   -0.17060    0.00000  # c,sc,c1,hc
dihedral_coeff	 6   -0.50730    0.00000    0.01550    0.00000   -0.06710    0.00000  # c1,c,sc,c1
dihedral_coeff	 7   -0.33380    0.00000   -0.06840    0.00000   -0.17060    0.00000  # c1,sc,c,hc
dihedral_coeff	 8   -0.14320    0.00000    0.06170    0.00000   -0.10830    0.00000  # hc,c,c1,hc
dihedral_coeff	 9   -0.20780    0.00000   -0.10600    0.00000   -0.35950    0.00000  # hc,c,c1,s
dihedral_coeff	10   -0.20780    0.00000   -0.10600    0.00000   -0.35950    0.00000  # hc,c,c1,sc
dihedral_coeff	11   -0.20780    0.00000   -0.10600    0.00000   -0.35950    0.00000  # hc,c1,c,sc
dihedral_coeff	12   -0.53740    0.00000   -0.50910    0.00000   -0.13610    0.00000  # hc,c1,s,hs
dihedral_coeff	13   -1.20020    0.00000   -1.29990    0.00000   -0.16260    0.00000  # s,c1,c,sc
dihedral_coeff	14   -1.20020    0.00000   -1.29990    0.00000   -0.16260    0.00000  # sc,c,c1,sc

# MiddleBondTorsion Coeffs

dihedral_coeff	 1 mbt  -14.87900   -3.65810   -0.31380    1.53000  # c,c1,c,hc
dihedral_coeff	 2 mbt   -4.25930   -5.64680   -3.38350    1.53000  # c,c1,c,sc
dihedral_coeff	 3 mbt    0.50200   -1.02040   -0.91770    1.82300  # c,c1,s,hs
dihedral_coeff	 4 mbt   -2.51720   -2.01070   -2.85470    1.82300  # c,c1,sc,c
dihedral_coeff	 5 mbt   -0.69550   -2.94270   -1.23720    1.82300  # c,sc,c1,hc
dihedral_coeff	 6 mbt   -2.51720   -2.01070   -2.85470    1.82300  # c1,c,sc,c1
dihedral_coeff	 7 mbt   -0.69550   -2.94270   -1.23720    1.82300  # c1,sc,c,hc
dihedral_coeff	 8 mbt  -14.26100   -0.53220   -0.48640    1.53000  # hc,c,c1,hc
dihedral_coeff	 9 mbt   -5.75370   -2.01040    0.28130    1.53000  # hc,c,c1,s
dihedral_coeff	10 mbt   -5.75370   -2.01040    0.28130    1.53000  # hc,c,c1,sc
dihedral_coeff	11 mbt   -5.75370   -2.01040    0.28130    1.53000  # hc,c1,c,sc
dihedral_coeff	12 mbt   -0.37290    0.53730   -0.70350    1.82300  # hc,c1,s,hs
dihedral_coeff	13 mbt    1.70010   -3.34790   -0.80670    1.53000  # s,c1,c,sc
dihedral_coeff	14 mbt    1.70010   -3.34790   -0.80670    1.53000  # sc,c,c1,sc

# EndBondTorsion Coeffs

dihedral_coeff	 1 ebt    0.24860    0.24220   -0.09250    0.08140    0.05910    0.22190    1.53000    1.10100  # c,c1,c,hc
dihedral_coeff	 2 ebt   -0.15860   -0.72440   -0.26080   -0.79910   -0.95900    0.58550    1.53000    1.82300  # c,c1,c,sc
dihedral_coeff	 3 ebt    0.10260    0.09360   -0.04040   -0.30080    0.06060    0.45010    1.53000    1.32610  # c,c1,s,hs
dihedral_coeff	 4 ebt   -0.25420   -0.79840   -0.65250   -0.30470   -0.01090   -0.37630    1.53000    1.82300  # c,c1,sc,c
dihedral_coeff	 5 ebt    0.25920   -0.01660    0.13060   -0.41000    0.06680    0.41870    1.82300    1.10100  # c,sc,c1,hc
dihedral_coeff	 6 ebt   -0.25420   -0.79840   -0.65250   -0.30470   -0.01090   -0.37630    1.53000    1.82300  # c1,c,sc,c1
dihedral_coeff	 7 ebt    0.25920   -0.01660    0.13060   -0.41000    0.06680    0.41870    1.82300    1.10100  # c1,sc,c,hc
dihedral_coeff	 8 ebt    0.21300    0.31200    0.07770    0.21300    0.31200    0.07770    1.10100    1.10100  # hc,c,c1,hc
dihedral_coeff	 9 ebt   -0.15260   -0.37100    0.10480    1.06610    0.32980    0.42500    1.10100    1.82300  # hc,c,c1,s
dihedral_coeff	10 ebt   -0.15260   -0.37100    0.10480    1.06610    0.32980    0.42500    1.10100    1.82300  # hc,c,c1,sc
dihedral_coeff	11 ebt   -0.15260   -0.37100    0.10480    1.06610    0.32980    0.42500    1.10100    1.82300  # hc,c1,c,sc
dihedral_coeff	12 ebt    0.43760    0.20010   -1.06960    0.29020    0.06950    0.17260    1.10100    1.32610  # hc,c1,s,hs
dihedral_coeff	13 ebt   -0.32520    0.50080    0.51910   -0.32520    0.50080    0.51910    1.82300    1.82300  # s,c1,c,sc
dihedral_coeff	14 ebt   -0.32520    0.50080    0.51910   -0.32520    0.50080    0.51910    1.82300    1.82300  # sc,c,c1,sc

# AngleTorsion Coeffs

dihedral_coeff	 1 at   -0.24540    0.00000   -0.11360    0.31130    0.45160   -0.19880  112.67000  110.77000  # c,c1,c,hc
dihedral_coeff	 2 at   -2.09270   -0.14980   -1.78480    1.11790    0.36380    0.94230  112.67000  112.56420  # c,c1,c,sc
dihedral_coeff	 3 at   -0.60450    3.89410    0.88850    1.01930   -0.60160    0.20970  112.56420   96.84790  # c,c1,s,hs
dihedral_coeff	 4 at    5.12890    2.09270   -2.40040   -4.54890    0.08860    0.62370  112.56420   97.50000  # c,c1,sc,c
dihedral_coeff	 5 at   -1.08880   -0.20000   -0.09090    0.59620    3.34790    0.22650   97.50000  107.85220  # c,sc,c1,hc
dihedral_coeff	 6 at    5.12890    2.09270   -2.40040   -4.54890    0.08860    0.62370  112.56420   97.50000  # c1,c,sc,c1
dihedral_coeff	 7 at   -1.08880   -0.20000   -0.09090    0.59620    3.34790    0.22650   97.50000  107.85220  # c1,sc,c,hc
dihedral_coeff	 8 at   -0.80850    0.55690   -0.24660   -0.80850    0.55690   -0.24660  110.77000  110.77000  # hc,c,c1,hc
dihedral_coeff	 9 at   -2.03820    0.21020   -0.90230    0.33220   -0.05190   -0.35530  110.77000  112.56420  # hc,c,c1,s
dihedral_coeff	10 at   -2.03820    0.21020   -0.90230    0.33220   -0.05190   -0.35530  110.77000  112.56420  # hc,c,c1,sc
dihedral_coeff	11 at   -2.03820    0.21020   -0.90230    0.33220   -0.05190   -0.35530  110.77000  112.56420  # hc,c1,c,sc
dihedral_coeff	12 at   -2.25330    2.69480   -0.17230    1.43400   -0.19150   -0.26110  107.85220   96.84790  # hc,c1,s,hs
dihedral_coeff	13 at   -5.05650   -0.63550    0.60150   -5.05650   -0.63550    0.60150  112.56420  112.56420  # s,c1,c,sc
dihedral_coeff	14 at   -5.05650   -0.63550    0.60150   -5.05650   -0.63550    0.60150  112.56420  112.56420  # sc,c,c1,sc

# AngleAngleTorsion Coeffs

dihedral_coeff	 1 aat  -16.16400  112.67000  110.77000  # c,c1,c,hc
dihedral_coeff	 2 aat  -26.71000  112.67000  112.56420  # c,c1,c,sc
dihedral_coeff	 3 aat  -28.17280  112.56420   96.84790  # c,c1,s,hs
dihedral_coeff	 4 aat  -32.89490  112.56420   97.50000  # c,c1,sc,c
dihedral_coeff	 5 aat  -26.49000   97.50000  107.85220  # c,sc,c1,hc
dihedral_coeff	 6 aat  -32.89490  112.56420   97.50000  # c1,c,sc,c1
dihedral_coeff	 7 aat  -26.49000   97.50000  107.85220  # c1,sc,c,hc
dihedral_coeff	 8 aat  -12.56400  110.77000  110.77000  # hc,c,c1,hc
dihedral_coeff	 9 aat  -13.10260  110.77000  112.56420  # hc,c,c1,s
dihedral_coeff	10 aat  -13.10260  110.77000  112.56420  # hc,c,c1,sc
dihedral_coeff	11 aat  -13.10260  110.77000  112.56420  # hc,c1,c,sc
dihedral_coeff	12 aat  -18.63340  107.85220   96.84790  # hc,c1,s,hs
dihedral_coeff	13 aat  -13.96740  112.56420  112.56420  # s,c1,c,sc
dihedral_coeff	14 aat  -13.96740  112.56420  112.56420  # sc,c,c1,sc

# BondBond13 Coeffs

dihedral_coeff	 1 bb13    0.00000    1.53000    1.10100  # c,c1,c,hc
dihedral_coeff	 2 bb13    0.00000    1.53000    1.82300  # c,c1,c,sc
dihedral_coeff	 3 bb13    0.00000    1.53000    1.32610  # c,c1,s,hs
dihedral_coeff	 4 bb13    0.00000    1.53000    1.82300  # c,c1,sc,c
dihedral_coeff	 5 bb13    0.00000    1.82300    1.10100  # c,sc,c1,hc
dihedral_coeff	 6 bb13    0.00000    1.53000    1.82300  # c1,c,sc,c1
dihedral_coeff	 7 bb13    0.00000    1.82300    1.10100  # c1,sc,c,hc
dihedral_coeff	 8 bb13    0.00000    1.10100    1.10100  # hc,c,c1,hc
dihedral_coeff	 9 bb13    0.00000    1.10100    1.82300  # hc,c,c1,s
dihedral_coeff	10 bb13    0.00000    1.10100    1.82300  # hc,c,c1,sc
dihedral_coeff	11 bb13    0.00000    1.10100    1.82300  # hc,c1,c,sc
dihedral_coeff	12 bb13    0.00000    1.10100    1.32610  # hc,c1,s,hs
dihedral_coeff	13 bb13    0.00000    1.82300    1.82300  # s,c1,c,sc
dihedral_coeff	14 bb13    0.00000    1.82300    1.82300  # sc,c,c1,sc

# Improper Coeffs

improper_coeff	 1    0.00000    0.00000  # c,c1,hc,hc
improper_coeff	 2    0.00000    0.00000  # c,c1,hc,sc
improper_coeff	 3    0.00000    0.00000  # c,hc,hc,hc
improper_coeff	 4    0.00000    0.00000  # c,hc,hc,sc
improper_coeff	 5    0.00000    0.00000  # c1,c,c,hc
improper_coeff	 6    0.00000    0.00000  # c1,c,c,s
improper_coeff	 7    0.00000    0.00000  # c1,c,c,sc
improper_coeff	 8    0.00000    0.00000  # c1,c,hc,s
improper_coeff	 9    0.00000    0.00000  # c1,c,hc,sc
improper_coeff	10    0.00000    0.00000  # c1,c,s,hc
improper_coeff	11    0.00000    0.00000  # c1,c,sc,hc

# AngleAngle Coeffs

improper_coeff	 1 aa    0.27380   -0.48250    0.27380  110.77000  110.77000  107.66000  # c,c1,hc,hc
improper_coeff	 2 aa    2.79850   -3.00310   -0.06680  110.77000  112.56420  107.85220  # c,c1,hc,sc
improper_coeff	 3 aa   -0.31570   -0.31570   -0.31570  107.66000  107.66000  107.66000  # c,hc,hc,hc
improper_coeff	 4 aa    0.50860    0.50860   -0.06400  107.66000  107.85220  107.85220  # c,hc,hc,sc
improper_coeff	 5 aa   -1.31990   -1.31990    0.11840  112.67000  110.77000  110.77000  # c1,c,c,hc
improper_coeff	 6 aa   -0.25640   -0.25640   -0.87660  112.67000  112.56420  112.56420  # c1,c,c,s
improper_coeff	 7 aa   -0.25640   -0.25640   -0.87660  112.67000  112.56420  112.56420  # c1,c,c,sc
improper_coeff	 8 aa    2.79850   -3.00310   -0.06680  110.77000  112.56420  107.85220  # c1,c,hc,s
improper_coeff	 9 aa    2.79850   -3.00310   -0.06680  110.77000  112.56420  107.85220  # c1,c,hc,sc
improper_coeff	10 aa   -0.06680   -3.00310    2.79850  112.56420  110.77000  107.85220  # c1,c,s,hc
improper_coeff	11 aa   -0.06680   -3.00310    2.79850  112.56420  110.77000  107.85220  # c1,c,sc,hc


# --- Thermo Output ---
thermo_style custom step time temp press enthalpy etotal ke pe ebond eangle edihed eimp evdwl ecoul elong etail vol lx ly lz density pxx pyy pzz
thermo_modify flush yes
thermo 1000

# --- Trajectory ---
dump dump_nvt all custom 1000 nvt_softheat.dump id type mol x y z ix iy iz vx vy vz

# --- Restart Checkpointing ---
restart 10000 nvt_1.rst nvt_2.rst

# --- Initial Velocities (optional) ---
velocity all create 300.0 1001 mom yes rot yes dist gaussian

# --- SHAKE Constraints ---
# Constrains H-X bonds to allow 2fs timestep
# SHAKE disabled

# --- NVT Thermostat (Nose-Hoover) ---
# T_damp = 50.0 fs  (coupling timescale for heat exchange)
# Ramp: 300.0 K -> 640.0 K over 300000 steps
timestep 0.5
fix nvt_fix all nvt temp 300.0 640.0 50.0

run 300000

CITE-CITE-CITE-CITE-CITE-CITE-CITE-CITE-CITE-CITE-CITE-CITE-CITE

Your simulation uses code contributions which should be cited:

- GPU package (short-range, long-range and three-body potentials): doi:10.1016/j.cpc.2010.12.021, doi:10.1016/j.cpc.2011.10.012, doi:10.1016/j.cpc.2013.08.002, doi:10.1016/j.commatsci.2014.10.068, doi:10.1016/j.cpc.2016.10.020, doi:10.3233/APC200086

@Article{Brown11,
 author = {W. M. Brown and P. Wang and S. J. Plimpton and A. N. Tharrington},
 title = {Implementing Molecular Dynamics on Hybrid High Performance Computers---Short Range Forces},
 journal = {Comput.\ Phys.\ Commun.},
 year =    2011,
 volume =  182,
 pages =   {898--911},
 doi =     {10.1016/j.cpc.2010.12.021}
}

@Article{Brown12,
 author = {W. M. Brown and A. Kohlmeyer and S. J. Plimpton and A. N. Tharrington},
 title = {Implementing Molecular Dynamics on Hybrid High Performance Computers - Particle-Particle Particle-Mesh},
 journal = {Comput.\ Phys.\ Commun.},
 year =    2012,
 volume =  183,
 doi =     {10.1016/j.cpc.2011.10.012},
 pages =   {449--459}
}

@Article{Brown13,
 author = {W. M. Brown and Y. Masako},
 title = {Implementing Molecular Dynamics on Hybrid High Performance Computers---Three-Body Potentials},
 journal = {Comput.\ Phys.\ Commun.},
 year =    2013,
 volume =  184,
 pages =   {2785--2793},
 doi =     {10.1016/j.cpc.2013.08.002},
}

@Article{Trung15,
 author = {T. D. Nguyen and S. J. Plimpton},
 title = {Accelerating Dissipative Particle Dynamics Simulations for Soft Matter Systems},
 journal = {Comput.\ Mater.\ Sci.},
 year =    2015,
 doi =     {10.1016/j.commatsci.2014.10.068},
 volume =  100,
 pages =   {173--180}
}

@Article{Trung17,
 author = {T. D. Nguyen},
 title = {{GPU}-Accelerated {T}ersoff Potentials for Massively Parallel
    Molecular Dynamics Simulations},
 journal = {Comput.\ Phys.\ Commun.},
 year =    2017,
 doi =     {10.1016/j.cpc.2016.10.020},
 volume =  212,
 pages =   {113--122}
}

@inproceedings{Nikolskiy19,
 author = {V. Nikolskiy and V. Stegailov},
 title = {{GPU} Acceleration of Four-Site Water Models in {LAMMPS}},
 booktitle = {Proceedings of the International Conference on Parallel
    Computing (ParCo 2019), Prague, Czech Republic},
 doi =     {10.3233/APC200086},
 year =    2019
}

CITE-CITE-CITE-CITE-CITE-CITE-CITE-CITE-CITE-CITE-CITE-CITE-CITE

PPPM initialization ...
  using 12-bit tables for long-range coulomb
  G vector (1/distance) = 0.28087215
  grid = 24 24 24
  stencil order = 5
  estimated absolute RMS force accuracy = 0.00034737707
  estimated relative force accuracy = 1.0461157e-06
  using double precision KISS FFT
  3d grid and FFT values/proc = 6859 1728
Generated 15 of 15 mixed pair_coeff terms from sixthpower/sixthpower mixing rule
Neighbor list info ...
  update: every = 1 steps, delay = 0 steps, check = yes
  max neighbors/atom: 4000, page size: 100000
  master list distance cutoff = 11.5
  ghost atom cutoff = 11.5
  binsize = 5.75, bins = 8 8 8
  1 neighbor lists, perpetual/occasional/extra = 1 0 0
  (1) pair lj/class2/coul/long/gpu, perpetual
      attributes: full, newton on
      pair build: full/bin
      stencil: full/bin/3d
      bin: standard
Per MPI rank memory allocation (min/avg/max) = 15.76 | 16.01 | 16.53 Mbytes
   Step          Time           Temp          Press         Enthalpy        TotEng         KinEng         PotEng         E_bond        E_angle        E_dihed        E_impro         E_vdwl         E_coul         E_long         E_tail         Volume           Lx             Ly             Lz          Density          Pxx            Pyy            Pzz      
         0   0              300            1595.1361     -2521.3159     -4285.1101      3593.9627     -7879.0728      60.169886      583.11989     -7050.4284      4.4151381     -747.13875      530.61871     -1259.8292     -110.17717      75818.337      42.324459      42.324459      42.324459      0.64999999     1576.8705      1602.5336      1606.0043    
      1000   500            302.44978      2118.2245      1776.6587     -565.53128      3623.3108     -4188.8421      1345.4169      2317.2044     -6729.2659      5.6093974     -406.98729      534.85277     -1255.6723     -110.17717      75818.337      42.324459      42.324459      42.324459      0.64999999     1895.7167      1820.5626      2638.3941    
      2000   1000           303.35854     -22.777466     -559.54905     -534.36326      3634.1975     -4168.5608      1357.1647      2288.9593     -6751.1839      4.5517599     -346.80003      536.46073     -1257.7132     -110.17717      75818.337      42.324459      42.324459      42.324459      0.64999999     177.71325      39.583333     -285.62898    
      3000   1500           303.79262     -518.64472     -1112.7212     -539.23875      3639.3978     -4178.6365      1392.8661      2291.6399     -6832.5045      4.8420676     -316.33156      535.60151     -1254.7501     -110.17717      75818.337      42.324459      42.324459      42.324459      0.64999999    -773.00949      177.087       -960.01168    
      4000   2000           308.39974     -497.40691     -817.42754     -267.42847      3694.5905     -3962.0189      1437.3079      2357.774      -6769.9983      5.5011487     -274.82669      536.15895     -1253.9359     -110.17717      75818.337      42.324459      42.324459      42.324459      0.64999999    -1515.2884     -160.05968      183.12731    
      5000   2500           303.04277     -18.13851      -440.39379     -420.33745      3630.4147     -4050.7521      1381.8011      2295.3569     -6773.2201      5.8923458     -242.81712      535.76804     -1253.5333     -110.17717      75818.337      42.324459      42.324459      42.324459      0.64999999    -117.1849      -789.33727      852.10664    
      6000   3000           302.20086     -815.32703     -1372.7282     -471.1945       3620.3287     -4091.5232      1416.8416      2255.008      -6762.7005      6.5497721     -291.0639       536.47072     -1252.629      -110.17717      75818.337      42.324459      42.324459      42.324459      0.64999999    -827.182        460.31747     -2079.1166    
      7000   3500           310.30065     -649.52057     -1009.1375     -290.9414       3717.3631     -4008.3045      1396.7768      2347.9195     -6759.6331      4.5531221     -282.59901      535.935       -1251.257      -110.17717      75818.337      42.324459      42.324459      42.324459      0.64999999    -163.25322     -363.34869     -1421.9598    
      8000   4000           304.50614      148.0394      -214.62378     -378.31578      3647.9456     -4026.2614      1402.1014      2279.1636     -6721.4464      6.7088069     -277.29627      537.18499     -1252.6776     -110.17717      75818.337      42.324459      42.324459      42.324459      0.64999999     121.32667      451.78633     -128.9948     
      9000   4500           307.7523      -1101.2352     -1629.666      -411.99424      3686.8343     -4098.8285      1400.3842      2320.2395     -6796.1995      4.802636      -309.90166      537.25841     -1255.4121     -110.17717      75818.337      42.324459      42.324459      42.324459      0.64999999    -1654.4693     -1188.8171     -460.41935    
     10000   5000           315.7377      -405.49188     -717.46595     -269.10033      3782.4984     -4051.5987      1407.9446      2323.6565     -6772.3787      3.4216246     -294.20349      536.15509     -1256.1943     -110.17717      75818.337      42.324459      42.324459      42.324459      0.64999999    -1015.3535     -638.43433      437.31215    
     11000   5500           311.90096      49.494419     -205.37701     -260.10461      3736.5347     -3996.6393      1372.0031      2388.3865     -6779.1933      6.1618464     -263.21814      534.81562     -1255.5948     -110.17717      75818.337      42.324459      42.324459      42.324459      0.64999999    -491.72638      916.61909     -276.40945    
     12000   6000           312.25065     -281.14027     -649.09347     -338.22749      3740.7239     -4078.9514      1351.0269      2345.0321     -6793.6434      4.3248419     -267.82807      536.55133     -1254.4151     -110.17717      75818.337      42.324459      42.324459      42.324459      0.64999999     340.57075     -1591.9237      407.93217    
     13000   6500           315.22905     -1597.8818     -1952.7744     -185.94431      3776.4048     -3962.3491      1428.0472      2408.0681     -6805.6151      6.4364505     -282.19861      538.25159     -1255.3388     -110.17717      75818.337      42.324459      42.324459      42.324459      0.64999999    -1390.6288     -1467.6934     -1935.3232    
     14000   7000           324.05484     -755.82333     -929.51553     -93.776974      3882.1366     -3975.9136      1401.3261      2337.5989     -6690.0186      4.7769525     -308.22529      536.07125     -1257.443      -110.17717      75818.337      42.324459      42.324459      42.324459      0.64999999    -421.91553     -678.7791      -1166.7754    
     15000   7500           318.0712      -82.950142     -275.81555     -184.09487      3810.4535     -3994.5483      1412.3132      2338.0418     -6772.0887      5.3905853     -258.7193       536.0823      -1255.5682     -110.17717      75818.337      42.324459      42.324459      42.324459      0.64999999     303.87852      31.361616     -584.09056    
     16000   8000           314.24173     -535.99471     -800.2681      -207.60123      3764.5769     -3972.1781      1459.6315      2319.9156     -6751.84        4.5279946     -282.74223      532.91777     -1254.5888     -110.17717      75818.337      42.324459      42.324459      42.324459      0.64999999    -299.19195     -385.47769     -923.31449    
     17000   8500           319.43605      199.34082      110.57831     -109.83935      3826.8042     -3936.6435      1422.1601      2409.4022     -6765.3968      8.109143      -288.74797      533.78755     -1255.9577     -110.17717      75818.337      42.324459      42.324459      42.324459      0.64999999    -130.11425      449.86174      278.27495    
     18000   9000           314.57482     -575.19772     -818.16583     -182.15091      3768.5671     -3950.7181      1501.3542      2337.1157     -6773.5496      6.2720688     -297.31541      535.79431     -1260.3892     -110.17717      75818.337      42.324459      42.324459      42.324459      0.64999999    -1259.7736      286.64131     -752.46083    
     19000   9500           321.31566      470.13344      513.21686     -6.6250504      3849.3216     -3855.9466      1499.5081      2430.7513     -6783.3185      5.3256822     -284.41652      533.2539      -1257.0507     -110.17717      75818.337      42.324459      42.324459      42.324459      0.64999999     88.365203      1192.0595      129.9756     
     20000   10000          319.64689      118.35833      111.47002     -19.402648      3829.33       -3848.7327      1461.4857      2451.5534     -6769.6678      6.2211746     -272.99324      533.19073     -1258.5226     -110.17717      75818.337      42.324459      42.324459      42.324459      0.64999999     1030.1805     -917.24935      242.14387    
     21000   10500          320.28081      159.40919      102.27084     -73.993108      3836.9243     -3910.9174      1434.2646      2435.3617     -6781.0161      4.640874      -278.2948       530.4553      -1256.329      -110.17717      75818.337      42.324459      42.324459      42.324459      0.64999999     191.32779      203.72638      83.173387    
     22000   11000          330.08824     -790.60827     -860.31428      13.88711       3954.416      -3940.5289      1447.6212      2442.9534     -6786.083       2.4523885     -324.45369      534.27926     -1257.2985     -110.17717      75818.337      42.324459      42.324459      42.324459      0.64999999    -360.32051     -1879.3187     -132.18556    
     23000   11500          330.50159     -880.34381     -878.10714      95.317775      3959.3679     -3864.0501      1493.3527      2411.4561     -6765.6966      6.3401784     -286.86678      534.19805     -1256.8338     -110.17717      75818.337      42.324459      42.324459      42.324459      0.64999999    -826.86724     -1337.064      -477.10014    
     24000   12000          327.47355      480.12514      584.78088      53.890827      3923.0924     -3869.2016      1426.9393      2483.4413     -6788.2085      8.6293732     -273.03786      529.02776     -1255.993      -110.17717      75818.337      42.324459      42.324459      42.324459      0.64999999     140.93053      856.08858      443.35629    
     25000   12500          330.10672     -265.89481     -276.12375      17.884824      3954.6374     -3936.7526      1485.392       2363.6754     -6754.4783      5.8709123     -313.79856      529.67723     -1253.0912     -110.17717      75818.337      42.324459      42.324459      42.324459      0.64999999    -59.275907     -392.00249     -346.40603    
     26000   13000          326.24167     -99.24282       0.033822569    109.76985      3908.3346     -3798.5647      1506.6706      2464.9016     -6779.0773      6.1156229     -275.68717      533.45924     -1254.9474     -110.17717      75818.337      42.324459      42.324459      42.324459      0.64999999    -329.41892      279.81799     -248.12753    
     27000   13500          337.80435      253.04623      473.57918      193.7777       4046.854      -3853.0763      1484.6489      2435.0338     -6767.8058      6.0877978     -286.67997      530.0446      -1254.4057     -110.17717      75818.337      42.324459      42.324459      42.324459      0.64999999    -454.94071      516.70517      697.37421    
     28000   14000          333.51199      433.62114      619.03482      139.56575      3995.4321     -3855.8664      1465.75        2433.8231     -6777.1503      7.0763335     -267.47184      536.79322     -1254.6868     -110.17717      75818.337      42.324459      42.324459      42.324459      0.64999999     852.80383      82.397527      365.66208    
     29000   14500          332.46771      606.41017      921.06934      250.5418       3982.9217     -3732.38        1534.6165      2509.4278     -6829.5665      6.914266      -228.45124      532.69419     -1258.0149     -110.17717      75818.337      42.324459      42.324459      42.324459      0.64999999     1057.8545      569.63335      191.74269    
     30000   15000          333.61319      183.40519      369.54315      166.74604      3996.6445     -3829.8985      1444.1595      2475.0814     -6766.674       6.1261334     -265.74361      532.33181     -1255.1797     -110.17717      75818.337      42.324459      42.324459      42.324459      0.64999999    -732.46015      842.65348      440.02225    
     31000   15500          335.53789     -512.58489     -293.93125      272.85061      4019.7022     -3746.8516      1511.5394      2486.0724     -6743.4752      4.4132452     -279.9936       533.34848     -1258.7563     -110.17717      75818.337      42.324459      42.324459      42.324459      0.64999999    -1116.9059      16.37713      -437.22592    
     32000   16000          330.78001     -480.32877     -391.95651      139.1587       3962.7033     -3823.5446      1490.6756      2476.2717     -6804.8842      7.0231819     -266.52938      534.92765     -1261.0292     -110.17717      75818.337      42.324459      42.324459      42.324459      0.64999999     1212.3751     -1333.8668     -1319.4945    
     33000   16500          330.56929     -32.875066      262.5077       298.85873      3960.179      -3661.3202      1555.686       2496.6537     -6758.0369      6.3132526     -240.84345      537.893       -1258.9858     -110.17717      75818.337      42.324459      42.324459      42.324459      0.64999999     335.40262     -1269.8669      835.83903    
     34000   17000          337.55835     -707.42674     -508.61222      273.61265      4043.9071     -3770.2944      1556.0016      2414.5676     -6758.7522      4.8886358     -265.43577      537.253       -1258.8173     -110.17717      75818.337      42.324459      42.324459      42.324459      0.64999999    -862.28342     -308.87142     -951.12539    
     35000   17500          334.92255     -310.97152      0.17369486     344.02507      4012.3305     -3668.3055      1537.8789      2556.666      -6761.6545      3.301179      -282.56835      534.65341     -1256.5821     -110.17717      75818.337      42.324459      42.324459      42.324459      0.64999999    -832.42055     -337.9734       237.47939    
     36000   18000          340.96528     -251.46414     -4.5122385      273.53988      4084.7216     -3811.1817      1462.396       2517.1467     -6746.5562      5.5478813     -330.27631      538.59584     -1258.0356     -110.17717      75818.337      42.324459      42.324459      42.324459      0.64999999    -792.60329     -354.98827      393.19913    
     37000   18500          338.7151      -81.320073      335.94636      425.86462      4057.7648     -3631.9001      1600.0797      2526.1472     -6738.6269      3.7592956     -304.98176      537.58727     -1255.865      -110.17717      75818.337      42.324459      42.324459      42.324459      0.64999999     278.48647      1565.3339     -2087.7806    
     38000   19000          335.93711     -436.62551     -137.06782      345.72327      4024.4848     -3678.7615      1570.2001      2472.0843     -6730.4242      8.0335585     -287.03924      543.65148     -1255.2675     -110.17717      75818.337      42.324459      42.324459      42.324459      0.64999999     235.63297     -708.57986     -836.92963    
     39000   19500          344.09358      233.14888      616.99372      359.19338      4122.1983     -3763.0049      1515.4276      2521.3575     -6802.3332      5.1046069     -278.86693      532.42123     -1256.1156     -110.17717      75818.337      42.324459      42.324459      42.324459      0.64999999    -1041.7063      1792.9487     -51.795682    
     40000   20000          349.28309      423.57457      994.09583      525.73559      4184.3679     -3658.6323      1519.4777      2546.5794     -6777.3402      9.177263      -232.5017       534.55567     -1258.5805     -110.17717      75818.337      42.324459      42.324459      42.324459      0.64999999     1517.9339     -456.2987       209.08853    
     41000   20500          346.98703     -120.98725      394.55908      528.33863      4156.8614     -3628.5228      1607.1545      2484.6448     -6741.2523      6.4578986     -265.23374      535.20547     -1255.4994     -110.17717      75818.337      42.324459      42.324459      42.324459      0.64999999    -1706.7379      420.82903      922.9471     
     42000   21000          335.45992     -639.32624     -385.7362       321.18772      4018.7681     -3697.5804      1577.9289      2538.3532     -6817.6949      5.6848967     -282.8719       536.79239     -1255.773      -110.17717      75818.337      42.324459      42.324459      42.324459      0.64999999    -1130.3548      122.63547     -910.25937    
     43000   21500          345.14675      29.491916      677.85235      645.24218      4134.8151     -3489.5729      1631.6781      2616.006      -6757.3039      5.8289102     -265.58832      537.10225     -1257.2959     -110.17717      75818.337      42.324459      42.324459      42.324459      0.64999999     317.70052     -405.71776      176.493      
     44000   22000          345.9394       130.54715      652.85606      508.50581      4144.3109     -3635.8051      1587.4947      2554.3857     -6793.2701      3.2431439     -273.86753      538.54563     -1252.3367     -110.17717      75818.337      42.324459      42.324459      42.324459      0.64999999    -8.6736214      564.56342     -164.24834    
     45000   22500          343.13263     -240.75942      224.69809      490.91365      4110.6862     -3619.7726      1614.0317      2524.1109     -6756.4688      5.0186665     -288.27791      535.00819     -1253.1954     -110.17717      75818.337      42.324459      42.324459      42.324459      0.64999999     310.85933     -836.29841     -196.83917    
     46000   23000          354.46598     -403.7903       216.21834      662.70247      4246.4584     -3583.7559      1571.6767      2535.0294     -6723.7669      5.5077219     -259.8539       541.03727     -1253.3862     -110.17717      75818.337      42.324459      42.324459      42.324459      0.64999999    -707.35588     -915.2129       411.19787    
     47000   23500          349.79706     -1001.4352     -430.08391      677.23567      4190.5253     -3513.2896      1660.1651      2597.8443     -6786.6036      6.1484419     -273.71819      537.53955     -1254.6652     -110.17717      75818.337      42.324459      42.324459      42.324459      0.64999999    -1530.2644     -214.10009     -1259.941     
     48000   24000          351.91083     -570.14588     -49.45504       580.97389      4215.848      -3634.8741      1557.4238      2538.4855     -6761.9148      5.4300942     -252.11815      532.47634     -1254.6569     -110.17717      75818.337      42.324459      42.324459      42.324459      0.64999999    -630.39324     -278.22603     -801.81837    
     49000   24500          354.82118      97.205873      855.68322      748.19951      4250.7136     -3502.514       1603.977       2618.8731     -6774.1429      5.6291685     -234.93094      536.22767     -1258.1472     -110.17717      75818.337      42.324459      42.324459      42.324459      0.64999999     128.41568      748.21172     -585.00978    
     50000   25000          352.4338      -611.54892      71.541508      747.75113      4222.113      -3474.3619      1699.7543      2605.7737     -6785.6447      7.8060787     -284.0207       538.55828     -1256.5888     -110.17717      75818.337      42.324459      42.324459      42.324459      0.64999999    -1473.1694     -425.29594      63.818588    
     51000   25500          355.06488     -1053.9613     -475.55092      689.84853      4253.6331     -3563.7846      1606.2545      2579.8213     -6771.9241      6.7087515     -269.544        538.03134     -1253.1323     -110.17717      75818.337      42.324459      42.324459      42.324459      0.64999999    -717.72896     -962.43959     -1481.7153    
     52000   26000          347.99456     -789.11807     -142.14266      730.41098      4168.9316     -3438.5206      1636.6497      2623.1849     -6780.9555      5.6280181     -209.29291      537.52335     -1251.2582     -110.17717      75818.337      42.324459      42.324459      42.324459      0.64999999    -56.304766     -1053.5309     -1257.5186    
     53000   26500          360.25483     -1346.1477     -603.25135      885.22811      4315.8081     -3430.58        1702.1065      2604.7911     -6758.4256      5.1507412     -266.19709      535.4564      -1253.4619     -110.17717      75818.337      42.324459      42.324459      42.324459      0.64999999    -381.45985     -1796.7867     -1860.1964    
     54000   27000          353.67847     -311.7673       436.32212      781.0534       4237.024      -3455.9706      1608.2791      2642.3596     -6771.1697      7.7522015     -228.60225      537.28465     -1251.8743     -110.17717      75818.337      42.324459      42.324459      42.324459      0.64999999     99.977366     -25.636303     -1009.643     
     55000   27500          356.31474      309.53799      1244.6811      902.41483      4268.6062     -3366.1914      1719.9544      2602.6948     -6759.8272      5.5507508     -213.88656      533.70236     -1254.38       -110.17717      75818.337      42.324459      42.324459      42.324459      0.64999999     453.8364       556.58416     -81.806589    
     56000   28000          365.43607     -792.97208      148.41638      1025.2315      4377.8787     -3352.6472      1643.4708      2709.5688     -6774.7596      5.2254269     -212.34048      531.03904     -1254.8511     -110.17717      75818.337      42.324459      42.324459      42.324459      0.64999999    -1580.3584     -239.51154     -559.04631    
     57000   28500          364.19468     -238.72594      714.73099      978.69807      4363.007      -3384.3089      1659.8296      2658.7448     -6766.4994      3.7567196     -224.4365       539.13692     -1254.841      -110.17717      75818.337      42.324459      42.324459      42.324459      0.64999999    -844.79052      258.15094     -129.53824    
     58000   29000          370.59113     -660.865        310.86934      1041.6094      4439.6357     -3398.0263      1692.5111      2591.8503     -6743.3024      4.5301751     -230.34974      538.77083     -1252.0366     -110.17717      75818.337      42.324459      42.324459      42.324459      0.64999999    -1113.1822     -688.40433     -181.00842    
     59000   29500          365.30533     -606.55097      354.95342      1025.6366      4376.3124     -3350.6758      1722.5743      2609.3726     -6743.4033      6.082423      -225.51396      534.87549     -1254.6633     -110.17717      75818.337      42.324459      42.324459      42.324459      0.64999999    -746.80164     -831.4283      -241.42298    
     60000   30000          366.16147      738.51538      1761.4096      944.809        4386.5689     -3441.7599      1627.5588      2636.4603     -6794.8529      4.1580723     -200.63728      539.43439     -1253.8813     -110.17717      75818.337      42.324459      42.324459      42.324459      0.64999999     371.56403      1785.1045      58.877588    
     61000   30500          365.26234      353.12045      1423.1663      1032.7095      4375.7974     -3343.0879      1651.0523      2685.8113     -6777.1577      5.2481788     -192.71301      537.79675     -1253.1258     -110.17717      75818.337      42.324459      42.324459      42.324459      0.64999999    -105.87572      174.24384      990.99323    
     62000   31000          379.82535      543.14334      1825.9628      1225.3915      4550.2604     -3324.8689      1641.8638      2696.0186     -6748.9072      8.1586536     -203.60719      535.27116     -1253.6668     -110.17717      75818.337      42.324459      42.324459      42.324459      0.64999999     788.98363      467.8765       372.56987    
     63000   31500          369.46343     -997.83126     -31.29299       1072.0416      4426.1259     -3354.0842      1728.8148      2559.0545     -6746.0223      3.4099406     -180.87493      534.52108     -1252.9874     -110.17717      75818.337      42.324459      42.324459      42.324459      0.64999999    -1479.7177      349.95738     -1863.7334    
     64000   32000          365.4503      -569.59438      428.99794      1058.8171      4378.0491     -3319.232       1690.7359      2673.9763     -6753.3338      6.2144438     -218.80492      535.71033     -1253.7303     -110.17717      75818.337      42.324459      42.324459      42.324459      0.64999999    -1741.9554      99.867598     -66.695301    
     65000   32500          373.75564     -300.89333      907.28692      1239.9945      4477.5461     -3237.5515      1779.06        2680.7284     -6795.2188      4.7821452     -191.03952      536.4799      -1252.3437     -110.17717      75818.337      42.324459      42.324459      42.324459      0.64999999     448.63052     -486.82453     -864.48598    
     66000   33000          382.43525      394.18523      1820.6449      1384.7814      4581.5267     -3196.7453      1744.539       2720.1753     -6774.4902      6.883968      -177.44849      535.78116     -1252.1859     -110.17717      75818.337      42.324459      42.324459      42.324459      0.64999999     448.95384      893.3451      -159.74324    
     67000   33500          373.48737     -161.67002      973.93612      1152.6999      4474.3322     -3321.6323      1660.219       2697.2081     -6785.2196      4.8735625     -173.81133      529.16253     -1254.0645     -110.17717      75818.337      42.324459      42.324459      42.324459      0.64999999    -277.31168      506.22857     -713.92694    
     68000   34000          384.16539     -753.99194      420.69706      1254.4106      4602.2536     -3347.843       1739.1899      2617.0884     -6787.3585      4.3529316     -199.84854      533.81996     -1255.0871     -110.17717      75818.337      42.324459      42.324459      42.324459      0.64999999    -706.15252     -559.44319     -996.38011    
     69000   34500          381.65565     -64.527374      1298.8573      1370.2073      4572.1872     -3201.9798      1700.8455      2669.8576     -6700.0194      3.9278837     -171.36811      543.85551     -1249.0788     -110.17717      75818.337      42.324459      42.324459      42.324459      0.64999999     1179.2963     -1415.5226      42.644237    
     70000   35000          381.93433      570.03372      2080.2842      1449.9793      4575.5258     -3125.5465      1758.33        2739.3852     -6721.0532      8.074736      -200.25768      542.52705     -1252.5526     -110.17717      75818.337      42.324459      42.324459      42.324459      0.64999999     459.58278      1164.059       86.459368    
     71000   35500          370.18965     -198.35951      1119.1797      1338.5123      4434.826      -3096.3137      1778.5587      2737.846      -6709.8024      5.4022676     -198.38211      543.55835     -1253.4945     -110.17717      75818.337      42.324459      42.324459      42.324459      0.64999999    -415.23516     -915.04392      735.20055    
     72000   36000          380.83954      477.84349      1776.5269      1248.1597      4562.4103     -3314.2506      1671.8129      2696.1669     -6788.5734      6.9448828     -182.29071      535.98506     -1254.2962     -110.17717      75818.337      42.324459      42.324459      42.324459      0.64999999    -133.69452      591.26218      975.9628     
     73000   36500          376.45171      32.412644      1396.7667      1360.927       4509.8446     -3148.9177      1748.0533      2791.6328     -6797.4404      5.6967606     -184.2823       539.35756     -1251.9354     -110.17717      75818.337      42.324459      42.324459      42.324459      0.64999999    -678.44128     -14.94929       790.6285     
     74000   37000          386.54826     -599.36164      842.51649      1505.2502      4630.8001     -3125.5498      1773.1634      2717.2827     -6756.1956      4.7379414     -148.74764      537.72483     -1253.5156     -110.17717      75818.337      42.324459      42.324459      42.324459      0.64999999    -120.04575     -463.38037     -1214.6588    
     75000   37500          391.44479     -26.56213       1349.2943      1378.6649      4689.4599     -3310.795       1681.6412      2644.0772     -6746.3662      9.7924252     -182.45627      535.58424     -1253.0676     -110.17717      75818.337      42.324459      42.324459      42.324459      0.64999999    -495.58271     -135.92084      551.81716    
     76000   38000          385.51981      274.42419      1788.0008      1484.561       4618.4794     -3133.9183      1782.3473      2809.9863     -6797.2146      5.0475815     -215.26624      536.17388     -1254.9926     -110.17717      75818.337      42.324459      42.324459      42.324459      0.64999999    -937.72943      1675.3701      85.631885    
     77000   38500          388.12957     -438.63031      960.73527      1445.7431      4649.7439     -3204.0008      1781.9183      2738.5788     -6862.0805      8.3511726     -156.60871      539.9916      -1254.1515     -110.17717      75818.337      42.324459      42.324459      42.324459      0.64999999    -393.38445     -278.65932     -643.84717    
     78000   39000          393.21521      107.38328      1690.5972      1571.86        4710.6692     -3138.8092      1783.2224      2749.0267     -6796.531       6.2316563     -158.06713      532.36305     -1255.0549     -110.17717      75818.337      42.324459      42.324459      42.324459      0.64999999    -767.20085      380.38206      708.96862    
     79000   39500          386.03971     -226.94161      1252.9533      1503.89        4624.7077     -3120.8176      1736.2398      2780.8063     -6756.6857      6.2862432     -169.91752      537.63259     -1255.1794     -110.17717      75818.337      42.324459      42.324459      42.324459      0.64999999     269.57315     -563.84812     -386.54987    
     80000   40000          396.64002     -683.56746      858.63259      1614.4755      4751.6981     -3137.2227      1799.804       2762.9349     -6800.2973      7.6126419     -190.11961      537.8298      -1254.9871     -110.17717      75818.337      42.324459      42.324459      42.324459      0.64999999    -772.15732     -983.00409     -295.54097    
     81000   40500          393.52096     -191.69552      1496.8456      1708.8096      4714.3322     -3005.5226      1841.5271      2791.117      -6763.5556      6.2319655     -156.29173      533.74713     -1258.2985     -110.17717      75818.337      42.324459      42.324459      42.324459      0.64999999    -363.9467       275.79693     -486.93678    
     82000   41000          386.09661     -577.56783      930.14248      1568.7781      4625.3893     -3056.6112      1856.1186      2769.2172     -6802.1189      9.0243195     -172.77996      539.67924     -1255.7518     -110.17717      75818.337      42.324459      42.324459      42.324459      0.64999999    -1301.6201      200.31413     -631.39749    
     83000   41500          397.95406     -1094.9025      513.45493      1724.1244      4767.4402     -3043.3158      1875.8316      2750.3612     -6776.4794      8.2947838     -180.99861      534.68248     -1255.0079     -110.17717      75818.337      42.324459      42.324459      42.324459      0.64999999    -1901.7555     -101.9216      -1281.0303    
     84000   42000          394.04972     -302.89657      1325.1608      1660.0834      4720.6666     -3060.5832      1805.926       2775.0327     -6793.1111      4.1811598     -139.00914      539.30062     -1252.9035     -110.17717      75818.337      42.324459      42.324459      42.324459      0.64999999    -687.38239      84.585046     -305.89237    
     85000   42500          387.66664     -630.04789      854.41948      1551.084       4644.1982     -3093.1141      1712.5926      2816.665      -6752.8116      5.8961373     -156.55535      535.10259     -1254.0035     -110.17717      75818.337      42.324459      42.324459      42.324459      0.64999999    -1156.8969      86.718255     -819.96507    
     86000   43000          399.95078     -1154.7712      446.19161      1723.0599      4791.3606     -3068.3008      1828.9183      2800.4868     -6805.5302      6.3371421     -182.0405       540.16914     -1256.6414     -110.17717      75818.337      42.324459      42.324459      42.324459      0.64999999    -2432.9331     -398.83669     -632.54379    
     87000   43500          396.12116      831.12541      2492.4999      1573.4973      4745.4822     -3171.9849      1699.3999      2795.5294     -6791.6963      4.6178927     -155.4003       530.49783     -1254.9332     -110.17717      75818.337      42.324459      42.324459      42.324459      0.64999999     273.9226       965.98013      1253.4735    
     88000   44000          400.22036     -706.26011      1028.8029      1809.7378      4794.5901     -2984.8523      1782.2549      2862.9037     -6784.1435      4.953395      -131.95318      537.49415     -1256.3618     -110.17717      75818.337      42.324459      42.324459      42.324459      0.64999999    -198.55501     -599.17688     -1321.0484    
     89000   44500          401.84729      45.995955      1928.2938      1877.4346      4814.0805     -2936.646       1829.6248      2873.9463     -6754.362       5.260047      -173.51893      540.06201     -1257.6583     -110.17717      75818.337      42.324459      42.324459      42.324459      0.64999999    -4.8021236      401.18085     -258.39086    
     90000   45000          400.90124     -868.17509      879.6883       1839.6579      4802.747      -2963.0891      1823.3426      2867.1212     -6755.919       8.8640078     -189.89146      540.6051      -1257.2116     -110.17717      75818.337      42.324459      42.324459      42.324459      0.64999999    -1418.6518     -709.89121     -475.98229    
     91000   45500          399.35027     -88.389897      1697.1254      1794.861       4784.1666     -2989.3056      1789.2516      2867.7332     -6756.6623      5.2055393     -171.21451      534.10644     -1257.7256     -110.17717      75818.337      42.324459      42.324459      42.324459      0.64999999    -1203.8068      444.61496      494.02218    
     92000   46000          396.07825      165.19568      1998.9536      1816.2913      4744.9681     -2928.6768      1850.3322      2889.6319     -6792.0015      4.4187327     -154.35921      530.30629     -1257.0052     -110.17717      75818.337      42.324459      42.324459      42.324459      0.64999999    -637.78045      712.66037      420.70711    
     93000   46500          396.07843     -980.07184      789.74858      1873.446       4744.9703     -2871.5242      1851.4155      2895.291      -6745.5508      3.8866868     -158.18718      537.67294     -1256.0523     -110.17717      75818.337      42.324459      42.324459      42.324459      0.64999999    -563.31147     -1285.1898     -1091.7142    
     94000   47000          403.92393     -837.30355      970.1562       1895.9901      4838.9584     -2942.9683      1858.8218      2892.1153     -6786.6986      8.118673      -196.0441       536.05855     -1255.34       -110.17717      75818.337      42.324459      42.324459      42.324459      0.64999999    -547.7504      -1636.628      -327.53224    
     95000   47500          407.35117     -688.08228      1266.6035      2027.4386      4880.0164     -2852.5778      1861.9622      2919.2465     -6770.6056      6.0393298     -147.85782      535.44887     -1256.8112     -110.17717      75818.337      42.324459      42.324459      42.324459      0.64999999    -581.26032     -414.55313     -1068.4334    
     96000   48000          408.72321     -54.88093       1957.4807      2018.1644      4896.4532     -2878.2889      1896.5539      2874.686      -6776.845       5.8734363     -166.20356      541.50607     -1253.8596     -110.17717      75818.337      42.324459      42.324459      42.324459      0.64999999    -457.36421      416.35939     -123.63796    
     97000   48500          414.75434      47.93563       2100.4643      2047.4603      4968.7053     -2921.2451      1812.3222      2885.8671     -6769.812       5.0305922     -137.05869      537.84799     -1255.4422     -110.17717      75818.337      42.324459      42.324459      42.324459      0.64999999    -426.40871      211.42505      358.79056    
     98000   49000          410.39226     -564.81641      1501.5574      2126.0934      4916.4482     -2790.3548      1866.0101      2987.0883     -6757.0803      6.0855637     -165.77334      531.29868     -1257.9838     -110.17717      75818.337      42.324459      42.324459      42.324459      0.64999999    -31.242895     -1740.7121      77.505717    
     99000   49500          414.21965     -515.66664      1657.3556      2227.545       4962.2998     -2734.7548      1879.7978      2968.5076     -6729.462       4.7109454     -134.55842      532.91458     -1256.6652     -110.17717      75818.337      42.324459      42.324459      42.324459      0.64999999     138.67933     -695.99667     -989.68258    
    100000   50000          411.70087     -993.84003      953.66745      2052.5888      4932.1252     -2879.5364      1927.0669      2856.9201     -6816.497       7.4491086     -133.49433      534.21316     -1255.1943     -110.17717      75818.337      42.324459      42.324459      42.324459      0.64999999    -2051.4444     -231.08518     -698.99045    
    101000   50500          404.58701     -415.42866      1685.9325      2145.2855      4846.902      -2701.6165      1988.3865      2887.2438     -6715.0332      5.9071787     -145.87301      532.9435      -1255.1912     -110.17717      75818.337      42.324459      42.324459      42.324459      0.64999999     1577.774      -1881.1357     -942.92427    
    102000   51000          427.42736     -454.54729      1875.878       2378.4858      5120.5266     -2742.0408      1921.744       2873.7725     -6710.7534      4.2178234     -109.54289      535.28551     -1256.7644     -110.17717      75818.337      42.324459      42.324459      42.324459      0.64999999     120.27213     -1012.6837     -471.23026    
    103000   51500          413.78806      578.61557      2815.0053      2175.2111      4957.1295     -2781.9184      1856.0553      2927.8315     -6753.1774      5.6673717     -96.605477      534.57907     -1256.2687     -110.17717      75818.337      42.324459      42.324459      42.324459      0.64999999     65.258914      490.79931      1179.7885    
    104000   52000          421.23192     -101.98266      2210.2994      2323.065       5046.306      -2723.241       1968.7822      2915.2022     -6743.4139      7.8443956     -149.78282      533.40239     -1255.2754     -110.17717      75818.337      42.324459      42.324459      42.324459      0.64999999    -271.11358      847.6559      -882.4903     
    105000   52500          413.98411      598.25565      2881.1054      2219.5946      4959.4782     -2739.8836      1919.1247      2916.6704     -6759.1482      4.9512338     -102.21332      533.54718     -1252.8156     -110.17717      75818.337      42.324459      42.324459      42.324459      0.64999999     384.11475      436.73036      973.92185    
    106000   53000          420.8683      -296.42969      1964.223       2291.995       5041.9499     -2749.955       1885.2683      3016.9216     -6830.5745      7.9528692     -111.88479      533.48276     -1251.1212     -110.17717      75818.337      42.324459      42.324459      42.324459      0.64999999    -988.19962      453.24685     -354.33631    
    107000   53500          429.94769     -875.43718      1530.1519      2498.1513      5150.7198     -2652.5685      1976.3086      2950.0287     -6723.0755      6.7119791     -140.63851      531.63053     -1253.5343     -110.17717      75818.337      42.324459      42.324459      42.324459      0.64999999    -144.26342     -1215.7892     -1266.2589    
    108000   54000          418.62013     -20.917911      2281.6792      2304.8088      5015.0171     -2710.2083      1947.3684      2923.2509     -6721.0216      6.3133127     -144.73037      534.30755     -1255.6965     -110.17717      75818.337      42.324459      42.324459      42.324459      0.64999999    -144.17796     -704.02076      785.44498    
    109000   54500          420.42931      370.02017      2729.7143      2320.5709      5036.6908     -2716.1199      1851.7718      3040.7101     -6779.8224      8.7329812     -106.94991      526.64753     -1257.21       -110.17717      75818.337      42.324459      42.324459      42.324459      0.64999999     568.91597      712.55273     -171.4082     
    110000   55000          412.00548     -586.46167      1563.1621      2211.6319      4935.7744     -2724.1425      1879.1587      3053.5991     -6799.0806      5.6087112     -137.15412      530.52675     -1256.8009     -110.17717      75818.337      42.324459      42.324459      42.324459      0.64999999    -622.04367     -1245.9096      108.56825    
    111000   55500          430.08392      203.64962      2759.5663      2534.3843      5152.3519     -2617.9676      1917.3546      3004.576      -6728.0746      4.2810474     -93.112167      532.87977     -1255.8723     -110.17717      75818.337      42.324459      42.324459      42.324459      0.64999999     771.66953      863.97458     -1024.6952    
    112000   56000          433.28979     -191.43684      2323.2685      2534.9465      5190.7578     -2655.8113      1955.548       3007.4077     -6765.6657      8.9808986     -140.19929      532.68206     -1254.565      -110.17717      75818.337      42.324459      42.324459      42.324459      0.64999999    -290.83316      622.88344     -906.36079    
    113000   56500          423.66384     -651.15871      1696.3473      2416.3548      5075.4401     -2659.0853      1915.4559      3078.686      -6786.6447      4.8374462     -150.05963      531.4474      -1252.8077     -110.17717      75818.337      42.324459      42.324459      42.324459      0.64999999    -762.87108     -892.83062     -297.77442    
    114000   57000          435.14636      358.64627      2953.9664      2557.3995      5212.9993     -2655.5998      1894.0533      3009.0861     -6745.6418      6.6894304     -102.52971      533.79742     -1251.0546     -110.17717      75818.337      42.324459      42.324459      42.324459      0.64999999     168.31393      795.76018      111.86469    
    115000   57500          428.4245      -259.37776      2285.9279      2572.7303      5132.4722     -2559.7419      2035.97        3048.322      -6824.3875      5.7490248     -111.13371      536.19338     -1250.455      -110.17717      75818.337      42.324459      42.324459      42.324459      0.64999999    -302.9117       759.34827     -1234.5698    
    116000   58000          422.65995     -1109.7383      1224.5335      2451.6074      5063.4136     -2611.8062      1974.3911      3065.2631     -6813.7298      8.2407719     -131.60172      538.5532      -1252.9229     -110.17717      75818.337      42.324459      42.324459      42.324459      0.64999999    -1351.0477     -1042.1879     -935.97929    
    117000   58500          439.29117     -931.83349      1749.443       2779.8017      5262.6536     -2482.8519      1992.9676      3108.5797     -6737.7664      3.7895372     -124.68769      530.7637      -1256.4983     -110.17717      75818.337      42.324459      42.324459      42.324459      0.64999999    -561.96695     -1182.344      -1051.1896    
    118000   59000          434.31693      240.31875      2887.2908      2621.5625      5203.0628     -2581.5002      1987.8013      3029.2509     -6815.3547      6.2509267     -66.685138      529.51992     -1252.2835     -110.17717      75818.337      42.324459      42.324459      42.324459      0.64999999     67.119002      161.05425      492.78301    
    119000   59500          435.92457      116.53855      2730.2502      2601.3897      5222.3221     -2620.9324      1918.1419      3029.8099     -6733.1989      4.5596093     -114.77483      528.33669     -1253.8067     -110.17717      75818.337      42.324459      42.324459      42.324459      0.64999999     652.00365     -33.946981     -268.44102    
    120000   60000          433.74949     -390.4987       2420.1745      2851.9616      5196.265      -2344.3033      2081.8834      3165.1379     -6784.518       6.4601322     -82.815918      527.1587      -1257.6095     -110.17717      75818.337      42.324459      42.324459      42.324459      0.64999999    -693.56995     -769.11331      291.18718    
    121000   60500          437.71582      137.84707      2754.8803      2602.4583      5243.7811     -2641.3228      1925.6422      2984.5805     -6720.5482      1.9888779     -104.21219      527.82865     -1256.6027     -110.17717      75818.337      42.324459      42.324459      42.324459      0.64999999    -385.29917      298.69103      500.14937    
    122000   61000          436.20693      170.02649      2831.0145      2643.0107      5225.7047     -2582.694       1984.3718      2987.2201     -6726.8936      6.7065887     -107.45424      528.55954     -1255.2042     -110.17717      75818.337      42.324459      42.324459      42.324459      0.64999999     1296.9954     -209.69616     -577.21978    
    123000   61500          436.92153     -229.94277      2570.8006      2825.0558      5234.2655     -2409.2097      2016.4418      3192.3037     -6798.718       4.8563449     -97.722815      526.55018     -1252.9209     -110.17717      75818.337      42.324459      42.324459      42.324459      0.64999999    -2082.8358      374.27247      1018.7351    
    124000   62000          448.33118      591.11995      3519.5832      2865.9626      5370.9518     -2504.9892      1967.4847      3119.9453     -6751.682       5.3182235     -112.58332      523.01597     -1256.4881     -110.17717      75818.337      42.324459      42.324459      42.324459      0.64999999     669.4051       780.05313      323.90162    
    125000   62500          435.40433     -587.0294       2044.7942      2693.8918      5216.0898     -2522.198       2048.4848      3018.1898     -6764.1023      4.0552396     -96.388019      523.90256     -1256.3401     -110.17717      75818.337      42.324459      42.324459      42.324459      0.64999999    -1556.9868     -296.59448      92.493076    
    126000   63000          452.09511     -45.551811      2774.2673      2824.6354      5416.0432     -2591.4078      1993.0678      2987.8946     -6729.02        6.4086523     -120.13841      527.34058     -1256.961      -110.17717      75818.337      42.324459      42.324459      42.324459      0.64999999     536.1351       576.53727     -1249.3278    
    127000   63500          437.73423     -630.88192      2089.6831      2787.2699      5244.0016     -2456.7317      1982.4682      3137.999      -6736.4126      6.1724066     -115.23898      522.56399     -1254.2836     -110.17717      75818.337      42.324459      42.324459      42.324459      0.64999999    -1019.8858     -1211.9765      339.21659    
    128000   64000          446.04878     -1570.0615      1205.1316      2941.1998      5343.6089     -2402.409       2110.5569      3075.347      -6720.9489      5.1707268     -143.88172      526.23194     -1254.885      -110.17717      75818.337      42.324459      42.324459      42.324459      0.64999999    -1174.834      -1995.9475     -1539.4029    
    129000   64500          449.68877      1482.5427      4649.058       3009.762       5387.2155     -2377.4535      2011.9388      3149.9533     -6770.956       6.4920256     -48.277797      528.87542     -1255.4792     -110.17717      75818.337      42.324459      42.324459      42.324459      0.64999999     399.09659      1879.5815      2168.95      
    130000   65000          450.34037      786.68942      3929.1393      3059.2712      5395.0216     -2335.7504      1976.3014      3228.4637     -6717.8619      4.9062655     -96.253134      523.28388     -1254.5905     -110.17717      75818.337      42.324459      42.324459      42.324459      0.64999999     1653.3692     -4.1562214      710.85527    
    131000   65500          453.36461      91.428579      3134.6444      3033.5489      5431.2516     -2397.7027      2040.3784      3158.4882     -6785.6311      5.7539091     -82.562654      523.31545     -1257.4449     -110.17717      75818.337      42.324459      42.324459      42.324459      0.64999999     691.5276      -883.08006      465.83819    
    132000   66000          442.96244      68.534225      2987.0781      2911.2976      5306.635      -2395.3374      2029.2957      3090.1353     -6704.1075      5.7766061     -87.032283      525.64659     -1255.0517     -110.17717      75818.337      42.324459      42.324459      42.324459      0.64999999    -1447.8842      22.978979      1630.5079    
    133000   66500          434.10887      127.03435      3056.76        2916.294       5200.5702     -2284.2762      2133.901       3176.7023     -6774.7645      4.0222705     -93.4918        524.82314     -1255.4687     -110.17717      75818.337      42.324459      42.324459      42.324459      0.64999999     531.00135      91.679923     -241.57822    
    134000   67000          452.35541     -1168.2206      1913.9205      3205.6602      5419.1615     -2213.5013      2111.3261      3242.0749     -6777.2173      6.5990518     -67.716592      525.18988     -1253.7573     -110.17717      75818.337      42.324459      42.324459      42.324459      0.64999999    -694.15004     -2194.7683     -615.74352    
    135000   67500          445.54719     -1077.3566      1804.4649      2995.7333      5337.5999     -2341.8666      2091.3648      3158.8856     -6754.8544      6.4540329     -106.50566      520.55262     -1257.7635     -110.17717      75818.337      42.324459      42.324459      42.324459      0.64999999    -2279.4183     -851.33528     -101.31625    
    136000   68000          449.36574      809.92713      4065.9489      3170.386       5383.3457     -2212.9596      2072.4553      3306.1006     -6819.8593      8.1630691     -45.960377      520.79289     -1254.6517     -110.17717      75818.337      42.324459      42.324459      42.324459      0.64999999     417.53507      1281.4426      730.80375    
    137000   68500          451.40537      652.78516      3809.9303      3088.1244      5407.7801     -2319.6557      2069.625       3105.7988     -6717.7958      5.6781484     -49.105865      522.15109     -1256.0071     -110.17717      75818.337      42.324459      42.324459      42.324459      0.64999999     1384.9826      474.97738      98.39546     
    138000   69000          454.32378     -223.56442      2970.7217      3217.9241      5442.7423     -2224.8182      2081.4461      3176.9813     -6694.5971      7.4348233     -70.555204      528.35249     -1253.8805     -110.17717      75818.337      42.324459      42.324459      42.324459      0.64999999    -921.88945      958.94336     -707.74718    
    139000   69500          455.53237     -1492.1901      1659.7238      3309.6871      5457.2211     -2147.534       2183.9218      3218.5774     -6736.7235      6.5920663     -89.145449      525.17287     -1255.9291     -110.17717      75818.337      42.324459      42.324459      42.324459      0.64999999    -1280.9774     -1184.6432     -2010.9496    
    140000   70000          456.23837     -923.56044      2124.108       3145.3189      5465.6789     -2320.3599      2025.4137      3238.1294     -6799.8122      7.1322372     -59.393539      523.68205     -1255.5116     -110.17717      75818.337      42.324459      42.324459      42.324459      0.64999999    -2477.5132     -53.023451     -240.14467    
    141000   70500          457.75615      191.44337      3612.9192      3401.234       5483.8618     -2082.6278      2134.1335      3248.3443     -6717.9081      6.0034966     -23.284643      524.26951     -1254.1859     -110.17717      75818.337      42.324459      42.324459      42.324459      0.64999999     1170.7174      242.31333     -838.7006     
    142000   71000          463.07934     -32.398631      3369.3137      3405.138       5547.6329     -2142.4949      2110.1138      3229.3533     -6693.8111      6.5180981     -68.239799      528.48267     -1254.9118     -110.17717      75818.337      42.324459      42.324459      42.324459      0.64999999    -569.51709      440.2172       32.103994    
    143000   71500          467.16999     -202.57989      3106.6092      3330.6084      5596.6384     -2266.03        1962.6978      3273.4255     -6735.1322      2.17494       -39.29579       523.4841      -1253.3844     -110.17717      75818.337      42.324459      42.324459      42.324459      0.64999999    -456.48314     -882.91559      731.65907    
    144000   72000          465.62001     -1233.9086      2042.0777      3406.4507      5578.0698     -2171.619       2106.3272      3246.5491     -6758.5252      7.2347732     -44.804471      527.03831     -1255.4388     -110.17717      75818.337      42.324459      42.324459      42.324459      0.64999999    -2335.574      -635.93137     -730.22042    
    145000   72500          467.66995     -286.2621       3077.488       3394.0173      5602.6278     -2208.6105      2061.2633      3266.5994     -6724.7791      3.7621735     -89.553344      528.39822     -1254.3011     -110.17717      75818.337      42.324459      42.324459      42.324459      0.64999999     939.08376     -1272.7859     -525.08418    
    146000   73000          461.69669     -869.21767      2501.7204      3462.8428      5531.0689     -2068.2261      2162.7189      3279.6631     -6733.0703      7.4321623     -54.23813       525.31293     -1256.0447     -110.17717      75818.337      42.324459      42.324459      42.324459      0.64999999    -631.22117     -1378.184      -598.24789    
    147000   73500          467.48243     -13.608016      3443.2887      3458.3356      5600.3813     -2142.0457      2149.8042      3204.4727     -6734.805       5.4085708     -36.465835      524.56068     -1255.0211     -110.17717      75818.337      42.324459      42.324459      42.324459      0.64999999    -1188.4282      699.51165      448.09249    
    148000   74000          460.40085     -411.19617      2921.3839      3376.0569      5515.5449     -2139.488       2172.7297      3169.3584     -6730.3437      5.4031093     -28.960952      527.6495      -1255.324      -110.17717      75818.337      42.324459      42.324459      42.324459      0.64999999    -86.91257      -978.65868     -168.01725    
    149000   74500          462.29224     -930.69245      2509.7234      3538.8205      5538.2035     -1999.3831      2220.0711      3310.7346     -6745.6926      6.2208729     -65.127584      529.43336     -1255.0228     -110.17717      75818.337      42.324459      42.324459      42.324459      0.64999999    -777.46411     -795.89765     -1218.7156    
    150000   75000          478.0156      -436.22824      3194.8737      3677.2255      5726.5675     -2049.3419      2129.3744      3314.4908     -6709.3554      4.4059073     -60.659349      526.72274     -1254.321      -110.17717      75818.337      42.324459      42.324459      42.324459      0.64999999    -1552.7481     -139.97486      384.03828    
    151000   75500          474.2402      -71.024696      3602.1693      3680.7036      5681.3386     -2000.635       2139.6415      3375.6527     -6755.8345      5.3800719     -39.245764      528.18155     -1254.4106     -110.17717      75818.337      42.324459      42.324459      42.324459      0.64999999     241.71335     -180.23659     -274.55085    
    152000   76000          470.5092      -1347.8254      2044.7408      3535.0754      5636.6416     -2101.5663      2184.7011      3210.5985     -6736.2989      5.3544147     -31.487349      520.78846     -1255.2224     -110.17717      75818.337      42.324459      42.324459      42.324459      0.64999999    -2701.1602      636.85463     -1979.1705    
    153000   76500          474.7836       814.56505      4631.5859      3730.8948      5687.8484     -1956.9537      2157.7761      3356.2279     -6703.3078      5.2925703     -35.207293      518.39827     -1256.1333     -110.17717      75818.337      42.324459      42.324459      42.324459      0.64999999     1387.9735      992.87946      62.842188    
    154000   77000          469.58994      144.93836      3703.7808      3543.5178      5625.6291     -2082.1113      2125.239       3260.5126     -6689.6045      3.6712394     -49.580335      518.5759      -1250.9253     -110.17717      75818.337      42.324459      42.324459      42.324459      0.64999999     809.92862      82.597494     -457.71102    
    155000   77500          466.95391     -615.9844       2868.9232      3550.0372      5594.0498     -2044.0125      2208.4188      3223.2013     -6714.231       6.0527058     -35.543351      522.19892     -1254.1099     -110.17717      75818.337      42.324459      42.324459      42.324459      0.64999999    -1482.4867     -325.19169     -40.274844    
    156000   78000          473.38999      332.75212      4141.8136      3773.8787      5671.1531     -1897.2744      2195.26        3350.1339     -6670.7981      3.8796316     -53.396885      529.12585     -1251.4787     -110.17717      75818.337      42.324459      42.324459      42.324459      0.64999999    -119.58685     -168.46696      1286.3102    
    157000   78500          471.29598     -167.547        3452.4719      3637.7341      5646.0673     -2008.3332      2111.8694      3265.1162     -6641.9104      4.1429484     -11.227284      517.49974     -1253.8238     -110.17717      75818.337      42.324459      42.324459      42.324459      0.64999999     318.96553      94.170987     -915.77753    
    158000   79000          479.444       -463.72807      3116.9515      3629.7108      5743.6794     -2113.9686      2135.0414      3277.3099     -6743.5685      7.8185757     -59.179673      524.41773     -1255.808      -110.17717      75818.337      42.324459      42.324459      42.324459      0.64999999    -710.12931      127.03438     -808.08927    
    159000   79500          483.18906     -910.8068       2848.1446      3855.2534      5788.5448     -1933.2914      2142.8543      3406.5444     -6673.5516      3.9728408     -79.301558      523.20786     -1257.0176     -110.17717      75818.337      42.324459      42.324459      42.324459      0.64999999    -307.86834     -1708.7008     -715.85128    
    160000   80000          484.42375      626.25762      4510.1281      3817.6546      5803.3362     -1985.6816      2131.5845      3341.6655     -6687.982       4.0071751     -40.629801      521.8412      -1256.1682     -110.17717      75818.337      42.324459      42.324459      42.324459      0.64999999     273.63847      1333.5976      271.53676    
    161000   80500          466.45518     -483.43418      3196.0351      3730.584       5588.075      -1857.491       2245.8927      3407.7657     -6720.4686      5.0747385     -69.258641      524.94439     -1251.4413     -110.17717      75818.337      42.324459      42.324459      42.324459      0.64999999    -1383.4939     -527.35598      460.54736    
    162000   81000          480.02844     -222.60848      3541.4994      3787.6449      5750.681      -1963.0361      2194.4933      3344.3289     -6770.3524      5.5034729     -11.6404        525.4164      -1250.7854     -110.17717      75818.337      42.324459      42.324459      42.324459      0.64999999    -565.85407     -720.93193      618.96055    
[...]
    252000   126000         592.39485     -435.93965      5907.7452      6389.7779      7096.8167     -707.03873      2628.1841      3905.3906     -6526.1301      5.6216146      20.92272       518.34397     -1259.3716     -110.17717      75818.337      42.324459      42.324459      42.324459      0.64999999     304.26412     -347.74241     -1264.3407    
    253000   126500         588.09333      297.22091      6605.2016      6276.5547      7045.285      -768.73029      2609.7234      3922.6204     -6606.3564      2.6039609      49.247262      510.86237     -1257.4312     -110.17717      75818.337      42.324459      42.324459      42.324459      0.64999999    -380.43349      224.60871      1047.4875    
    254000   127000         586.86173      57.188428      6459.6877      6396.4526      7030.5305     -634.07787      2585.433       3949.6769     -6517.9843      7.5940382      89.371891      512.34451     -1260.514      -110.17717      75818.337      42.324459      42.324459      42.324459      0.64999999    -141.10021      199.44005      113.22544    
    255000   127500         573.27021     -1552.8519      4690.9807      6408.0198      6867.7058     -459.68604      2766.7378      3933.2284     -6557.1688      7.2562662      127.61694      519.74175     -1257.0985     -110.17717      75818.337      42.324459      42.324459      42.324459      0.64999999    -880.09763     -146.26544     -3632.1927    
    256000   128000         592.49946     -146.82471      6453.5781      6615.9269      7098.0698     -482.14288      2729.8282      3992.0982     -6534.1077      6.6043115      58.717239      521.71831     -1257.0014     -110.17717      75818.337      42.324459      42.324459      42.324459      0.64999999     423.24171     -1201.9267      338.21092    
    257000   128500         586.6079       442.76077      7023.0443      6533.4692      7027.4897     -494.02041      2740.6418      4101.2314     -6690.5868      5.3697884      91.024189      518.22601     -1259.9268     -110.17717      75818.337      42.324459      42.324459      42.324459      0.64999999     151.73153      14.917612      1161.6332    
    258000   129000         610.34138      110.86032      7213.1083      7090.5265      7311.8138     -221.28733      2784.5268      4232.513      -6613.9416      5.6863528      116.45746      514.36091     -1260.8903     -110.17717      75818.337      42.324459      42.324459      42.324459      0.64999999    -305.12654      1404.8663     -767.15886    
    259000   129500         591.08708     -317.1784       6180.237       6530.9515      7081.1497     -550.19819      2676.3982      4004.6155     -6576.3332      8.6880886      66.780867      525.46802     -1255.8157     -110.17717      75818.337      42.324459      42.324459      42.324459      0.64999999    -266.28255     -609.03441     -76.21824     
    260000   130000         600.08343     -575.61184      6075.1446      6711.6174      7188.9248     -477.30734      2720.6546      4050.4113     -6596.499       8.0059286      71.885299      523.49778     -1255.2632     -110.17717      75818.337      42.324459      42.324459      42.324459      0.64999999    -219.46659     -757.11537     -750.25355    
    261000   130500         601.15632      1654.8861      8469.927       6640.0653      7201.7779     -561.7126       2660.2914      4018.834      -6666.5546      8.0225707      162.40744      513.03365     -1257.7471     -110.17717      75818.337      42.324459      42.324459      42.324459      0.64999999     1817.4138      905.17939      2242.0652    
    262000   131000         587.34824     -887.70924      5372.4033      6353.9724      7036.3589     -682.38643      2696.6589      3873.9418     -6616.0047      6.2231334      94.764801      519.88386     -1257.8542     -110.17717      75818.337      42.324459      42.324459      42.324459      0.64999999    -2157.7487      643.39327     -1148.7723    
    263000   131500         602.24805     -1383.7163      5158.8241      6688.8444      7214.8567     -526.01231      2709.0247      4063.2929     -6610.9793      4.3063797      43.944517      520.79427     -1256.3959     -110.17717      75818.337      42.324459      42.324459      42.324459      0.64999999    -2265.831      -484.79998     -1400.5179    
    264000   132000         599.45746      39.946996      6674.4906      6630.3199      7181.4257     -551.1058       2662.2861      3964.345      -6554.4716      5.3576359      105.4681       523.22036     -1257.3115     -110.17717      75818.337      42.324459      42.324459      42.324459      0.64999999    -249.19946      1396.1149     -1027.0745    
    265000   132500         613.46502     -365.75086      6287.7464      6692.1691      7349.2346     -657.06551      2625.3044      3941.6028     -6580.1973      5.0163268      96.161672      515.33183     -1260.2853     -110.17717      75818.337      42.324459      42.324459      42.324459      0.64999999    -2399.6952      1180.6669      121.77569    
    266000   133000         617.19394     -624.90181      6197.3752      6888.3495      7393.9067     -505.55715      2762.0458      3963.7838     -6541.8205      5.5904046      48.44329       516.19087     -1259.7909     -110.17717      75818.337      42.324459      42.324459      42.324459      0.64999999     130.82403     -643.21647     -1362.313     
    267000   133500         615.6223       81.4383        7091.1089      7001.0599      7375.0786     -374.01869      2719.8586      4095.0788     -6543.7703      7.5029662      75.157737      525.60368     -1253.4501     -110.17717      75818.337      42.324459      42.324459      42.324459      0.64999999     237.43339      105.8726      -98.991091    
    268000   134000         603.66445     -758.3872       6044.6611      6883.2346      7231.825      -348.59039      2679.077       4136.7396     -6539.8581      8.1791457      103.6529       519.12791     -1255.5088     -110.17717      75818.337      42.324459      42.324459      42.324459      0.64999999    -1663.9939     -1056.1814      445.01375    
    269000   134500         598.91942     -1028.2608      5548.6292      6685.6108      7174.9801     -489.36928      2699.477       4073.3845     -6620.1465      5.8552673      97.014998      512.72941     -1257.6839     -110.17717      75818.337      42.324459      42.324459      42.324459      0.64999999    -1830.2738     -1524.0774      269.56871    
    270000   135000         606.85271     -102.97504      6776.5391      6890.402       7270.02       -379.61803      2778.6677      4058.0451     -6575.6539      4.9806726      89.773815      520.31277     -1255.7442     -110.17717      75818.337      42.324459      42.324459      42.324459      0.64999999     255.44749      357.77588     -922.14849    
    271000   135500         611.19048     -333.47862      6601.4065      6970.1447      7321.9859     -351.84115      2646.8701      4232.3286     -6615.9162      8.8096931      122.91028      513.51254     -1260.3561     -110.17717      75818.337      42.324459      42.324459      42.324459      0.64999999    -1524.7226      609.37894     -85.092182    
    272000   136000         624.32476      945.57314      8163.9187      7118.3675      7479.333      -360.96547      2765.7414      4004.1412     -6510.0285      6.2919933      120.41595      513.11744     -1260.6449     -110.17717      75818.337      42.324459      42.324459      42.324459      0.64999999     314.03311      798.67274      1724.0136    
    273000   136500         600.29946     -251.3071       6515.9713      6793.8497      7191.5129     -397.66316      2731.3157      4100.8906     -6567.5109      4.2801447      80.901592      512.82127     -1260.3615     -110.17717      75818.337      42.324459      42.324459      42.324459      0.64999999     530.27967      584.06804     -1868.269     
    274000   137000         609.37556      666.23441      7704.4243      6967.7472      7300.2434     -332.49621      2726.9932      4117.8088     -6581.6852      4.2860007      136.5388       518.68061     -1255.1184     -110.17717      75818.337      42.324459      42.324459      42.324459      0.64999999    -445.20172      1022.776       1421.1289    
    275000   137500         611.14036     -605.46224      6336.4981      7005.9774      7321.3855     -315.40806      2727.914       4064.4268     -6545.4323      4.3285186      169.40659      518.17848     -1254.2302     -110.17717      75818.337      42.324459      42.324459      42.324459      0.64999999    -1044.7148      403.76387     -1175.4358    
    276000   138000         616.16948     -402.7365       6620.3499      7065.6688      7381.6337     -315.9649       2814.5352      4117.9045     -6586.5675      3.97707        68.953835      520.81231     -1255.5803     -110.17717      75818.337      42.324459      42.324459      42.324459      0.64999999     765.86568     -1149.9989     -824.0763     
    277000   138500         612.40497      96.064268      6978.7709      6872.5495      7336.5354     -463.98585      2679.5299      4109.7537     -6610.0199      6.1352083      90.558224      518.33554     -1258.2785     -110.17717      75818.337      42.324459      42.324459      42.324459      0.64999999     1029.7954     -39.319391     -702.28319    
    278000   139000         619.91271      353.54333      7575.2665      7184.3421      7426.4771     -242.13504      2760.0639      4212.2739     -6598.6521      6.505782       112.97506      519.61428     -1254.9159     -110.17717      75818.337      42.324459      42.324459      42.324459      0.64999999     1284.7475      600.65119     -824.76869    
    279000   139500         609.25277      1058.3745      8296.1661      7125.8868      7298.7723     -172.88549      2768.8615      4185.4679     -6543.5243      6.5090238      149.82774      518.30522     -1258.3327     -110.17717      75818.337      42.324459      42.324459      42.324459      0.64999999     1813.5338     -444.83104      1806.4206    
    280000   140000         602.32285     -1058.7568      5652.613       6823.315       7215.7528     -392.43784      2703.1989      4052.7443     -6539.7421      3.7356434      125.93592      516.93856     -1255.2491     -110.17717      75818.337      42.324459      42.324459      42.324459      0.64999999    -722.98868     -2255.9614     -197.32038    
    281000   140500         610.8739      -754.95407      6257.4847      7092.2621      7318.1934     -225.93123      2865.6015      4058.3876     -6502.2925      3.5218753      89.796422      514.39392     -1255.34       -110.17717      75818.337      42.324459      42.324459      42.324459      0.64999999    -342.96106     -730.69864     -1191.2025    
    282000   141000         626.86086     -693.82332      6442.5003      7209.6834      7509.7151     -300.03165      2875.8181      4124.2017     -6660.2818      5.6730873      87.603749      522.32044     -1255.3669     -110.17717      75818.337      42.324459      42.324459      42.324459      0.64999999     49.681523     -660.47333     -1470.6782    
    283000   141500         629.29538      521.7265       7879.1647      7302.2746      7538.8803     -236.60567      2769.2957      4209.9539     -6577.9143      2.6719233      104.95926      514.8401      -1260.4123     -110.17717      75818.337      42.324459      42.324459      42.324459      0.64999999     514.15914      379.86679      671.15356    
    284000   142000         621.15476     -561.38486      6676.4007      7297.1423      7441.3567     -144.21447      2737.4487      4283.2099     -6591.3503      7.0041545      157.17799      520.05767     -1257.7625     -110.17717      75818.337      42.324459      42.324459      42.324459      0.64999999    -1507.7952      1759.8403     -1936.1998    
    285000   142500         619.33259      275.78296      7427.1743      7122.2321      7419.5274     -297.29536      2816.4056      4104.715      -6607.2252      2.6034924      121.75889      519.75048     -1255.3036     -110.17717      75818.337      42.324459      42.324459      42.324459      0.64999999     388.7734       2287.6269     -1849.0515    
    286000   143000         616.4562       625.83171      7949.4156      7257.4131      7385.0686     -127.65553      2911.5042      4212.8158     -6616.3911      9.1477862      90.347828      520.65107     -1255.7311     -110.17717      75818.337      42.324459      42.324459      42.324459      0.64999999     1166.3673     -947.16994      1658.2978    
    287000   143500         620.65883     -1797.5665      5438.6965      7426.3246      7435.4155     -9.0909767      2954.6871      4318.7302     -6579.5808      5.6246665      30.268229      518.9636      -1257.784      -110.17717      75818.337      42.324459      42.324459      42.324459      0.64999999    -483.40873     -2769.6987     -2139.5922    
    288000   144000         629.75931      1020.7163      8622.068       7493.4287      7544.4382     -51.009462      2885.8991      4207.8959     -6543.5062      6.2629647      135.50491      515.84657     -1258.9127     -110.17717      75818.337      42.324459      42.324459      42.324459      0.64999999    -229.90339      2831.9793      460.07294    
    289000   144500         637.65065     -306.80893      7267.2416      7606.4903      7638.9754     -32.485157      2842.02        4338.8925     -6578.2895      5.4231221      96.452739      520.75464     -1257.7387     -110.17717      75818.337      42.324459      42.324459      42.324459      0.64999999     17.930041     -938.46928      0.11244529   
    290000   145000         621.61773      249.90946      7547.9378      7271.6047      7446.9031     -175.29834      2814.0418      4180.434      -6594.3922      3.586576       165.39903      513.72321     -1258.0908     -110.17717      75818.337      42.324459      42.324459      42.324459      0.64999999     1084.8592      92.515734     -427.64654    
    291000   145500         643.42101      647.01412      8187.5347      7472.11        7708.1036     -235.99356      2783.9579      4130.8117     -6527.9527      4.4369806      118.75374      513.18349     -1259.1847     -110.17717      75818.337      42.324459      42.324459      42.324459      0.64999999    -329.2265       2363.0496     -92.780773    
    292000   146000         628.8507       527.53897      8074.1827      7490.8656      7533.5531     -42.687534      2806.8148      4324.4925     -6608.3181      9.9977245      157.31905      523.65111     -1256.6446     -110.17717      75818.337      42.324459      42.324459      42.324459      0.64999999     513.56495      2407.2046     -1338.1527    
    293000   146500         623.19036      899.65808      8377.1141      7382.3327      7465.743      -83.41028       2772.7042      4341.9141     -6614.3255      6.6411779      147.20054      518.3375      -1255.8824     -110.17717      75818.337      42.324459      42.324459      42.324459      0.64999999    -117.88851      1653.4971      1163.3657    
    294000   147000         633.47529      52.474505      7471.0812      7413.0584      7588.9551     -175.89668      2815.7444      4179.8658     -6569.9609      7.1786254      122.18732      525.01432     -1255.9262     -110.17717      75818.337      42.324459      42.324459      42.324459      0.64999999    -684.7279      -338.00636      1180.1578    
    295000   147500         630.46242      299.60908      7502.6314      7171.3439      7552.8613     -381.51747      2758.3894      3983.4776     -6567.0391      8.3816978      166.83642      520.73012     -1252.2937     -110.17717      75818.337      42.324459      42.324459      42.324459      0.64999999    -108.31889      644.43477      362.71137    
    296000   148000         624.58066     -1069.3585      6318.2617      7500.6863      7482.3986      18.287664      2832.1168      4388.2035     -6585.6992      5.9782345      114.08217      521.11575     -1257.5096     -110.17717      75818.337      42.324459      42.324459      42.324459      0.64999999    -370.76426     -426.85514     -2410.4561    
    297000   148500         632.34151      154.45732      7517.6216      7346.8331      7575.3726     -228.53954      2689.107       4294.5465     -6571.2477      7.5575519      93.110534      515.15594     -1256.7694     -110.17717      75818.337      42.324459      42.324459      42.324459      0.64999999     481.02107      1154.5351     -1172.1842    
    298000   149000         632.7136      -550.37743      6855.4609      7464.0312      7579.8302     -115.79898      2840.1453      4179.5089     -6506.405       3.5820487      110.10678      516.35037     -1259.0874     -110.17717      75818.337      42.324459      42.324459      42.324459      0.64999999    -544.69206     -516.88102     -589.5592     
    299000   149500         648.07868     -168.53913      7485.1668      7671.526       7763.902      -92.375998      2829.7002      4282.9068     -6604.2841      4.9322563      131.46619      518.71578     -1255.8131     -110.17717      75818.337      42.324459      42.324459      42.324459      0.64999999    -1927.2317     -311.92305      1733.5374    
    300000   150000         652.5242       27.01754       7574.0715      7544.1973      7817.1587     -272.96141      2782.4537      4197.9215     -6599.92        6.9648945      81.956478      515.03369     -1257.3716     -110.17717      75818.337      42.324459      42.324459      42.324459      0.64999999     1530.5139     -718.58789     -730.87337    
Loop time of 1564.04 on 8 procs for 300000 steps with 4020 atoms

Performance: 8.286 ns/day, 2.896 hours/ns, 191.811 timesteps/s, 771.080 katom-step/s
96.5% CPU use with 8 MPI tasks x 1 OpenMP threads

MPI task timing breakdown:
Section |  min time  |  avg time  |  max time  |%varavg| %total
---------------------------------------------------------------
Pair    | 532.82     | 583.63     | 639.55     | 146.5 | 37.32
Bond    | 103.3      | 127.22     | 144.38     | 129.7 |  8.13
Kspace  | 569.08     | 586.18     | 610.09     |  60.1 | 37.48
Neigh   | 18.635     | 23.59      | 27.629     |  64.6 |  1.51
Comm    | 36.987     | 37.565     | 38.162     |   7.6 |  2.40
Output  | 0.32633    | 0.3609     | 0.39305    |   3.7 |  0.02
Modify  | 139.21     | 199.52     | 252.35     | 258.0 | 12.76
Other   |            | 5.98       |            |       |  0.38

Nlocal:          502.5 ave         551 max         415 min
Histogram: 1 0 1 0 1 0 0 1 1 3
Nghost:        4086.75 ave        4203 max        4002 min
Histogram: 2 2 0 1 0 0 0 1 0 2
Neighs:              0 ave           0 max           0 min
Histogram: 8 0 0 0 0 0 0 0 0 0
FullNghs:       171983 ave      199150 max      128488 min
Histogram: 1 1 0 0 1 0 0 1 2 2

Total # of neighbors = 1375866
Ave neighs/atom = 342.25522
Ave special neighs/atom = 5.7761194
Neighbor list builds = 7062
Dangerous builds = 0

# --- Cleanup ---
unfix nvt_fix

undump dump_nvt

# --- Write Output ---
write_dump all custom nvt_softheat_last.dump id type mol x y z xu yu zu vx vy vz modify sort id
write_data /home/alexzhao/PolyJarvis/data/PROPSULFIDE_CURATED/lammps/equil/nvt_softheat/nvt_softheat_out.data
System init for write_data ...
PPPM initialization ...
  using 12-bit tables for long-range coulomb
  G vector (1/distance) = 0.28087215
  grid = 24 24 24
  stencil order = 5
  estimated absolute RMS force accuracy = 0.00034737707
  estimated relative force accuracy = 1.0461157e-06
  using double precision KISS FFT
  3d grid and FFT values/proc = 6859 1728
Generated 15 of 15 mixed pair_coeff terms from sixthpower/sixthpower mixing rule

print "STAGE COMPLETE: NVT T=300.0->640.0K steps=300000"
STAGE COMPLETE: NVT T=300.0->640.0K steps=300000
quit
