LAMMPS data file via write_data, version 22 Jul 2025, timestep = 300000, units = real

4020 atoms
6 atom types
4010 bonds
7 bond types
7600 angles
12 angle types
9570 dihedrals
14 dihedral types
4800 impropers
11 improper types

0 42.32445924 xlo xhi
0 42.32445924 ylo yhi
0 42.32445924 zlo zhi

Masses

1 12.01115
2 12.01115
3 1.00797
4 1.00797
5 32.064
6 32.064

Pair Coeffs # lj/class2/coul/long/gpu

1 0.054 4.01
2 0.054 4.01
3 0.02 2.995
4 0.02 2.995
5 0.071 4.027
6 0.071 4.027

Bond Coeffs # class2

1 1.53 299.67 -501.77 679.81
2 1.101 345 -691.89 844.6
3 1.823 225.277 -327.706 488.972
4 1.101 345 -691.89 844.6
5 1.823 225.277 -327.706 488.972
6 1.823 225.277 -327.706 488.972
7 1.3261 275.112 -531.318 562.963

Angle Coeffs # class2

1 112.67 39.516 -7.443 -9.5583
2 110.77 41.453 -10.604 5.129
3 112.564 47.0276 -10.679 -10.1687
4 112.564 47.0276 -10.679 -10.1687
5 97.5 57.6938 -5.0559 -11.8206
6 110.77 41.453 -10.604 5.129
7 112.564 47.0276 -10.679 -10.1687
8 96.8479 56.7336 14.2713 0
9 107.66 39.641 -12.921 -2.4318
10 107.852 51.4949 -13.527 7.026
11 107.852 51.4949 -13.527 7.026
12 107.852 51.4949 -13.527 7.026

BondBond Coeffs

1 0 1.53 1.53
2 3.3872 1.53 1.101
3 10.9186 1.53 1.823
4 10.9186 1.53 1.823
5 -22.3144 1.823 1.823
6 3.3872 1.53 1.101
7 10.9186 1.53 1.823
8 -0.57 1.823 1.3261
9 5.3316 1.101 1.101
10 7.0463 1.101 1.823
11 7.0463 1.101 1.823
12 7.0463 1.101 1.823

BondAngle Coeffs

1 8.016 8.016 1.53 1.53
2 20.754 11.421 1.53 1.101
3 -3.5621 22.3865 1.53 1.823
4 -3.5621 22.3865 1.53 1.823
5 -13.0015 -13.0015 1.823 1.823
6 20.754 11.421 1.53 1.101
7 -3.5621 22.3865 1.53 1.823
8 10.7325 5.1221 1.823 1.3261
9 18.103 18.103 1.101 1.101
10 9.3225 44.9874 1.101 1.823
11 9.3225 44.9874 1.101 1.823
12 9.3225 44.9874 1.101 1.823

Dihedral Coeffs # class2

1 0 0 0.0316 0 -0.1681 0
2 -0.7017 0 0.0201 0 0.104 0
3 -0.4871 0 -0.4514 0 -0.1428 0
4 -0.5073 0 0.0155 0 -0.0671 0
5 -0.3338 0 -0.0684 0 -0.1706 0
6 -0.5073 0 0.0155 0 -0.0671 0
7 -0.3338 0 -0.0684 0 -0.1706 0
8 -0.1432 0 0.0617 0 -0.1083 0
9 -0.2078 0 -0.106 0 -0.3595 0
10 -0.2078 0 -0.106 0 -0.3595 0
11 -0.2078 0 -0.106 0 -0.3595 0
12 -0.5374 0 -0.5091 0 -0.1361 0
13 -1.2002 0 -1.2999 0 -0.1626 0
14 -1.2002 0 -1.2999 0 -0.1626 0

AngleAngleTorsion Coeffs

1 -16.164 112.67 110.77
2 -26.71 112.67 112.564
3 -28.1728 112.564 96.8479
4 -32.8949 112.564 97.5
5 -26.49 97.5 107.852
6 -32.8949 112.564 97.5
7 -26.49 97.5 107.852
8 -12.564 110.77 110.77
9 -13.1026 110.77 112.564
10 -13.1026 110.77 112.564
11 -13.1026 110.77 112.564
12 -18.6334 107.852 96.8479
13 -13.9674 112.564 112.564
14 -13.9674 112.564 112.564

EndBondTorsion Coeffs

1 0.2486 0.2422 -0.0925 0.0814 0.0591 0.2219 1.53 1.101
2 -0.1586 -0.7244 -0.2608 -0.7991 -0.959 0.5855 1.53 1.823
3 0.1026 0.0936 -0.0404 -0.3008 0.0606 0.4501 1.53 1.3261
4 -0.2542 -0.7984 -0.6525 -0.3047 -0.0109 -0.3763 1.53 1.823
5 0.2592 -0.0166 0.1306 -0.41 0.0668 0.4187 1.823 1.101
6 -0.2542 -0.7984 -0.6525 -0.3047 -0.0109 -0.3763 1.53 1.823
7 0.2592 -0.0166 0.1306 -0.41 0.0668 0.4187 1.823 1.101
8 0.213 0.312 0.0777 0.213 0.312 0.0777 1.101 1.101
9 -0.1526 -0.371 0.1048 1.0661 0.3298 0.425 1.101 1.823
10 -0.1526 -0.371 0.1048 1.0661 0.3298 0.425 1.101 1.823
11 -0.1526 -0.371 0.1048 1.0661 0.3298 0.425 1.101 1.823
12 0.4376 0.2001 -1.0696 0.2902 0.0695 0.1726 1.101 1.3261
13 -0.3252 0.5008 0.5191 -0.3252 0.5008 0.5191 1.823 1.823
14 -0.3252 0.5008 0.5191 -0.3252 0.5008 0.5191 1.823 1.823

MiddleBondTorsion Coeffs

1 -14.879 -3.6581 -0.3138 1.53
2 -4.2593 -5.6468 -3.3835 1.53
3 0.502 -1.0204 -0.9177 1.823
4 -2.5172 -2.0107 -2.8547 1.823
5 -0.6955 -2.9427 -1.2372 1.823
6 -2.5172 -2.0107 -2.8547 1.823
7 -0.6955 -2.9427 -1.2372 1.823
8 -14.261 -0.5322 -0.4864 1.53
9 -5.7537 -2.0104 0.2813 1.53
10 -5.7537 -2.0104 0.2813 1.53
11 -5.7537 -2.0104 0.2813 1.53
12 -0.3729 0.5373 -0.7035 1.823
13 1.7001 -3.3479 -0.8067 1.53
14 1.7001 -3.3479 -0.8067 1.53

BondBond13 Coeffs

1 0 1.53 1.101
2 0 1.53 1.823
3 0 1.53 1.3261
4 0 1.53 1.823
5 0 1.823 1.101
6 0 1.53 1.823
7 0 1.823 1.101
8 0 1.101 1.101
9 0 1.101 1.823
10 0 1.101 1.823
11 0 1.101 1.823
12 0 1.101 1.3261
13 0 1.823 1.823
14 0 1.823 1.823

AngleTorsion Coeffs

1 -0.2454 0 -0.1136 0.3113 0.4516 -0.1988 112.67 110.77
2 -2.0927 -0.1498 -1.7848 1.1179 0.3638 0.9423 112.67 112.564
3 -0.6045 3.8941 0.8885 1.0193 -0.6016 0.2097 112.564 96.8479
4 5.1289 2.0927 -2.4004 -4.5489 0.0886 0.6237 112.564 97.5
5 -1.0888 -0.2 -0.0909 0.5962 3.3479 0.2265 97.5 107.852
6 5.1289 2.0927 -2.4004 -4.5489 0.0886 0.6237 112.564 97.5
7 -1.0888 -0.2 -0.0909 0.5962 3.3479 0.2265 97.5 107.852
8 -0.8085 0.5569 -0.2466 -0.8085 0.5569 -0.2466 110.77 110.77
9 -2.0382 0.2102 -0.9023 0.3322 -0.0519 -0.3553 110.77 112.564
10 -2.0382 0.2102 -0.9023 0.3322 -0.0519 -0.3553 110.77 112.564
11 -2.0382 0.2102 -0.9023 0.3322 -0.0519 -0.3553 110.77 112.564
12 -2.2533 2.6948 -0.1723 1.434 -0.1915 -0.2611 107.852 96.8479
13 -5.0565 -0.6355 0.6015 -5.0565 -0.6355 0.6015 112.564 112.564
14 -5.0565 -0.6355 0.6015 -5.0565 -0.6355 0.6015 112.564 112.564

Improper Coeffs # class2

1 0 0
2 0 0
3 0 0
4 0 0
5 0 0
6 0 0
7 0 0
8 0 0
9 0 0
10 0 0
11 0 0

AngleAngle Coeffs

1 0.2738 -0.4825 0.2738 110.77 110.77 107.66
2 2.7985 -3.0031 -0.0668 110.77 112.564 107.852
3 -0.3157 -0.3157 -0.3157 107.66 107.66 107.66
4 0.5086 0.5086 -0.064 107.66 107.852 107.852
5 -1.3199 -1.3199 0.1184 112.67 110.77 110.77
6 -0.2564 -0.2564 -0.8766 112.67 112.564 112.564
7 -0.2564 -0.2564 -0.8766 112.67 112.564 112.564
8 2.7985 -3.0031 -0.0668 110.77 112.564 107.852
9 2.7985 -3.0031 -0.0668 110.77 112.564 107.852
10 -0.0668 -3.0031 2.7985 112.564 110.77 107.852
11 -0.0668 -3.0031 2.7985 112.564 110.77 107.852

Atoms # full

1708 5 6 -0.13 3.5346892540285046 1.7228641736457508 4.241693509082265 1 1 0
1719 5 1 -0.041 0.5300155142522434 0.6992205201238246 5.5141456320738325 1 1 0
1715 5 3 0.053 0.08247636589664417 1.132831996048398 2.4962559089424623 1 1 0
1717 5 3 0.053 1.5980901907499112 0.8269487596047099 1.4270058800708458 1 1 0
1714 5 1 -0.159 0.7928229317663252 0.42795241729439704 2.09454304281495 1 1 0
3833 10 3 0.053 4.020074672432479 4.412449617906928 3.1337616161971793 1 1 1
3828 10 6 -0.13 1.5908880416992928 5.698137352481748 1.3773885796376046 1 1 1
3834 10 1 -0.159 3.8859764276997764 5.302522103310219 5.065452118786419 1 1 1
3837 10 3 0.053 4.8150685875743156 5.196985906785176 5.4828767278562385 1 1 1
3829 10 1 -0.041 2.2847716845263863 5.716701751471585 3.135213569937172 1 1 1
3832 10 2 0.012 3.7674483689389335 5.4464536044141525 3.4488247036405553 1 1 1
3835 10 3 0.053 3.246848506664285 4.425426642023129 5.250665553383874 1 1 1
3831 10 3 0.053 1.6698084923064607 4.7923576764599956 3.5103816015540383 1 1 1
1702 5 2 0.012 5.170459536748236 1.1519311068135305 4.603496017934446 1 1 0
1710 5 3 0.053 3.5874117748071415 0.22284632103462154 2.6648991380182876 1 1 0
1720 5 3 0.053 0.8327998034082864 1.6238172206183341 4.864691756854206 1 1 0
1709 5 1 -0.041 3.0062868913323735 0.04304591064647806 3.5823476095233353 1 1 0
1703 5 3 0.053 5.640069913345576 0.41339744028764586 3.9506570025562997 1 1 0
3846 10 3 0.053 9.332848622123384 5.090201455236607 1.7607344321151 1 1 1
1707 5 3 0.053 6.283126244333709 2.5937677036289055 3.3602720238281294 1 1 0
3840 10 3 0.053 6.6946206137277375 5.032308253599195 2.6419683522876793 1 1 1
1097 3 3 0.053 11.145396260745523 1.136969667931798 5.4743313080431735 0 0 0
1704 5 1 -0.159 6.214183377801263 2.315288419317364 4.432208419322145 1 1 0
1705 5 3 0.053 6.052484406549852 3.0375618806991005 5.210512994332519 1 1 0
1706 5 3 0.053 7.268254945866967 1.7998520319313442 4.610659791462059 1 1 0
2877 8 3 0.053 11.222917193960445 0.09690496148104392 0.07799878006889635 0 0 1
2882 8 3 0.053 9.12624390934695 0.23329900450355429 1.8787552444116042 0 0 1
1101 3 3 0.053 9.334591184577887 0.13718442213900392 4.1398436360188535 0 0 0
1343 4 3 0.053 13.578975461467548 3.7967755899013818 5.6307815710275415 0 0 0
1342 4 1 -0.159 13.503054421668077 4.2980510482905725 4.659098002631974 0 0 0
1344 4 3 0.053 13.391370914027398 3.5253710108669964 3.898197874844702 0 0 0
1340 4 2 0.012 14.82955414696601 5.1663947712817935 4.358923783765726 0 0 0
1337 4 1 -0.041 16.099059970766724 4.238209004743062 4.271967445531014 0 0 0
1338 4 3 0.053 16.099529637065398 3.4237445605203685 4.94660300814936 0 0 0
1339 4 3 0.053 16.116713739254916 3.822158437868048 3.2007388964023398 0 0 0
1349 4 3 0.053 12.720410842681835 5.1270330430392255 1.4581874815690927 0 0 0
1348 4 3 0.053 14.172128961159624 3.9902297188291147 1.6097503728489477 0 0 0
1350 4 2 0.012 14.250459094957888 5.432562903303413 0.017915792648512032 0 0 0
1345 4 3 0.053 12.540515370174766 4.8346256001299315 4.627381238692283 0 0 0
1347 4 1 -0.041 13.859804905524623 5.077112416169137 1.4355025999102158 0 0 0
2863 8 3 0.053 15.787579471436056 1.3772800069893631 0.7680755562679422 0 0 1
2860 8 1 -0.159 16.787805656068894 1.3511165714442785 0.22526478281092782 0 0 1
1354 4 3 0.053 16.286035087085402 4.83495830357766 0.13912328982132716 0 0 0
1336 4 6 -0.13 17.670621538863852 5.086639679407463 4.2976838800785595 0 0 0
2861 8 3 0.053 17.33352840466427 0.45266569845671173 0.4681633216560737 0 0 1
1320 4 2 0.012 20.501964010244492 2.7743290633732762 5.181499916425753 0 0 0
1315 4 3 0.053 20.54808579413076 5.242098382962348 0.5439635603847235 0 0 0
1325 4 3 0.053 18.557079635053164 2.7023633799058144 3.8393658291633987 0 0 0
1322 4 1 -0.159 19.38141725067391 2.0795655365311707 4.310213320778123 0 0 0
1323 4 3 0.053 19.890675215139797 1.6730455197558423 3.4393207325127526 0 0 0
1321 4 3 0.053 21.12398114530486 2.0002066286197397 5.557548011806615 0 0 0
1316 4 6 -0.13 20.664875145730775 4.781480509691915 3.174559485159491 0 0 0
1324 4 3 0.053 18.94954644976564 1.4330740155769361 4.904440343393951 0 0 0
2862 8 3 0.053 17.36598379076748 2.174315531095271 0.5941489555001127 0 0 1
3827 10 3 0.053 0.8380609259371459 8.473625088533073 0.5385511600542296 1 1 1
3826 10 3 0.053 1.6388799331032504 8.499221030843024 2.053212313029007 1 1 1
3836 10 3 0.053 3.4316116544800868 6.1754989757469545 5.500478548938506 1 1 1
3838 10 6 -0.13 4.905417600901658 6.608424324377677 2.5323822714403894 1 1 1
3830 10 3 0.053 2.0168659629916545 6.625942951769604 3.796318905164333 1 1 1
3822 10 2 0.012 0.18190543181381807 6.882207155384431 1.789762958789082 1 1 1
3824 10 1 -0.159 0.6438884457461448 8.321097200553744 1.5810096972064358 1 1 1
3849 10 1 -0.041 8.451608548676736 9.329770399071819 0.6730048900228629 1 1 1
3850 10 3 0.053 9.117514632435208 8.661643716466587 0.11598045702183564 1 1 1
3851 10 3 0.053 9.141430161332762 10.05950200844399 1.1281593544989463 1 1 1
3845 10 3 0.053 9.62226621564534 6.6618255556794965 2.7984265434469138 1 1 1
3844 10 1 -0.159 9.168087866570215 6.256285749573684 1.8837451782916987 1 1 1
3847 10 3 0.053 9.697770007536189 6.827950832044573 1.1670985165464454 1 1 1
3842 10 2 0.012 7.667729705855837 6.769796532313704 1.7290103931529213 1 1 1
3841 10 3 0.053 6.903421285265817 6.267847857457476 3.852577199694582 1 1 1
3839 10 1 -0.041 6.6538314775543945 6.092562765480516 2.8446188548877682 1 1 1
3848 10 6 -0.13 7.70384582489718 8.59125030339121 2.099030299994751 1 1 1
1860 5 3 0.053 7.398177084800843 11.303161408463394 4.818197873454654 1 1 0
1863 5 3 0.053 8.316516763291641 10.986085453394525 2.6671829909620417 1 1 0
1861 5 3 0.053 9.244760033028985 11.285795210078419 4.435657372020126 1 1 0
1867 5 3 0.053 6.0761952760436095 11.35332267905097 2.5261257191608872 1 1 0
3843 10 3 0.053 7.252840278269181 6.592034215958 0.7615756569857702 1 1 1
3853 10 3 0.053 6.545699067610279 10.319275411415232 0.05387964530683169 1 1 1
1346 4 6 -0.13 14.66752516676516 6.170639749834837 2.7288148056066928 0 0 0
1847 5 3 0.053 12.046184223565286 9.454804745190714 4.571466881822794 1 1 0
1844 5 1 -0.159 12.3080973299699 10.573112806883469 4.662244646723368 1 1 0
1845 5 3 0.053 13.275237417537822 10.84258067348622 4.149304730051369 1 1 0
1846 5 3 0.053 11.542342398669245 11.228753367961815 4.0856368174962645 1 1 0
1341 4 3 0.053 14.853761111566302 5.944924463172036 5.201334846327579 0 0 0
1291 4 3 0.053 20.43714653187413 10.407925189201436 2.275946571501462 0 0 0
1884 5 1 -0.159 2.014054126143945 16.2106068495039 3.420350306922417 1 1 0
1883 5 3 0.053 2.52511965352904 15.039631338749516 1.6750148643886038 1 1 0
1879 5 1 -0.041 4.308957000385129 15.358299605168469 2.7567066223231222 1 1 0
1881 5 3 0.053 4.258998260148912 14.319356641331444 3.0876696280865414 1 1 0
1882 5 2 0.012 2.9002341982999216 15.842796688339432 2.255062250859696 1 1 0
1878 5 6 -0.13 5.615594601955671 15.41218767391895 1.4252245073074727 1 1 0
1886 5 3 0.053 0.9863586049949891 16.06339248557875 3.2538440869177734 1 1 0
1880 5 3 0.053 4.891056531479522 16.017588328432346 3.387940346141571 1 1 0
1887 5 3 0.053 2.2642960735926687 15.550788192966795 4.366501917136633 1 1 0
1888 5 6 -0.13 2.9718329420516345 17.22461258610651 1.0716825149284968 1 1 0
1862 5 2 0.012 7.990476624951849 11.98061451762575 2.9822205594351505 1 1 0
1859 5 1 -0.041 8.339201666116546 11.884799195874686 4.4331998548719875 1 1 0
1866 5 3 0.053 6.506364396267955 12.802951921184158 1.588258526592362 1 1 0
1864 5 1 -0.159 6.5764941105197225 12.354801098807929 2.6026865725888237 1 1 0
1873 5 3 0.053 6.823762840466782 15.101940412066986 3.7413299618511013 1 1 0
1872 5 2 0.012 7.159465905547886 15.515064288873532 2.6679808196227937 1 1 0
1871 5 3 0.053 8.9252780197422 15.31102120997053 1.239858777788771 1 1 0
1865 5 3 0.053 6.239563945221085 13.041532835578872 3.299124944074529 1 1 0
1870 5 3 0.053 9.339207696893865 15.211949221830878 3.047383728035491 1 1 0
1858 5 6 -0.13 8.335180863830267 13.411146159844566 5.295135090791588 1 1 0
1869 5 1 -0.041 8.578218786458308 14.971079385266494 2.2983245714338043 1 1 0
1868 5 6 -0.13 8.972584282910233 13.111710255648862 1.9350495449423453 1 1 0
1877 5 3 0.053 8.350739459668057 17.016059134101052 3.4108602023172767 1 1 0
1874 5 1 -0.159 7.436599154481344 17.053055401635987 2.81755633629499 1 1 0
1259 4 3 0.053 12.133959996671434 16.853045031071286 5.38474408000522 0 0 0
1260 4 2 0.012 14.037596959756529 15.75500497425167 4.459680126290949 0 0 0
1257 4 1 -0.041 13.135218859480243 16.4844268271474 5.596904124500695 0 0 0
1261 4 3 0.053 14.985620380307717 15.791535542881745 4.904603799450953 0 0 0
1263 4 3 0.053 12.599370396431667 13.942609682624246 3.6850831606794765 0 0 0
1265 4 3 0.053 14.359591761659514 13.831384509557912 3.485225848163928 0 0 0
1262 4 1 -0.159 13.642327561118215 14.209374336708844 4.2088875287866445 0 0 0
1266 4 6 -0.13 14.27714018253955 16.456025868590885 2.8492964368920193 0 0 0
1264 4 3 0.053 13.72990498073911 13.700347785468365 5.160227591442844 0 0 0
1295 4 3 0.053 20.860831807421665 12.313362000065208 4.00967999417513 0 0 0
1277 4 1 -0.041 19.35669624224873 16.30591519623411 1.657268274750628 0 0 0
1276 4 6 -0.13 18.080935910019704 16.19289871442097 3.0761456153361784 0 0 0
1278 4 3 0.053 18.67701031175639 16.380197012812147 0.7607513867073592 0 0 0
1280 4 2 0.012 20.50568494647293 15.262349775713016 1.7915104346255288 0 0 0
1286 4 6 -0.13 19.707684869794832 13.598635640950807 1.8219984048847004 0 0 0
1285 4 3 0.053 20.547859663577018 15.606046178105473 4.037521359670834 0 0 0
1289 4 3 0.053 20.843570180893888 12.01642611849975 0.46978328439132017 0 0 0
1287 4 1 -0.041 21.13229000461868 12.319571092347 1.465073558103128 0 0 0
1281 4 3 0.053 20.971230440777575 15.40770062406702 0.832312207903411 0 0 0
729 2 3 0.053 1.344734170304525 19.1693494528697 5.513999840526005 -1 -1 0
1885 5 3 0.053 2.1453172983059887 17.28468973423246 3.8009527389985274 1 1 0
771 2 3 0.053 4.277964039432307 20.55190645953136 2.7812167362224134 -1 -1 0
1875 5 3 0.053 7.618541826064249 17.59468739538414 1.896676794555841 1 1 0
1253 4 3 0.053 11.445820460997984 19.586009649164538 5.262427243609869 0 0 0
1876 5 3 0.053 6.6720730518437135 17.57460852801289 3.390443023729444 1 1 0
1268 4 3 0.053 15.853862597113363 17.61480566418426 4.478901101070426 0 0 0
1270 4 2 0.012 17.096031724319968 17.6827357984735 2.785033124616765 0 0 0
1267 4 1 -0.041 15.669830525336565 17.602706557949364 3.3489627215197184 0 0 0
1269 4 3 0.053 15.216444646991583 18.637483908503867 3.1082499733480753 0 0 0
1254 4 3 0.053 12.893447908757105 20.924174061303223 5.5257349694668605 0 0 0
1271 4 3 0.053 17.074647325465587 17.799259504934916 1.708282751503791 0 0 0
1275 4 3 0.053 17.147487315034933 19.739660905034587 3.532168362380425 0 0 0
1272 4 1 -0.159 17.75448230231537 18.827186915405573 3.537227847970641 0 0 0
1273 4 3 0.053 18.72890748042036 19.038914046895755 3.0953145980867007 0 0 0
1274 4 3 0.053 17.70548658641927 18.537143092754054 4.552392977056017 0 0 0
1279 4 3 0.053 19.915487663078967 17.271613161698117 1.804568086001923 0 0 0
1721 5 3 0.053 1.3377685077751347 0.5870631348613288 6.298481735181556 1 1 0
1700 5 3 0.053 5.3440333603724675 1.297725289810007 6.9576822401957505 1 1 0
1699 5 1 -0.041 5.547752873666564 0.6125460504816351 6.082092066029716 1 1 0
1811 5 3 0.053 5.026262379928804 3.635147717726306 10.055765871391907 1 1 0
1808 5 6 -0.13 5.406473717620904 4.875723955305461 8.020829839722234 1 1 0
1746 5 3 0.053 3.5863268976070906 0.36560822311005386 9.803973945910517 1 1 0
1741 5 3 0.053 1.0014589580437592 0.7900816007088564 10.0489793936954 1 1 0
1744 5 1 -0.159 3.2617153470517692 0.20992416679314774 10.902818728146109 1 1 0
1745 5 3 0.053 3.2629392879527024 1.1769271251000122 11.484737839000113 1 1 0
1095 3 1 -0.041 11.242760394868405 0.06699103525888733 5.779438426441299 0 0 0
1701 5 3 0.053 6.69175164240689 0.5862281511255257 6.089986604224567 1 1 0
1816 5 3 0.053 7.067803476163113 2.0519602080981167 11.42831421773285 1 1 0
1820 5 3 0.053 9.955969154445429 4.0130817491353605 10.423846451563708 1 1 0
1813 5 3 0.053 7.914063831521646 3.1868553308980414 9.42125166810809 1 1 0
1812 5 2 0.012 7.300337735176551 3.8308576740219595 10.05888403581696 1 1 0
1826 5 3 0.053 10.791385619728421 3.552179244333213 8.329922935157493 1 1 0
1810 5 3 0.053 5.825183225465377 2.64692895867067 8.91706038014397 1 1 0
1809 5 1 -0.041 5.8909658099324655 3.668785615630018 9.45654535376429 1 1 0
1819 5 1 -0.041 9.850071320083993 5.24306446989504 10.38133719251171 1 1 0
1821 5 3 0.053 10.03874837651756 5.726355942235683 11.45560019024175 1 1 0
1824 5 1 -0.159 10.621240002769133 4.677613300876926 7.990492999635139 1 1 0
1827 5 3 0.053 9.532738311702893 4.553078431891036 7.610878945335053 1 1 0
1818 5 6 -0.13 8.036304374419876 5.480512053782008 9.922012367338116 1 1 0
1825 5 3 0.053 11.212734509404894 4.976398673202949 7.05623884711001 1 1 0
1091 3 3 0.053 11.554176280375184 1.5932560943410667 8.059118818020107 0 0 0
1092 3 3 0.053 12.007074938921317 0.9377016110286209 9.681753660532234 0 0 0
1090 3 1 -0.159 12.281558025289167 1.1681334733105397 8.63563495740698 0 0 0
1093 3 3 0.053 12.962509323196096 2.0500168379012447 8.793834297122027 0 0 0
1331 4 3 0.053 16.841252435348338 5.201506213083997 6.606353046131656 0 0 0
1328 4 3 0.053 17.909373836647067 3.337229662315924 6.073438397910183 0 0 0
1329 4 3 0.053 18.167069223031067 3.7323398377212684 7.6891934573758025 0 0 0
1327 4 1 -0.041 18.506918697408064 4.042472348063724 6.704821083258017 0 0 0
1330 4 2 0.012 17.89235395370566 5.384487650721723 6.1669950591831215 0 0 0
1326 4 6 -0.13 20.261860622794586 3.681690688342757 6.6742170373720535 0 0 0
1795 5 3 0.053 0.27044606526067594 7.944444179528233 8.374433657800742 1 1 0
1799 5 1 -0.041 3.841066761436702 7.080658808103939 8.91938872263323 1 1 0
1798 5 6 -0.13 2.5303960398671363 6.050858562370592 9.700621217062883 1 1 0
1794 5 1 -0.159 0.10812272567416897 7.50357449021712 9.369746118461268 1 1 0
1793 5 3 0.053 1.8029109771917784 8.315051694587643 10.495622212334483 1 1 0
1792 5 2 0.012 1.3194858448822997 7.361360515215633 10.366264437003782 1 1 0
1801 5 3 0.053 4.147069576725753 8.028387262115626 9.689999880873096 1 1 0
1800 5 3 0.053 3.6411121186583646 7.383665276655589 7.873974974158729 1 1 0
1803 5 3 0.053 5.3603223782108484 6.051937843712551 10.017598303474294 1 1 0
1802 5 2 0.012 5.219949617991614 6.4132363654291735 8.937640405759304 1 1 0
2027 6 3 0.053 4.503237712792942 10.877544053581333 7.5445289856709525 1 1 0
2037 6 3 0.053 3.9438676305212956 10.649571838757412 10.551099425585349 1 1 0
2057 6 3 0.053 0.021508921924995334 11.170606771147437 8.222117154550507 1 1 0
1848 5 6 -0.13 10.634489059469802 11.139773839850157 6.838079719217191 1 1 0
1807 5 3 0.053 5.979017289638975 8.400245242047026 9.098559809406376 1 1 0
1806 5 3 0.053 7.26523125996542 7.342659430098544 8.63302248505037 1 1 0
1804 5 1 -0.159 6.213522565343303 7.606461804474447 8.459913002200603 1 1 0
1805 5 3 0.053 5.998851230812873 7.758610303325604 7.426924544543017 1 1 0
1823 5 3 0.053 10.099438726407255 6.642682652743204 8.879132784246739 1 1 0
1822 5 2 0.012 10.690099878999794 5.761711156845551 9.169498118124633 1 1 0
1842 5 2 0.012 12.416693504452759 11.166390442766708 6.1350842255644435 1 1 0
1841 5 3 0.053 14.372502658969946 9.949464717044311 6.221916853482644 1 1 0
1839 5 1 -0.041 13.709789958250063 10.581953968106202 6.900650276500549 1 1 0
1838 5 6 -0.13 13.997444188406142 10.372747069357418 8.717854178818508 1 1 0
1831 5 3 0.053 12.069965704838658 8.135368939094082 7.909638668596894 1 1 0
1829 5 1 -0.041 12.465895952398311 8.061606890372328 8.967816947680618 1 1 0
1832 5 2 0.012 13.892808826328622 8.500923284592458 9.113393818066992 1 1 0
1828 5 6 -0.13 12.464862646976227 6.308381330132298 9.488789391506238 1 1 0
1830 5 3 0.053 11.592195476960473 8.583667903170854 9.560878747867177 1 1 0
1836 5 3 0.053 14.32787845386623 7.566314222558151 7.1398822651825276 1 1 0
1837 5 3 0.053 14.84747711862066 6.724917486934813 8.47419143635148 1 1 0
1834 5 1 -0.159 14.750231175686192 7.694349844875719 8.141182257791112 1 1 0
1833 5 3 0.053 14.226159538214043 8.6162217612887 10.080083363012132 1 1 0
1835 5 3 0.053 15.701658118892272 8.226533015145952 8.05227521761235 1 1 0
1334 4 3 0.053 17.840614468198343 7.468792130624533 6.033015050247358 0 0 0
1332 4 1 -0.159 18.28593140514963 6.764817413786359 6.688424883991447 0 0 0
1333 4 3 0.053 18.112099679022304 6.884720624878872 7.732106508790473 0 0 0
1335 4 3 0.053 19.352474801228855 7.046021793079585 6.656401806545143 0 0 0
2142 6 3 0.053 20.162138583913958 10.655220192372004 9.789524065527381 0 1 0
2143 6 3 0.053 19.811840279911202 8.916675099678773 10.516003733518168 0 1 0
2141 6 1 -0.041 20.042162607363093 10.039444188973143 10.698175270830536 0 1 0
2149 6 3 0.053 17.399566043276774 9.546383793310138 10.75041504751142 0 1 0
2146 6 1 -0.159 17.61322640256462 10.560238317055262 11.057677324543896 0 1 0
2147 6 3 0.053 17.642762385152185 11.148912887214232 10.209049532093111 0 1 0
2029 6 3 0.053 4.178599787217449 12.127925255262374 6.208622363988584 1 1 0
2028 6 3 0.053 5.462464373185174 12.22204012136988 7.434090608626736 1 1 0
2035 6 3 0.053 1.8392975065285035 11.642102347866281 10.95751036394781 1 1 0
2031 6 1 -0.041 3.1373887807392355 13.392782923338135 10.905556518282738 1 1 0
2030 6 6 -0.13 4.643627604675119 13.051728746910715 9.83194963953043 1 1 0
2024 6 2 0.012 3.7282493118133777 12.902301175928997 8.300290356759538 1 1 0
2025 6 3 0.053 2.8057867075390464 12.583668382222688 8.404945103132558 1 1 0
2032 6 3 0.053 2.4522963607806303 13.901195117760219 10.182181607639412 1 1 0
2026 6 1 -0.159 4.385057945432968 11.95532346743379 7.331367675415714 1 1 0
2023 6 3 0.053 4.692957383448623 14.339738918908257 6.83308287621912 1 1 0
2022 6 3 0.053 3.096284228916959 14.100112045143566 6.387390146531857 1 1 0
2021 6 1 -0.041 3.7003185846245836 14.17324169829724 7.4410373791871 1 1 0
2020 6 6 -0.13 2.9141700193392923 15.712515925352989 8.267595752587901 1 1 0
2016 6 1 -0.159 5.266343578788732 16.6662050013682 9.654766507408404 1 1 0
2018 6 3 0.053 4.942496424054276 16.715498956534674 10.758072734489758 1 1 0
2017 6 3 0.053 5.647497756379288 15.628221518639457 9.47550916928262 1 1 0
2012 6 3 0.053 5.314428210239388 16.92291521739452 6.691225958134433 1 1 0
2014 6 2 0.012 4.227179819939573 17.055041147647376 8.619526684286065 1 1 0
1853 5 3 0.053 8.292784733468421 12.001296290983241 7.118986008932136 1 1 0
1849 5 1 -0.041 10.351043119915026 12.863234133504168 6.967465375668005 1 1 0
1852 5 2 0.012 8.760046445837007 12.957905529149118 6.955435845120807 1 1 0
1856 5 3 0.053 8.410385124567147 14.933418348181739 7.6845316970244575 1 1 0
1855 5 3 0.053 8.328344683756983 13.609905606231843 9.072483132698345 1 1 0
1854 5 1 -0.159 8.20092656568305 13.896006131305471 7.979897345268981 1 1 0
2019 6 3 0.053 6.217881382248769 17.234839956601764 9.498308341967213 1 1 0
1857 5 3 0.053 7.112250905895117 14.005272349373326 7.956399238327854 1 1 0
1851 5 3 0.053 10.753852749889674 13.340652936745924 6.135485135172534 1 1 0
1850 5 3 0.053 10.73447412915092 13.263036955335705 7.923327694816565 1 1 0
1258 4 3 0.053 13.107394220206784 15.739473496472158 6.423885970377212 0 0 0
1840 5 3 0.053 14.283979551954122 11.530386968148102 6.783992075152077 1 1 0
1843 5 3 0.053 12.5761888946945 12.291816142198169 6.30024340520689 1 1 0
2177 6 3 0.053 12.116507688679189 12.126662943883296 10.280304539186327 0 1 0
2179 6 3 0.053 11.87642552883712 13.72659875067075 10.734070737900101 0 1 0
2176 6 1 -0.159 12.665242300739495 13.014907665670277 10.515418586213128 0 1 0
2178 6 3 0.053 13.208303758661023 13.39272832959843 9.642833015750396 0 1 0
2168 6 3 0.053 16.957773963373523 16.624413307518914 11.158175275246839 0 1 0
298 1 3 0.053 20.11721422926261 16.95742826987687 11.035809980532695 0 1 1
293 1 3 0.053 20.991557276514822 16.482410797331553 8.75782931407775 0 1 1
730 2 3 0.053 0.3856719151607753 19.06100454492923 6.970162498742013 -1 -1 0
718 2 1 -0.159 0.5405599233228514 18.99281095610477 11.225682469806483 -1 -1 0
2011 6 1 -0.159 4.80227373804922 17.67258822950762 7.349534764562706 1 1 0
2013 6 3 0.053 4.048857512785498 18.1405964427672 6.74422275804063 1 1 0
721 2 3 0.053 1.499549208761441 18.5647332991148 11.404956532143533 -1 -1 0
722 2 6 -0.13 1.42935753518209 20.48596769905724 9.018968459280012 -1 -1 0
2015 6 3 0.053 3.635970147688158 17.83340556222236 9.026267258712732 1 1 0
2411 6 3 0.053 5.621292006646556 18.380558048066113 7.733113029576968 1 1 0
727 2 3 0.053 2.1188546701251076 21.14185506261296 6.369538116002236 -1 -1 0
716 2 2 0.012 0.6469753241164617 20.427257704726543 10.681408630931845 -1 -1 0
728 2 1 -0.159 0.5308565434712388 19.69130274066753 6.102283426551818 -1 -1 0
720 2 3 0.053 0.06890306974748484 18.196336292859502 10.432146765336498 -1 -1 0
726 2 2 0.012 1.0157904183800046 21.11694784481527 6.383971574094019 -1 -1 0
1255 4 3 0.053 11.228489523410566 20.705293095657595 6.641711211430028 0 0 0
1241 4 3 0.053 10.625095413432701 18.397638760141515 9.648722012369534 0 0 0
1237 4 1 -0.041 10.472609396230354 19.951721182124302 11.143007797262966 0 0 0
1240 4 2 0.012 11.24389089110369 18.706118076633047 10.590129691377898 0 0 0
1252 4 1 -0.159 12.064056124701315 20.23028992123846 5.924409638376677 0 0 0
1256 4 6 -0.13 14.099079495412456 18.09501404330429 6.1146545278251905 0 0 0
1251 4 3 0.053 11.874189905225595 18.327340862857742 7.05662156038769 0 0 0
1250 4 2 0.012 12.673361027640745 19.031282996495655 6.952818347578945 0 0 0
1248 4 3 0.053 12.141986669778955 20.505908808913617 8.387695135639545 0 0 0
1246 4 6 -0.13 12.99124535902221 18.938852667092952 9.958729577322242 0 0 0
1247 4 1 -0.041 12.932712050233773 19.836177810418715 8.303287287540728 0 0 0
1249 4 3 0.053 13.934063768378925 20.280757914289385 8.242100075129471 0 0 0
292 1 3 0.053 19.71425108009907 17.780266137021155 8.716473052165115 0 1 1
300 1 6 -0.13 20.302265713859523 19.698041168484483 10.655170804145781 0 1 1
291 1 1 -0.041 20.84970588985174 17.578693469713123 8.813799428532667 0 1 1
1786 5 3 0.053 0.24923075827890165 3.842366626351616 11.686828476546346 1 1 0
1784 5 1 -0.159 0.8605085908814152 3.6853691390516694 12.654662443421607 1 1 0
1785 5 3 0.053 0.724065715194197 2.589085273220188 13.126029332077357 1 1 0
1787 5 3 0.053 1.9073912720297044 3.4947354854861588 12.380227911781136 1 1 0
1782 5 2 0.012 0.629397543016243 4.785787188847549 13.681687579086114 1 1 0
1783 5 3 0.053 1.052091166936819 4.557108845241767 14.653353381503331 1 1 0
1814 5 1 -0.159 7.3465263546228305 3.091227091288634 11.543801713940928 1 1 0
1815 5 3 0.053 8.340038935874995 3.049784198254754 11.937975852754366 1 1 0
1817 5 3 0.053 6.773998178728714 3.6423867537790384 12.199516351271741 1 1 0
2972 8 3 0.053 10.249937166730131 1.9844673828181436 16.45385273426174 0 0 0
2970 8 1 -0.159 9.286399023335346 2.1154778147671225 16.94250067773807 0 0 0
2971 8 3 0.053 8.591659571174366 2.335790338531136 16.104199837848377 0 0 0
1046 3 3 0.053 17.218865413607507 1.379972767634817 16.22654401456623 0 0 0
1041 3 3 0.053 13.678173616585791 2.261609932736826 12.804046490063937 0 0 0
1036 3 3 0.053 12.51211961857725 2.9888114929264766 15.910562656879327 0 0 0
1039 3 3 0.053 14.557716188418524 3.645724264256631 14.319166527379833 0 0 0
1037 3 3 0.053 13.688633853692878 2.08227215570438 16.752003138703323 0 0 0
1038 3 2 0.012 14.168857366945613 2.7127205144635838 14.732194192206785 0 0 0
1035 3 1 -0.041 13.576476785463472 2.92916485591691 16.113115767028823 0 0 0
1034 3 6 -0.13 14.199238798676745 4.428955435983371 16.934122207604425 0 0 0
1040 3 1 -0.159 13.149746441158896 2.192248762163581 13.739705125924921 0 0 0
1044 3 6 -0.13 15.627418190977227 1.5811759505975393 14.548002426206715 0 0 0
1043 3 3 0.053 12.795767821005349 1.1036681110456774 13.880840012337428 0 0 0
1049 3 3 0.053 17.212846331563284 4.408211066034345 15.661873763621738 0 0 0
1045 3 1 -0.041 16.827838624482894 2.2423981063300946 15.737727664947272 0 0 0
1047 3 3 0.053 16.17346587403567 2.714550329971504 16.469910709217455 0 0 0
1051 3 3 0.053 16.919840575361793 4.030938558012295 13.31030917879085 0 0 0
1042 3 3 0.053 12.242736090203675 2.8671357422211723 13.645190297070435 0 0 0