units real
atom_style full
boundary p p p

# --- Force Field Styles ---
pair_style lj/class2/coul/long 9.5 9.5
kspace_style pppm 1e-6
dielectric 1.000000
bond_style class2
angle_style class2
dihedral_style class2
improper_style class2
special_bonds lj/coul 0 0 1
pair_modify mix sixthpower tail yes
neighbor 2.0 bin
neigh_modify delay 0 every 1 check yes
neigh_modify one 4000
# KOKKOS: package loaded via -pk kokkos on the command line

read_data /home/arz2/PolyJarvis/data/PEEK2/lammps/npt_prod300/npt_prod300_out.data
Reading data file ...
  orthogonal box = (5.4925333 5.4925333 5.4925333) to (55.968672 55.968672 55.968672)
  1 by 1 by 1 MPI processor grid
  reading atoms ...
  10900 atoms
  reading velocities ...
  10900 velocities
  scanning bonds ...
  3 = max bonds/atom
  scanning angles ...
  9 = max angles/atom
  scanning dihedrals ...
  18 = max dihedrals/atom
  scanning impropers ...
  4 = max impropers/atom
  orthogonal box = (5.4925333 5.4925333 5.4925333) to (55.968672 55.968672 55.968672)
  1 by 1 by 1 MPI processor grid
  reading bonds ...
  11850 bonds
  reading angles ...
  18880 angles
  reading dihedrals ...
  28140 dihedrals
  reading impropers ...
  6080 impropers
Finding 1-2 1-3 1-4 neighbors ...
  special bond factors lj:    0        0        1       
  special bond factors coul:  0        0        1       
     3 = max # of 1-2 neighbors
     6 = max # of 1-3 neighbors
     9 = max # of special neighbors
  special bonds CPU = 0.005 seconds
  read_data CPU = 0.310 seconds
include /home/arz2/PolyJarvis/data/PEEK2/lammps/cell/emc_build.params
# LAMMPS parameters created by EMC v9.4.4, build Jul 31 2025 20:33:44

# Variables

variable	seed		index	274348
variable	ntotal		index	10900
variable	fshape		index	1
variable	output		index	emc_build
variable	field		index	pcff/pcff
variable	location1	index	/home/arz2/emc/field/
variable	nav		index	0.6022141179
variable	temperature	index	300
variable	radius		index	5
variable	nrelax		index	100
variable	weight_nonbond	index	0.0001
variable	weight_bond	index	0.0001
variable	weight_focus	index	1
variable	cutoff		index	9.5
variable	charge_cutoff	index	9.5
variable	kappa		index	4
variable	density1	index	0.66
variable	lprevious	index	0
variable	lphase		index	61.4612049865
variable	f_poly		index	10
variable	chem_repeat	index	*Oc1ccc(Oc2ccc(C(=O)c3ccc(cc3)*)cc2)cc1
variable	chem_cap	index	*[H]
variable	lg_repeat	index	34
variable	lg_cap		index	1
variable	norm_poly	index	100
variable	l_poly		index	1090
variable	mg_repeat	index	260.29514
variable	mg_cap		index	0
variable	m_poly		index	8329.44448
variable	n_poly		index	10
variable	mtotal		index	92277.9802
variable	nphase1		index	10900
variable	mphase1		index	92277.9802
variable	vphase1		index	232168.455304
variable	lbox		index	61.4612049865
variable	lphase1		index	61.4612049865
variable	lxx		index	61.4612049865
variable	lyy		index	61.4612049865
variable	lzz		index	61.4612049865
variable	lzy		index	0
variable	lzx		index	0
variable	lyx		index	0
variable	vtotal		index	232168.455304
variable	nl_poly		index	10

# Types

variable	type_c_0	index	1
variable	type_cp		index	2
variable	type_hc		index	3
variable	type_ho		index	4
variable	type_o_1	index	5
variable	type_oc		index	6
variable	type_oh		index	7

variable	type_bond_c_0_cp index	1
variable	type_bond_c_0_o_1 index	2
variable	type_bond_cp_cp	index	3
variable	type_bond_cp_hc	index	4
variable	type_bond_cp_oc	index	5
variable	type_bond_cp_oh	index	6
variable	type_bond_ho_oh	index	7

variable	type_angle_c_0_cp_cp index	1
variable	type_angle_cp_c_0_cp index	2
variable	type_angle_cp_c_0_o_1 index	3
variable	type_angle_cp_cp_cp index	4
variable	type_angle_cp_cp_hc index	5
variable	type_angle_cp_cp_oc index	6
variable	type_angle_cp_cp_oh index	7
variable	type_angle_cp_oc_cp index	8
variable	type_angle_cp_oh_ho index	9

# Clusters

variable	n0_poly		index	1
variable	n1_poly		index	10
variable	nl_poly		index	10

# Flags

variable	flag_charged	index	1

# Masses

mass		1    12.01115  # c_0
mass		2    12.01115  # cp
mass		3     1.00797  # hc
mass		4     1.00797  # ho
mass		5    15.99940  # o_1
mass		6    15.99940  # oc
mass		7    15.99940  # oh

# Potentials

pair_modify	mix sixthpower tail yes
special_bonds	lj/coul 0 0 1

# Pair Coeffs

pair_coeff	 1  1    0.12000    3.30800  # c_0,c_0
pair_coeff	 2  2    0.06400    4.01000  # cp,cp
pair_coeff	 3  3    0.02000    2.99500  # hc,hc
pair_coeff	 4  4    0.01300    1.09800  # ho,ho
pair_coeff	 5  5    0.26700    3.30000  # o_1,o_1
pair_coeff	 6  6    0.24000    3.53500  # oc,oc
pair_coeff	 7  7    0.24000    3.53500  # oh,oh

# Bond Coeffs

bond_coeff	1    1.48900  339.35740 -655.72360  670.23620  # c_0,cp
bond_coeff	2    1.21600  823.79480 -1878.79400 2303.53110  # c_0,o_1
bond_coeff	3    1.41700  470.83610 -627.61790 1327.63450  # cp,cp
bond_coeff	4    1.09820  372.82510 -803.45260  894.31730  # cp,hc
bond_coeff	5    1.37680  428.87980 -738.23510 1114.96550  # cp,oc
bond_coeff	6    1.37680  428.87980 -738.23510 1114.96550  # cp,oh
bond_coeff	7    0.96500  532.50620 -1282.90500 2004.76580  # ho,oh

# Angle Coeffs

angle_coeff	1  108.40000   43.95940   -8.39240   -9.33790  # c_0,cp,cp
angle_coeff	2  110.58840   34.62140   -7.09390   -7.40320  # cp,c_0,cp
angle_coeff	3  119.30000   65.10160  -17.97660    0.00000  # cp,c_0,o_1
angle_coeff	4  118.90000   61.02260  -34.99310    0.00000  # cp,cp,cp
angle_coeff	5  117.94000   35.15580  -12.46820    0.00000  # cp,cp,hc
angle_coeff	6  123.42000   73.67810  -21.67870    0.00000  # cp,cp,oc
angle_coeff	7  123.42000   73.67810  -21.67870    0.00000  # cp,cp,oh
angle_coeff	8  109.50000   60.00000    0.00000    0.00000  # cp,oc,cp
angle_coeff	9  108.19000   53.12500   -8.50160    0.00000  # cp,oh,ho

# BondBond Coeffs

angle_coeff	1 bb    0.00000    1.48900    1.41700  # c_0,cp,cp
angle_coeff	2 bb    0.00000    1.48900    1.48900  # cp,c_0,cp
angle_coeff	3 bb    0.00000    1.48900    1.21600  # cp,c_0,o_1
angle_coeff	4 bb   68.28560    1.41700    1.41700  # cp,cp,cp
angle_coeff	5 bb    1.07950    1.41700    1.09820  # cp,cp,hc
angle_coeff	6 bb   48.47540    1.41700    1.37680  # cp,cp,oc
angle_coeff	7 bb   48.47540    1.41700    1.37680  # cp,cp,oh
angle_coeff	8 bb    0.00000    1.37680    1.37680  # cp,oc,cp
angle_coeff	9 bb   20.65770    1.37680    0.96500  # cp,oh,ho

# BondAngle Coeffs

angle_coeff	1 ba    0.00000    0.00000    1.48900    1.41700  # c_0,cp,cp
angle_coeff	2 ba    0.00000    0.00000    1.48900    1.48900  # cp,c_0,cp
angle_coeff	3 ba    0.00000    0.00000    1.48900    1.21600  # cp,c_0,o_1
angle_coeff	4 ba   28.87080   28.87080    1.41700    1.41700  # cp,cp,cp
angle_coeff	5 ba   20.00330   24.21830    1.41700    1.09820  # cp,cp,hc
angle_coeff	6 ba   58.47900  107.68060    1.41700    1.37680  # cp,cp,oc
angle_coeff	7 ba   58.47900  107.68060    1.41700    1.37680  # cp,cp,oh
angle_coeff	8 ba    0.00000    0.00000    1.37680    1.37680  # cp,oc,cp
angle_coeff	9 ba   53.86140   23.92240    1.37680    0.96500  # cp,oh,ho

# Dihedral Coeffs

dihedral_coeff	 1    0.00000    0.00000    4.62820    0.00000    0.00000    0.00000  # c_0,cp,cp,cp
dihedral_coeff	 2    0.00000    0.00000    2.16700    0.00000    0.00000    0.00000  # c_0,cp,cp,hc
dihedral_coeff	 3    0.00000    0.00000    2.50000    0.00000    0.00000    0.00000  # cp,c_0,cp,cp
dihedral_coeff	 4    0.00000    0.00000    0.90630    0.00000    0.00000    0.00000  # cp,cp,c_0,o_1
dihedral_coeff	 5    8.36670    0.00000    1.19320    0.00000    0.00000    0.00000  # cp,cp,cp,cp
dihedral_coeff	 6    0.00000    0.00000    3.96610    0.00000    0.00000    0.00000  # cp,cp,cp,hc
dihedral_coeff	 7    0.00000    0.00000    4.84980    0.00000    0.00000    0.00000  # cp,cp,cp,oc
dihedral_coeff	 8    0.00000    0.00000    4.84980    0.00000    0.00000    0.00000  # cp,cp,cp,oh
dihedral_coeff	 9    0.00000    0.00000    1.80000    0.00000    0.00000    0.00000  # cp,cp,oc,cp
dihedral_coeff	10   -0.69000    0.00000    0.50970    0.00000    0.00950    0.00000  # cp,cp,oh,ho
dihedral_coeff	11    0.00000    0.00000    1.87690    0.00000    0.00000    0.00000  # hc,cp,cp,hc
dihedral_coeff	12    0.00000    0.00000    1.72340    0.00000    0.00000    0.00000  # hc,cp,cp,oc
dihedral_coeff	13    0.00000    0.00000    1.72340    0.00000    0.00000    0.00000  # hc,cp,cp,oh

# MiddleBondTorsion Coeffs

dihedral_coeff	 1 mbt    0.00000    0.00000    0.00000    1.41700  # c_0,cp,cp,cp
dihedral_coeff	 2 mbt    0.00000    0.00000    0.00000    1.41700  # c_0,cp,cp,hc
dihedral_coeff	 3 mbt    0.00000    0.00000    0.00000    1.48900  # cp,c_0,cp,cp
dihedral_coeff	 4 mbt    0.00000    0.00000    0.00000    1.48900  # cp,cp,c_0,o_1
dihedral_coeff	 5 mbt   27.59890   -2.31200    0.00000    1.41700  # cp,cp,cp,cp
dihedral_coeff	 6 mbt    0.00000   -1.15210    0.00000    1.41700  # cp,cp,cp,hc
dihedral_coeff	 7 mbt    0.00000    4.82550    0.00000    1.41700  # cp,cp,cp,oc
dihedral_coeff	 8 mbt    0.00000    4.82550    0.00000    1.41700  # cp,cp,cp,oh
dihedral_coeff	 9 mbt    0.00000    0.00000    0.00000    1.37680  # cp,cp,oc,cp
dihedral_coeff	10 mbt    1.15800    3.26970    3.51320    1.37680  # cp,cp,oh,ho
dihedral_coeff	11 mbt    0.00000    4.82280    0.00000    1.41700  # hc,cp,cp,hc
dihedral_coeff	12 mbt    0.00000    5.54320    0.00000    1.41700  # hc,cp,cp,oc
dihedral_coeff	13 mbt    0.00000    5.54320    0.00000    1.41700  # hc,cp,cp,oh

# EndBondTorsion Coeffs

dihedral_coeff	 1 ebt    0.00000    0.00000    0.00000    0.00000    0.00000    0.00000    1.48900    1.41700  # c_0,cp,cp,cp
dihedral_coeff	 2 ebt    0.00000    0.00000    0.00000    0.00000    0.00000    0.00000    1.48900    1.09820  # c_0,cp,cp,hc
dihedral_coeff	 3 ebt    0.00000    0.00000    0.00000    0.00000    0.00000    0.00000    1.48900    1.41700  # cp,c_0,cp,cp
dihedral_coeff	 4 ebt    0.00000    0.00000    0.00000    0.00000    0.00000    0.00000    1.41700    1.21600  # cp,cp,c_0,o_1
dihedral_coeff	 5 ebt   -0.11850    6.32040    0.00000   -0.11850    6.32040    0.00000    1.41700    1.41700  # cp,cp,cp,cp
dihedral_coeff	 6 ebt    0.00000   -6.89580    0.00000    0.00000   -0.46690    0.00000    1.41700    1.09820  # cp,cp,cp,hc
dihedral_coeff	 7 ebt    0.00000    0.26550    0.00000    0.00000    4.89050    0.00000    1.41700    1.37680  # cp,cp,cp,oc
dihedral_coeff	 8 ebt    0.00000    0.26550    0.00000    0.00000    4.89050    0.00000    1.41700    1.37680  # cp,cp,cp,oh
dihedral_coeff	 9 ebt    0.00000    0.00000    0.00000    0.00000    0.00000    0.00000    1.41700    1.37680  # cp,cp,oc,cp
dihedral_coeff	10 ebt    0.90000   -1.34560    1.19000    3.41320    0.58730   -0.13230    1.41700    0.96500  # cp,cp,oh,ho
dihedral_coeff	11 ebt    0.00000   -0.68900    0.00000    0.00000   -0.68900    0.00000    1.09820    1.09820  # hc,cp,cp,hc
dihedral_coeff	12 ebt    0.00000   -1.58670    0.00000    0.00000    4.26410    0.00000    1.09820    1.37680  # hc,cp,cp,oc
dihedral_coeff	13 ebt    0.00000   -1.58670    0.00000    0.00000    4.26410    0.00000    1.09820    1.37680  # hc,cp,cp,oh

# AngleTorsion Coeffs

dihedral_coeff	 1 at    0.00000    0.00000    0.00000    0.00000    0.00000    0.00000  108.40000  118.90000  # c_0,cp,cp,cp
dihedral_coeff	 2 at    0.00000    0.00000    0.00000    0.00000    0.00000    0.00000  108.40000  117.94000  # c_0,cp,cp,hc
dihedral_coeff	 3 at    0.00000    0.00000    0.00000    0.00000    0.00000    0.00000  110.58840  108.40000  # cp,c_0,cp,cp
dihedral_coeff	 4 at    0.00000    0.00000    0.00000    0.00000    0.00000    0.00000  108.40000  119.30000  # cp,cp,c_0,o_1
dihedral_coeff	 5 at    1.97670    1.02390    0.00000    1.97670    1.02390    0.00000  118.90000  118.90000  # cp,cp,cp,cp
dihedral_coeff	 6 at    0.00000    2.50140    0.00000    0.00000    2.71470    0.00000  118.90000  117.94000  # cp,cp,cp,hc
dihedral_coeff	 7 at    0.00000   10.01550    0.00000    0.00000    1.74040    0.00000  118.90000  123.42000  # cp,cp,cp,oc
dihedral_coeff	 8 at    0.00000   10.01550    0.00000    0.00000    1.74040    0.00000  118.90000  123.42000  # cp,cp,cp,oh
dihedral_coeff	 9 at    0.00000    0.00000    0.00000    0.00000    0.00000    0.00000  123.42000  109.50000  # cp,cp,oc,cp
dihedral_coeff	10 at   -5.13600   -1.01220    0.00000    4.68520    0.02300   -0.59800  123.42000  108.19000  # cp,cp,oh,ho
dihedral_coeff	11 at    0.00000    2.45010    0.00000    0.00000    2.45010    0.00000  117.94000  117.94000  # hc,cp,cp,hc
dihedral_coeff	12 at    0.00000    1.87290    0.00000    0.00000    2.57060    0.00000  117.94000  123.42000  # hc,cp,cp,oc
dihedral_coeff	13 at    0.00000    1.87290    0.00000    0.00000    2.57060    0.00000  117.94000  123.42000  # hc,cp,cp,oh

# AngleAngleTorsion Coeffs

dihedral_coeff	 1 aat    0.00000  108.40000  118.90000  # c_0,cp,cp,cp
dihedral_coeff	 2 aat    0.00000  108.40000  117.94000  # c_0,cp,cp,hc
dihedral_coeff	 3 aat    0.00000  110.58840  108.40000  # cp,c_0,cp,cp
dihedral_coeff	 4 aat    0.00000  108.40000  119.30000  # cp,cp,c_0,o_1
dihedral_coeff	 5 aat    0.00000  118.90000  118.90000  # cp,cp,cp,cp
dihedral_coeff	 6 aat   -4.81410  118.90000  117.94000  # cp,cp,cp,hc
dihedral_coeff	 7 aat  -21.02470  118.90000  123.42000  # cp,cp,cp,oc
dihedral_coeff	 8 aat  -21.02470  118.90000  123.42000  # cp,cp,cp,oh
dihedral_coeff	 9 aat    0.00000  123.42000  109.50000  # cp,cp,oc,cp
dihedral_coeff	10 aat   -4.60720  123.42000  108.19000  # cp,cp,oh,ho
dihedral_coeff	11 aat    0.35980  117.94000  117.94000  # hc,cp,cp,hc
dihedral_coeff	12 aat    4.22960  117.94000  123.42000  # hc,cp,cp,oc
dihedral_coeff	13 aat    4.22960  117.94000  123.42000  # hc,cp,cp,oh

# BondBond13 Coeffs

dihedral_coeff	 1 bb13    0.00000    1.48900    1.41700  # c_0,cp,cp,cp
dihedral_coeff	 2 bb13    0.00000    1.48900    1.09820  # c_0,cp,cp,hc
dihedral_coeff	 3 bb13    0.00000    1.48900    1.41700  # cp,c_0,cp,cp
dihedral_coeff	 4 bb13    0.00000    1.41700    1.21600  # cp,cp,c_0,o_1
dihedral_coeff	 5 bb13   53.00000    1.41700    1.41700  # cp,cp,cp,cp
dihedral_coeff	 6 bb13   -6.27410    1.41700    1.09820  # cp,cp,cp,hc
dihedral_coeff	 7 bb13   -2.24360    1.41700    1.37680  # cp,cp,cp,oc
dihedral_coeff	 8 bb13   -2.24360    1.41700    1.37680  # cp,cp,cp,oh
dihedral_coeff	 9 bb13    0.00000    1.41700    1.37680  # cp,cp,oc,cp
dihedral_coeff	10 bb13    1.15900    1.41700    0.96500  # cp,cp,oh,ho
dihedral_coeff	11 bb13   -1.70770    1.09820    1.09820  # hc,cp,cp,hc
dihedral_coeff	12 bb13    2.05170    1.09820    1.37680  # hc,cp,cp,oc
dihedral_coeff	13 bb13    2.05170    1.09820    1.37680  # hc,cp,cp,oh

# Improper Coeffs

improper_coeff	1   38.79490    0.00000  # c_0,cp,cp,o_1
improper_coeff	2    0.00000    0.00000  # cp,c_0,cp,cp
improper_coeff	3    4.89120    0.00000  # cp,cp,cp,hc
improper_coeff	4   13.04210    0.00000  # cp,cp,cp,oc
improper_coeff	5   13.04210    0.00000  # cp,cp,cp,oh

# AngleAngle Coeffs

improper_coeff	1 aa    0.00000    0.00000    0.00000  110.58840  119.30000  119.30000  # c_0,cp,cp,o_1
improper_coeff	2 aa    0.00000    0.00000    0.00000  108.40000  108.40000  118.90000  # cp,c_0,cp,cp
improper_coeff	3 aa    0.00000    0.00000    0.00000  118.90000  117.94000  117.94000  # cp,cp,cp,hc
improper_coeff	4 aa    0.00000    0.00000    0.00000  118.90000  123.42000  123.42000  # cp,cp,cp,oc
improper_coeff	5 aa    0.00000    0.00000    0.00000  118.90000  123.42000  123.42000  # cp,cp,cp,oh


# --- Thermo Output ---
thermo_style custom step time temp press enthalpy etotal ke pe ebond eangle edihed eimp evdwl ecoul elong etail vol lx ly lz density pxx pyy pzz
thermo_modify flush yes
thermo 500

# --- Velocity initialization at T_START (once only — Rule A) ---
velocity all create 700.0 304638 mom yes rot yes dist gaussian

# --- Temperature staircase (inherits momenta across steps — Rule A) ---
variable temps index 700 680 660 640 620 600 580 560 540 520 500 480 460 440 420 400 380 360 350
label TEMP_LOOP
  timestep 1
  fix npt_tg all npt temp ${temps} ${temps} 100 iso 1.0 1.0 1000.0
  fix npt_tg all npt temp 700 ${temps} 100 iso 1.0 1.0 1000.0
  fix npt_tg all npt temp 700 700 100 iso 1.0 1.0 1000.0
  run 125000
PPPM Kokkos initialization ...
  using 12-bit tables for long-range coulomb
  G vector (1/distance) = 0.30965703
  grid = 40 40 40
  stencil order = 5
  estimated absolute RMS force accuracy = 0.00032768548
  estimated relative force accuracy = 9.868151e-07
  using double precision cuFFT
  3d grid and FFT values/proc = 103823 64000
Generated 21 of 21 mixed pair_coeff terms from sixthpower/sixthpower mixing rule
Neighbor list info ...
  update: every = 1 steps, delay = 0 steps, check = yes
  max neighbors/atom: 4000, page size: 100000
  master list distance cutoff = 11.5
  ghost atom cutoff = 11.5
  binsize = 11.5, bins = 5 5 5
  1 neighbor lists, perpetual/occasional/extra = 1 0 0
  (1) pair lj/class2/coul/long/kk, perpetual
      attributes: full, newton off, kokkos_device
      pair build: full/bin/kk/device
      stencil: full/bin/3d
      bin: kk/device
Per MPI rank memory allocation (min/avg/max) = 43.42 | 43.42 | 43.42 Mbytes
   Step          Time           Temp          Press         Enthalpy        TotEng         KinEng         PotEng         E_bond        E_angle        E_dihed        E_impro         E_vdwl         E_coul         E_long         E_tail         Volume           Lx             Ly             Lz          Density          Pxx            Pyy            Pzz      
         0   0              700            4947.6488      56522.952      47243.27       22741.494      24501.776      5003.4431      7275.4939      6612.6334      537.16103     -1531.9075      19711.934     -13106.982     -976.68148      128605.15      50.476138      50.476138      50.476138      1.1914855      6081.2615      3565.6064      5196.0784    
       500   500            653.19386      1583.3683      60839.623      57776.338      21220.863      36555.474      9251.7349      10151.672      9926.4346      1126.2717     -541.0771       19743.252     -13102.814     -946.85111      132656.83      51.000748      51.000748      51.000748      1.1550945      1633.1097      2053.4525      1063.5425    
      1000   1000           696.92599      1194.109       63385.299      61003.619      22641.626      38361.993      9825.0376      10484.793      10350.941      1288.8611     -254.19789      19755.594     -13089.035     -918.43369      136761.39      51.521422      51.521422      51.521422      1.1204271      2117.5111      867.18908      597.62672    
      1500   1500           711.64129     -776.93787      60147.45       61707.571      23119.695      38587.877      10164.125      10403.379      10459.731      1277.8018     -431.3233       19795.835     -13081.672     -912.2528       137688.01      51.63752       51.63752       51.63752       1.1128869      1256.4437     -981.51259     -2605.7447    
      2000   2000           700.07647     -147.28371      61047.344      61342.645      22743.979      38598.666      10201.384      10358.565      10361.505      1220.8788     -248.54084      19790.681     -13085.807     -913.64676      137477.93      51.611245      51.611245      51.611245      1.1145874     -1685.4199     -191.00641      1434.5751    
      2500   2500           704.58287      366.61577      61533.425      60800.042      22890.382      37909.661      9618.4213      10341.446      10420.419      1246.0733     -406.42391      19774.048     -13084.322     -915.73052      137165.1       51.572068      51.572068      51.572068      1.1171295      33.817771      512.61829      553.41125    
      3000   3000           695.63227     -387.91777      60196.212      60975.902      22599.596      38376.306      9953.1919      10361.533      10419.791      1246.5379     -310.87663      19793.08      -13086.952     -911.39157      137818.12      51.653779      51.653779      51.653779      1.1118362     -859.18698     -622.14173      317.57539    
      3500   3500           706.98187     -1102.4885      59173.035      61379.834      22968.32       38411.514      10000.453      10392.528      10468.012      1234.7042     -390.28346      19795.692     -13089.592     -915.16317      137250.14      51.582723      51.582723      51.582723      1.1164373      161.41531     -2657.8896     -810.99119    
      4000   4000           708.75471      112.60825      61654.003      61428.913      23025.916      38402.998      9777.1725      10375.569      10635.493      1250.5162     -329.55535      19778.103     -13084.3       -916.43571      137059.56      51.558836      51.558836      51.558836      1.1179897      1787.6786     -1366.6256     -83.22822     
      4500   4500           699.26049     -1109.7728      58880.763      61115.386      22717.469      38397.917      9773.691       10439.204      10506.51       1245.7445     -302.79518      19811.732     -13076.169     -909.73935      138068.42      51.685031      51.685031      51.685031      1.1098206     -136.30503     -1454.9897     -1738.0239    
      5000   5000           695.30713     -971.80003      58841.18       60802.165      22589.033      38213.132      9631.8207      10409.557      10527.707      1240.4304     -314.18896      19802.133     -13084.327     -907.79944      138363.46      51.721821      51.721821      51.721821      1.1074541     -954.48622     -1732.9006     -228.0133     
      5500   5500           699.10529     -349.143        60337.22       61042.53       22712.427      38330.104      9932.2731      10394.748      10335.153      1206.0674     -278.96625      19817.609     -13076.78      -906.79698      138516.42      51.740873      51.740873      51.740873      1.1062312      1022.7133     -1098.7893     -971.35299    
      6000   6000           700.01295     -85.505837      61204.404      61378.52       22741.915      38636.605      9886.857       10417.104      10524.121      1290.0088     -238.13181      19826.271     -13069.624     -899.58959      139626.19      51.878686      51.878686      51.878686      1.0974386     -343.2359      -803.96678      890.68518    
      6500   6500           701.40914     -127.69322      61242.172      61500.579      22787.274      38713.305      9760.5071      10427.711      10771.214      1262.0809     -256.90919      19826.683     -13077.982     -905.21423      138758.61      51.771011      51.771011      51.771011      1.1043003      783.50432      383.94564     -1550.5296    
      7000   7000           710.90425      169.6824       61963.957      61619.483      23095.75       38523.733      10070.5        10547.704      10192.736      1235.131      -243.82749      19800.91      -13079.421     -902.333        139201.68      51.826056      51.826056      51.826056      1.1007854      985.49833      874.28176     -1350.7329    
      7500   7500           699.1453       775.40153      63398.207      61819.681      22713.727      39105.954      10100.843      10533.684      10643.885      1273.8769     -170.85421      19799.566     -13075.048     -899.83332      139588.37      51.874001      51.874001      51.874001      1.097736       821.01051      1161.0272      344.16688    
      8000   8000           704.25373     -363.69371      60549.186      61286.756      22879.689      38407.067      9880.2959      10501.341      10298.222      1240.3792     -247.76147      19814.856     -13080.265     -903.27375      139056.7       51.808058      51.808058      51.808058      1.101933      -559.64303     -1060.5432      529.10513    
      8500   8500           704.65098      78.973154      61457.753      61297.979      22892.594      38405.385      9892.085       10397.685      10370.438      1248.6145     -238.22991      19806.117     -13071.325     -905.44261      138723.61      51.766658      51.766658      51.766658      1.1045789      613.86475     -1300.9566      924.01132    
      9000   9000           686.92046     -890.41359      59338.324      61150.986      22316.568      38834.418      9901.271       10271.161      10714.187      1310.7424     -109.59132      19822.783     -13076.135     -899.83351      139588.35      51.873998      51.873998      51.873998      1.0977362     -1704.3156      761.95673     -1728.8819    
      9500   9500           701.13306      68.850146      61577.014      61436.464      22778.305      38658.159      9776.0123      10331.227      10593.36       1279.7236     -92.28272       19844.257     -13074.137     -897.35155      139974.43      51.921779      51.921779      51.921779      1.0947084     -1063.4981     -959.59461      2229.6431    
     10000   10000          699.67748      835.29413      63267.026      61576.45       22731.016      38845.433      9852.7016      10548.993      10428.843      1295.5383     -6.8157282      19803.199     -13077.026     -905.09012      138777.64      51.773378      51.773378      51.773378      1.1041489      626.04117      1058.3022      821.53907    
     10500   10500          706.95384     -937.26421      59971.3        61883.532      22967.409      38916.123      10057.532      10490.71       10615.311      1230.3682     -202.73774      19807.059     -13082.12      -897.85979      139895.2       51.911981      51.911981      51.911981      1.0953284     -198.88898     -655.78686     -1957.1168    
     11000   11000          701.53814      53.664754      61732.316      61622.464      22791.465      38830.999      9860.0544      10367.687      10724.449      1235.8362     -99.570806      19819.487     -13076.945     -894.88341      140360.49      51.96947       51.96947       51.96947       1.0916974      1018.9439     -386.67249     -471.27712    
     11500   11500          697.28125     -922.34578      59335.863      61218.515      22653.168      38565.347      9690.4684      10422.282      10657.283      1271.659      -209.43374      19814.6       -13081.512     -897.45135      139958.86      51.919855      51.919855      51.919855      1.0948301     -854.87405     -1908.2703     -3.8929887    
     12000   12000          703.4799       153.08086      61685.628      61374.955      22854.549      38520.406      9747.5067      10479.894      10503.009      1241.8908     -191.38264      19826.939     -13087.451     -902.61733      139157.83      51.820614      51.820614      51.820614      1.1011323      1295.0369     -312.89289     -522.90139    
     12500   12500          704.77062     -917.89433      59413.804      61285.414      22896.481      38388.933      9645.6615      10386.601      10629.939      1226.7104     -226.06589      19809.802     -13083.715     -898.38945      139812.72      51.901777      51.901777      51.901777      1.0959745      671.35001     -1769.7191     -1655.314     
     13000   13000          699.89984     -1116.2567      58955.296      61226.724      22738.24       38488.484      9920.8635      10440.427      10457.391      1260.0239     -314.46022      19810.201     -13085.961     -900.22769      139527.22      51.866425      51.866425      51.866425      1.0982171     -1333.3421     -537.75392     -1477.674     
     13500   13500          689.55844     -808.22636      59401.235      61038.781      22402.27       38636.511      9656.1533      10523.993      10684.288      1273.9928     -250.00412      19825.986     -13077.898     -904.12165      138926.29      51.791857      51.791857      51.791857      1.1029674     -1227.9325     -1255.3824      58.635781    
     14000   14000          702.86726      1266.0553      64043.241      61460.315      22834.645      38625.67       10066.502      10401.523      10314.889      1197.5472     -79.988398      19808.61      -13083.413     -897.89984      139888.95      51.911209      51.911209      51.911209      1.0953772      1464.306       998.54013      1335.3196    
     14500   14500          706.35801      101.65464      61729.465      61520.894      22948.052      38572.842      9902.4796      10389.115      10503.506      1239.846      -198.14343      19814.84      -13078.801     -892.81652      140685.42      52.009543      52.009543      52.009543      1.0891759     -218.16846     -527.4969       1050.6293    
     15000   15000          699.15263     -240.63731      61054.708      61543.857      22713.965      38829.892      9876.5965      10463.293      10701.976      1274.398      -223.0272       19815.574     -13078.918     -901.17481      139380.58      51.848249      51.848249      51.848249      1.0993725      731.40567     -282.31815     -1170.9994    
     15500   15500          701.072       -8.0700809      61289.621      61306.025      22776.321      38529.704      9936.1771      10449.269      10371.462      1244.597      -187.53053      19797.877     -13082.146     -901.17548      139380.48      51.848236      51.848236      51.848236      1.0993733      1201.9782     -896.31861     -329.86986    
     16000   16000          691.2175      -63.397301      61060.523      61190.386      22456.169      38734.217      9824.7473      10509.637      10587.318      1236.7895     -154.88427      19809.443     -13078.834     -894.27339      140456.23      51.981284      51.981284      51.981284      1.0909532      146.5734      -559.899        223.1337     
     16500   16500          699.45648      129.84014      61822.836      61558.002      22723.836      38834.165      9900.5132      10424.73       10623.752      1263.0028     -109.71392      19819.19      -13087.309     -898.09454      139858.63      51.907457      51.907457      51.907457      1.0956148     -30.081077      1187.9441     -768.34258    
     17000   17000          708.07054      620.49689      62900.289      61637.391      23003.689      38633.703      9919.0275      10419.315      10498.808      1212.978      -160.47109      19823.965     -13079.919     -900.0339       139557.27      51.870148      51.870148      51.870148      1.0979807      1222.7267      676.07597     -37.312029    
     17500   17500          692.37939     -324.07041      60152.844      60814.41       22493.917      38320.493      9753.3822      10457.235      10328.14       1218.8382     -148.12846      19789.052     -13078.026     -897.33286      139977.34      51.92214       51.92214       51.92214       1.0946856     -1844.1682     -988.56405      1860.521     
     18000   18000          698.02194     -1982.3079      57141.02       61196.224      22677.231      38518.993      9741.3747      10403.328      10607.784      1245.3154     -212.30939      19810.128     -13076.628     -895.45885      140270.29      51.958335      51.958335      51.958335      1.0923994     -2128.5277     -1701.45       -2116.9459    
     18500   18500          699.52961     -100.70599      61313.307      61519.696      22726.212      38793.484      10002.972      10350.461      10661.064      1240.3164     -210.81079      19825.48      -13075.998     -893.83265      140525.49      51.989827      51.989827      51.989827      1.0904155     -1564.1329      65.764101      1196.2509    
     19000   19000          698.90616      157.59898      61805.486      61483.749      22705.958      38777.791      10113.729      10475.148      10297.65       1248.1671     -89.459137      19809.947     -13077.391     -897.30325      139981.96      51.922711      51.922711      51.922711      1.0946494      2548.3839     -942.47792     -1133.1091    
     19500   19500          690.68167      84.301358      61372.505      61201.111      22438.762      38762.35       10111.775      10448.551      10486.359      1212.2829     -264.71816      19844.725     -13076.625     -901.00561      139406.76      51.851494      51.851494      51.851494      1.0991661     -1918.1253      633.14241      1537.887     
     20000   20000          696.89624      1021.2098      63210.55       61129.521      22640.66       38488.861      10016.851      10337.374      10324.116      1191.6653     -106.91699      19803.774     -13078.002     -898.92598      139729.27      51.891449      51.891449      51.891449      1.0966291      236.46729      1551.1955      1275.9665    
     20500   20500          697.5671       1225.7044      64051.049      61535.082      22662.454      38872.628      10008.35       10419.396      10536.66       1247.5906     -105.74377      19841.268     -13074.894     -892.41748      140748.33      52.017293      52.017293      52.017293      1.0886891     -335.17067      979.01955      3033.2642    
     21000   21000          706.42695      2057.1651      65862.63       61648.718      22950.292      38698.426      9891.0254      10403.893      10458.158      1298.6392     -85.829736      19808.636     -13076.096     -894.27448      140456.06      51.981263      51.981263      51.981263      1.0909546      1295.5637      1665.6492      3210.2824    
     21500   21500          691.88195      463.52372      62306.469      61355.274      22477.756      38877.518      9897.1028      10438.578      10555.87       1270.045      -38.046662      19832.174     -13078.206     -892.66707      140708.98      52.012445      52.012445      52.012445      1.0889936      1879.9025      479.89008     -969.22142    
     22000   22000          698.31626      645.71387      62680.398      61346.73       22686.793      38659.937      9856.6598      10280.426      10562.593      1234.2628     -18.874292      19818.401     -13073.531     -886.90983      141622.37      52.124746      52.124746      52.124746      1.0819702      538.26353      877.63707      521.24101    
     22500   22500          694.07843      302.80694      61970.546      61340.771      22549.115      38791.656      10078.399      10208.178      10628.994      1261.9552     -129.88099      19816.262     -13072.252     -880.77985      142608.02      52.245391      52.245391      52.245391      1.074492       148.58209     -239.8053       999.64402    
     23000   23000          695.97086      1759.7916      64848.808      61253.662      22610.596      38643.067      9907.5144      10327.674      10413.403      1247.5868      22.204859      19805.482     -13080.798     -896.66862      140081.04      51.934958      51.934958      51.934958      1.0938752      950.34889      1132.7927      3196.2333    
     23500   23500          706.64703      409.89252      62461.725      61627.764      22957.442      38670.322      9879.4896      10593.438      10427.151      1236.8677     -221.45342      19834.105     -13079.276     -900.35025      139508.23      51.864072      51.864072      51.864072      1.0983666     -265.75655      83.761502      1411.6726    
     24000   24000          702.61595     -843.47554      60023.258      61751.111      22826.481      38924.63       9910.776       10555.64       10595.407      1260.5596     -122.38919      19806.11      -13081.473     -894.23744      140461.88      51.981981      51.981981      51.981981      1.0909094     -550.37543     -912.16978     -1067.8814    
     24500   24500          703.08         1223.9951      64063.135      61555.532      22841.557      38713.975      9844.4386      10398.793      10472.788      1241.7788      13.44658       19817.535     -13074.805     -894.14535      140476.35      51.983765      51.983765      51.983765      1.090797       152.17353      1467.6146      2052.1972    
     25000   25000          706.31001      51.804851      61608.768      61502.361      22946.493      38555.869      9711.7412      10564.44       10455.164      1235.2845     -145.00635      19805.872     -13071.627     -891.84319      140838.96      52.028456      52.028456      52.028456      1.0879885      624.77186      238.63564     -707.99295    
     25500   25500          702.92423      878.84512      63115.304      61312.178      22836.496      38475.682      9811.0418      10383.18       10422.99       1258.8722     -121.68802      19799.348     -13078.062     -892.83964      140681.78      52.009094      52.009094      52.009094      1.0892041      369.39364      208.62309      2058.5186    
     26000   26000          695.58723     -277.99511      60334.051      60903.308      22598.133      38305.176      9755.0064      10436.801      10271.413      1217.1446     -86.95544       19789.662     -13077.896     -894.57199      140409.35      51.9755        51.9755        51.9755        1.0913175     -868.35797     -226.31343      260.68607    
     26500   26500          690.22278      229.40783      61465.533      60996.42       22423.853      38572.566      9944.889       10246.848      10552.331      1235.7295     -90.096971      19769.649     -13086.783     -895.81346      140214.76      51.951478      51.951478      51.951478      1.092832      -80.033292      166.04839      602.2084     
     27000   27000          703.92815     -183.48368      61132.773      61510.318      22869.111      38641.207      9751.7095      10443.208      10569.38       1232.9892     -58.466298      19784.769     -13082.382     -890.25824      141089.7       52.059314      52.059314      52.059314      1.086055       1128.93       -707.79292     -971.58814    
     27500   27500          699.92609     -1846.4175      57690.526      61461.489      22739.093      38722.396      9909.2682      10407.873      10656.864      1229.304      -195.35458      19795.467     -13081.026     -896.94314      140038.16      51.929659      51.929659      51.929659      1.0942101     -1204.2095     -2167.8023     -2167.2406    
     28000   28000          700.88952     -694.26942      60087.502      61497.387      22770.393      38726.994      9909.2744      10424.842      10606.739      1232.9885     -162.09701      19796.043     -13080.795     -902.05216      139245.02      51.831434      51.831434      51.831434      1.1004428      39.051666     -1447.9201     -673.9398     
     28500   28500          699.85959     -78.633586      61310.64       61471.064      22736.933      38734.132      9945.8657      10338.934      10580.466      1256.2256     -114.53156      19808.041     -13080.87      -897.89206      139890.17      51.911359      51.911359      51.911359      1.0953677     -136.9283       922.66919     -1021.6417    
     29000   29000          691.27087     -490.13285      59959.58       60971.56       22457.903      38513.656      9727.828       10371.93       10575.908      1236.2721     -160.49012      19837.513     -13075.304     -887.21576      141573.53      52.118754      52.118754      52.118754      1.0823434      499.5291      -1131.6139     -838.31378    
     29500   29500          702.85339     -1121.3303      58956.799      61248.731      22834.195      38414.536      9803.4763      10332.718      10539.712      1234.5605     -234.31618      19809.807     -13071.421     -896.22925      140149.71      51.943443      51.943443      51.943443      1.0933392     -408.49139     -1030.4908     -1925.0087    
     30000   30000          702.10651     -1735.4968      57953.589      61504.463      22809.93       38694.533      9802.7002      10488.121      10668.396      1263.11       -269.23235      19824.284     -13082.846     -895.3149       140292.84      51.96112       51.96112       51.96112       1.0922238     -936.5576      -2234.9196     -2035.0133    
     30500   30500          688.41443     -1025.6567      59223.167      61336.848      22365.104      38971.744      9894.3844      10499.953      10639.319      1249.8003     -39.440189      19806.896     -13079.169     -888.89366      141306.3       52.08594       52.08594       52.08594       1.0843903     -2099.3564      362.21816     -1339.832     
     31000   31000          704.93523     -1316.0324      58989.031      61697.089      22901.829      38795.26       9758.6328      10359.847      10700.536      1281.2027     -48.577721      19813.739     -13070.12      -890.21678      141096.27      52.060122      52.060122      52.060122      1.0860044     -1342.7766     -890.33807     -1714.9824    
     31500   31500          699.59156      194.23692      61777          61377.738      22728.225      38649.513      9661.3844      10571.594      10431.924      1285.2542     -42.469429      19824.714     -13082.887     -891.17093      140945.21      52.041536      52.041536      52.041536      1.0871684     -254.73302     -252.86716      1090.3109    
     32000   32000          694.53822      1321.8213      63836.186      61106.586      22564.053      38542.533      9765.0818      10310.126      10525.215      1213.8683     -34.906001      19837.156     -13074.009     -887.07618      141595.81      52.121487      52.121487      52.121487      1.0821731      1925.2457      290.35333      1749.8647    
     32500   32500          697.78111     -1165.0382      58827.255      61224.013      22669.407      38554.606      9813.463       10242.391      10633.239      1212.8173     -54.857643      19785.875     -13078.322     -890.43685      141061.4       52.055833      52.055833      52.055833      1.0862729     -720.44103     -3149.9712      375.29761    
     33000   33000          698.87055     -992.1654       59358.697      61396.74       22704.801      38691.94       9802.2282      10394.622      10593.22       1283.2504     -113.06056      19815.952     -13084.272     -891.78041      140848.88      52.029677      52.029677      52.029677      1.0879119     -632.22482     -1238.0023     -1106.2691    
     33500   33500          704.20547      577.28062      62986.64       61807.184      22878.121      38929.063      9929.8726      10447.142      10558.247      1256.0289      37.097552      19790.22      -13089.544     -896.58696      140093.8       51.936535      51.936535      51.936535      1.0937756     -854.91575      1074.4121      1512.3455    
     34000   34000          695.67062     -1793.4611      57660.066      61372.264      22600.842      38771.423      9830.1729      10452.084      10625.958      1196.4972     -52.874555      19801.251     -13081.667     -885.00967      141926.44      52.162024      52.162024      52.162024      1.0796521     -2908.4429     -1113.1458     -1358.7945    
     34500   34500          692.49647     -1928.2802      57522.141      61514.083      22497.721      39016.363      10043.109      10498.998      10605.378      1208.2693     -113.52999      19845.082     -13070.943     -884.85701      141950.92      52.165024      52.165024      52.165024      1.0794659     -1297.6666     -2043.3308     -2443.8431    
     35000   35000          699.8682       152.52977      61836.287      61522.213      22737.212      38785.001      9759.9301      10524.513      10563.378      1219.3447     -22.821104      19817.096     -13076.44      -889.63026      141189.3       52.07156       52.07156       52.07156       1.0852889      1337.6921     -625.17969     -254.92312    
     35500   35500          698.69054      1511.05        64473.69       61355.724      22698.953      38656.771      9959.0724      10392.513      10460.325      1264.2904     -166.72308      19824.338     -13077.045     -887.75807      141487.05      52.108139      52.108139      52.108139      1.083005       1552.8492      1118.9167      1861.3841    
     36000   36000          693.61231     -1212.8914      58548.922      61050.109      22533.972      38516.137      9560.6626      10529.491      10635.441      1235.7246     -169.32183      19807.202     -13083.062     -888.3068       141399.65      52.097407      52.097407      52.097407      1.0836744     -883.91357     -1119.913      -1634.8477    
     36500   36500          698.64294      520.79471      62351.981      61290.716      22697.406      38593.31       9830.693       10279.623      10696.243      1212.5409     -141.29921      19800.126     -13084.617     -898.93809      139727.39      51.891216      51.891216      51.891216      1.0966438     -1298.6548      1104.9615      1756.0774    
     37000   37000          701.85064     -766.15096      60120.437      61689.118      22801.618      38887.5        9794.7397      10600.811      10740.851      1211.5347     -187.29374      19808.447     -13081.589     -894.67815      140392.69      51.973444      51.973444      51.973444      1.091447      -401.82442     -1536.3245     -360.30392    
     37500   37500          698.58685      673.36855      63225.757      61848.158      22695.584      39152.574      9919.8009      10519.428      10660.433      1275.3792      32.392626      19819.532     -13074.392     -895.40076      140279.39      51.959459      51.959459      51.959459      1.0923285     -652.49843      91.72549       2580.8786    
     38000   38000          692.37155     -0.73413914     61051.471      61052.98       22493.662      38559.318      9719.095       10449.759      10553.377      1235.3815     -100.16529      19787.128     -13085.257     -891.16123      140946.74      52.041724      52.041724      52.041724      1.0871566     -131.29328      1251.2346     -1122.1437    
     38500   38500          695.18658     -1435.8667      58301.616      61230.5        22585.116      38645.384      9868.9441      10523.327      10538.702      1224.0552     -253.97563      19826.757     -13082.427     -898.04714      139866.01      51.90837       51.90837       51.90837       1.0955569     -614.69902     -799.65218     -2893.2488    
     39000   39000          696.09405     -47.840889      61481.446      61578.986      22614.598      38964.388      9961.3467      10546.851      10613.66       1224.1086     -116.52388      19813.378     -13078.433     -898.47375      139799.6       51.900153      51.900153      51.900153      1.0960774     -2463.9685      2908.2758     -587.83005    
     39500   39500          711.27442     -525.14614      60931.274      62004.818      23107.776      38897.043      9655.5877      10445.21       10897.996      1294.9282     -142.08754      19818.133     -13072.725     -896.08126      140172.86      51.946303      51.946303      51.946303      1.0931587      949.52807     -2255.8428     -269.12371    
     40000   40000          707.83459     -17.036754      61826.754      61861.445      22996.023      38865.421      9558.7027      10605.037      10787.355      1267.8875     -115.58993      19832.842     -13070.813     -899.62865      139620.13      51.877935      51.877935      51.877935      1.0974863      1964.9658     -3136.5707      1120.4946    
     40500   40500          694.35974     -644.86328      60234.521      61552.335      22558.254      38994.081      9857.3715      10513.268      10881.82       1266.5652     -252.57877      19816.587     -13088.952     -896.39816      140123.3       51.940181      51.940181      51.940181      1.0935453     -417.80952      22.398295     -1539.1786    
     41000   41000          693.56526      287.41503      61842.865      61258.064      22532.443      38725.621      9759.3499      10625.06       10576.374      1202.495      -146.4649       19789.949     -13081.142     -900.30211      139515.69      51.864996      51.864996      51.864996      1.0983079      791.28734     -437.28351      508.24126    
     41500   41500          692.09785      357.18371      61737.807      61015.878      22484.77       38531.107      9687.4008      10437.992      10651.789      1272.9919     -253.36721      19811.263     -13076.963     -906.32526      138588.51      51.749848      51.749848      51.749848      1.1056557      506.1887       1452.4821     -887.11966    
     42000   42000          695.78803     -498.14547      60608.647      61626.915      22604.656      39022.259      10131.088      10371.192      10655.799      1286.6181     -171.89226      19821.656     -13072.202     -896.15155      140161.86      51.944945      51.944945      51.944945      1.0932444     -19.326457     -1659.8789      184.76897    
     42500   42500          700.90374      269.48406      62227.619      61674.075      22770.855      38903.221      9890.7015      10359.279      10806.882      1234.8796     -145.20107      19831.276     -13074.596     -891.80272      140845.35      52.029243      52.029243      52.029243      1.0879392      877.12392      967.31695     -1035.9887    
     43000   43000          692.9195      -59.230296      61220.271      61342.479      22511.464      38831.016      9879.9501      10316.574      10750.406      1256.7974     -109.32876      19815.613     -13078.996     -887.83221      141475.23      52.106689      52.106689      52.106689      1.0830954      178.51824      417.28103     -773.49016    
     43500   43500          703.10734      28.502821      61866.533      61807.791      22842.445      38965.346      9897.5557      10317.011      10844.872      1273.7471     -88.208123      19793.809     -13073.441     -888.83919      141314.95      52.087004      52.087004      52.087004      1.0843239      847.03883      581.30283     -1342.8332    
     44000   44000          705.13677     -758.53678      60454.896      62021.925      22908.377      39113.549      9974.1291      10357.69       10904.196      1295.5267     -142.66182      19799.903     -13075.234     -886.72053      141652.6       52.128455      52.128455      52.128455      1.0817392     -235.71147     -1661.1781     -378.7208     
     44500   44500          697.51484     -618.76853      60297.475      61574.144      22660.757      38913.387      9827.0846      10467.453      10736.258      1255.4389     -84.408069      19792.168     -13080.607     -887.84535      141473.14      52.106432      52.106432      52.106432      1.0831114     -1541.6914     -491.63639      177.02221    
     45000   45000          700.10131      580.79674      62448.124      61248.445      22744.785      38503.659      9698.0146      10405.669      10505.244      1281.9487     -97.555269      19787.234     -13076.897     -886.84169      141633.25      52.126081      52.126081      52.126081      1.081887      -18.40379       767.13328      993.66074    
     45500   45500          695.93246      1689.9158      64988.966      61482.406      22609.348      38873.058      9860.8073      10498.533      10466.814      1269.2357      30.078187      19819.557     -13071.967     -882.8176       142278.85      52.205162      52.205162      52.205162      1.0769779      1020.6265      2336.3921      1712.7287    
     46000   46000          694.46239      1034.5296      63921.747      61799.193      22561.589      39237.604      9919.8596      10634.322      10705.035      1289.8441     -66.995737      19827.298     -13071.759     -892.8357       140682.4       52.00917       52.00917       52.00917       1.0891993      1117.8194      1912.5205      73.248983    
     46500   46500          696.8536       48.998448      61748.508      61647.882      22639.274      39008.607      10009.096      10378.726      10658.693      1233.0352     -4.2729794      19802.657     -13069.327     -891.9847       140816.62      52.025705      52.025705      52.025705      1.0881612     -113.71357     -488.92967      749.63858    
     47000   47000          690.00117      545.7189       62200.602      61072.988      22416.653      38656.334      9777.641       10327.46       10525.46       1232.6127      49.892323      19818.283     -13075.016     -886.53494      141682.26      52.132092      52.132092      52.132092      1.0815128      183.96693      557.49749      895.69229    
     47500   47500          696.4615       343.64506      61954.995      61247.038      22626.536      38620.502      9930.1609      10441.144      10405.658      1200.4041     -100.9294       19810.541     -13066.476     -889.18147      141260.56      52.080319      52.080319      52.080319      1.0847414     -110.31037     -930.65874      2071.9043    
     48000   48000          697.31078     -1641.9259      58153.304      61533.178      22654.127      38879.051      9657.3679      10651.1        10752.949      1240.5287     -137.37945      19793.314     -13078.829     -889.89791      141146.83      52.066339      52.066339      52.066339      1.0856154      197.72624     -2127.4281     -2996.0759    
     48500   48500          704.20717      152.5439       62099.742      61783.053      22878.176      38904.877      9907.0577      10456.498      10592.3        1236.3251     -25.549302      19817.123     -13078.879     -882.3655       142351.75      52.214076      52.214076      52.214076      1.0764264     -782.0522      -179.58597      1419.2699    
     49000   49000          699.45751     -154.54926      61379.126      61698.483      22723.87       38974.613      9768.0852      10395.578      10799.429      1266.0033     -4.9317654      19833.532     -13083.082     -886.49712      141688.3       52.132834      52.132834      52.132834      1.0814667     -1248.3224     -72.008245      856.68292    
     49500   49500          696.11536     -1357.9874      58947.209      61743.529      22615.29       39128.239      9895.1444      10404.692      10877.195      1301.3938     -86.417744      19806.727     -13070.495     -889.60267      141193.68      52.072099      52.072099      52.072099      1.0852552     -742.77942     -1411.0539     -1920.1289    
     50000   50000          697.14176      517.74924      62379.999      61315.478      22648.636      38666.842      9905.7306      10183.561      10529.171      1257.828       63.478238      19809.894     -13082.821     -890.9484       140980.41      52.045868      52.045868      52.045868      1.086897       115.18382     -148.01356      1586.0775    
     50500   50500          706.69771     -176.17431      61553.879      61918.722      22959.088      38959.634      9914.3082      10419.428      10654.189      1264.32       -44.20713       19828.917     -13077.322     -884.55345      141999.64      52.17099       52.17099       52.17099       1.0790955     -1177.8434     -199.72142      849.04186    
     51000   51000          706.53549      246.76611      62520.534      62007.549      22953.818      39053.731      9957.0434      10568.95       10562.269      1241.8818     -53.836523      19845.342     -13067.919     -881.18742      142542.06      52.237335      52.237335      52.237335      1.0749892     -335.62851      893.74077      182.18608    
     51500   51500          696.66302      259.81141      62049.765      61510.074      22633.083      38876.991      9792.7696      10618.653      10497.256      1224.6002     -18.100874      19835.215     -13073.402     -881.8614       142433.12      52.224024      52.224024      52.224024      1.0758114      1217.568      -484.35975      46.225947    
     52000   52000          699.14989     -219.12922      61008.02       61459.337      22713.876      38745.461      9780.6523      10508.845      10609.596      1199.8043     -97.030452      19825.274     -13081.68      -889.41889      141222.85      52.075685      52.075685      52.075685      1.0850311      440.31299     -63.333332     -1034.3673    
     52500   52500          709.78679      1299.5523      64473.797      61787.06       23059.446      38727.614      9794.1531      10309.8        10713.108      1242.0663     -121.15053      19856.838     -13067.2       -886.04523      141760.56      52.141695      52.141695      52.141695      1.0809154      956.64788      1761.0321      1180.977     
     53000   53000          705.32661      1008.8242      64217.247      62123.14       22914.544      39208.596      9962.7213      10467.443      10703.372      1297.8235      22.308001      19832.066     -13077.139     -882.47768      142333.65      52.211864      52.211864      52.211864      1.0765632      1426.9404      1378.4426      221.08976    
     53500   53500          704.1754      -1638.2679      58481.142      61869.776      22877.144      38992.632      10018.4        10432.623      10756.384      1249.1442     -184.01396      19794.836     -13074.742     -885.62013      141828.61      52.150036      52.150036      52.150036      1.0803968     -1325.5253     -1400.45       -2188.8282    
     54000   54000          701.4643       335.84291      62308.012      61612.753      22789.066      38823.687      9906.4758      10285.478      10698.842      1254.0677     -82.428893      19832.905     -13071.653     -884.86359      141949.87      52.164894      52.164894      52.164894      1.0794739      519.55546      341.26685      146.70641    
     54500   54500          701.78732     -764.47771      59883.697      61459.104      22799.56       38659.544      9782.9002      10438.498      10551.747      1193.3727     -59.743304      19825.387     -13072.617     -888.91311      141303.2       52.08556       52.08556       52.08556       1.084414       17.116489     -1815.6397     -494.90988    
     55000   55000          701.2332       326.98268      62681.383      62015.742      22781.558      39234.184      9910.7155      10495.142      10890.542      1271.5972     -92.38405       19825.267     -13066.696     -899.85407      139585.16      51.873603      51.873603      51.873603      1.0977613      1752.9972      48.131405     -820.18061    
     55500   55500          707.68935     -774.26232      60354.436      61947.642      22991.305      38956.338      9787.3093      10579.994      10692.216      1245.7739     -106.67104      19834.668     -13076.952     -890.23199      141093.86      52.059825      52.059825      52.059825      1.086023      -826.11665     -547.34718     -949.32313    
     56000   56000          703.19865     -144.35194      61269.975      61568.066      22845.411      38722.655      9935.2054      10365.781      10430.08       1275.1467     -31.023566      19828.215     -13080.749     -887.07584      141595.86      52.121494      52.121494      52.121494      1.0821727      625.55267     -1527.2988      468.69035    
     56500   56500          702.24102      627.25753      62917.213      61624.943      22814.3        38810.643      9942.2001      10453.375      10415.834      1272.1988     -4.9611082      19820.251     -13088.254     -889.15979      141264         52.080743      52.080743      52.080743      1.084715       178.36836      1309.4699      393.93435    
     57000   57000          699.98628      487.71552      62675.512      61667.574      22741.048      38926.526      9954.9736      10606.549      10411.984      1265.0214     -49.565858      19820.219     -13082.655     -886.38015      141707         52.135127      52.135127      52.135127      1.081324      -412.27756      1023.4509      851.97324    
     57500   57500          702.50257      1250.5579      64302.471      61706.863      22822.797      38884.066      9848.3568      10525.199      10491.042      1259.1086      23.767175      19820.249     -13083.657     -882.57567      142317.85      52.209931      52.209931      52.209931      1.0766828      2760.3144     -201.80444      1193.1638    
     58000   58000          698.59362      802.54872      63474.015      61821.893      22695.804      39126.089      10065.414      10354.73       10714.44       1282.8295     -72.561289      19855.706     -13074.469     -889.84949      141154.51      52.067284      52.067284      52.067284      1.0855564      488.99895      732.17671      1186.4705    
     58500   58500          693.90035      977.73911      63781.724      61771.792      22543.33       39228.463      10012.425      10540.911      10685.307      1283.6998     -57.413046      19840.409     -13076.876     -891.10491      140955.65      52.042821      52.042821      52.042821      1.0870879      1893.8196      622.20087      417.19681    
     59000   59000          686.80222      441.68421      62216.237      61307.387      22312.727      38994.661      9894.2069      10519.281      10712.019      1264.4004     -134.92896      19817.259     -13077.577     -890.2399       141092.61      52.059671      52.059671      52.059671      1.0860326     -377.9858       1017.6756      685.3628     
     59500   59500          693.87381      162.77977      61567.199      61231.884      22542.467      38689.417      9790.5096      10326.297      10524.028      1299.5636     -0.68610097     19822.882     -13073.178     -889.27202      141246.17      52.078552      52.078552      52.078552      1.0848519     -22.849965      137.78512      373.40416    
     60000   60000          694.38768     -717.43668      60059.171      61544.128      22559.162      38984.966      9966.6388      10414.091      10581.528      1234.4246      14.046238      19844.9       -13070.664     -885.02777      141923.54      52.161668      52.161668      52.161668      1.0796742     -1269.3439      204.69355     -1087.6597    
     60500   60500          699.32527      137.66239      61958.856      61675.626      22719.574      38956.053      9823.8003      10537.983      10654.909      1245.7062     -95.506583      19859.477     -13070.316     -890.35735      141074         52.057382      52.057382      52.057382      1.0861759     -353.38115      1790.2624     -1023.8941    
     61000   61000          713.06859      345.55287      62963.688      62252.128      23166.065      39086.063      10066.936      10429.229      10559.78       1264.8873      36.135775      19808.055     -13078.959     -889.59015      141195.66      52.072343      52.072343      52.072343      1.08524        59.506819      1150.1896     -173.0378     
     61500   61500          698.64961     -1022.8443      59610.3        61737.029      22697.623      39039.406      9855.2376      10532.729      10757.751      1259.0487     -106.87431      19822.839     -13081.325     -881.01775      142569.51      52.240688      52.240688      52.240688      1.0747822     -2311.155      -1324.3625      566.98475    
     62000   62000          699.6636       33.487608      61455.024      61385.893      22730.565      38655.328      9878.1798      10387.136      10484.917      1265.1126     -83.878946      19806.244     -13082.382     -887.35823      141550.8       52.115965      52.115965      52.115965      1.0825172     -712.45923     -67.013866      879.93592    
     62500   62500          702.2911       704.57477      62832.558      61395.649      22815.927      38579.722      9728.7077      10211.507      10738.306      1251.5106     -109.83797      19835.212     -13075.684     -898.22467      139838.37      51.90495       51.90495       51.90495       1.0957735     -250.47515      1129.1865      1235.013     
     63000   63000          694.60321     -684.92531      59927.26       61337.323      22566.164      38771.159      9766.5282      10606.863      10549.329      1253.2908     -150.53198      19825.876     -13080.195     -889.79897      141162.53      52.068269      52.068269      52.068269      1.0854947     -792.96177     -845.7862      -416.02796    
     63500   63500          701.75988      339.46921      62364.19       61662.364      22798.669      38863.696      9819.7645      10433.552      10609.526      1251.7145      19.432949      19806.535     -13076.83      -886.04988      141759.82      52.141603      52.141603      52.141603      1.0809211      172.10218      328.2603       518.04514    
     64000   64000          707.52215     -1327.9114      59111.226      61858.845      22985.873      38872.972      9862.4341      10577.354      10489.199      1249.9491     -49.458511      19822.669     -13079.174     -885.31934      141876.8       52.155942      52.155942      52.155942      1.0800299     -1627.4096     -1392.9465     -963.37825    
     64500   64500          713.01096     -1247.8325      59391.804      61965.472      23164.192      38801.28       9826.9065      10519.334      10630.106      1240.0298     -133.79081      19801.16      -13082.466     -888.15932      141423.13      52.100291      52.100291      52.100291      1.0834945     -2282.847      -141.69172     -1318.9589    
     65000   65000          705.92337      817.29635      63813.945      62128.716      22933.932      39194.784      10148.541      10485.449      10556.359      1280.82       -41.779306      19838.921     -13073.527     -888.39868      141385.03      52.095611      52.095611      52.095611      1.0837865     -428.45326      1269.6488      1610.6935    
     65500   65500          702.17386      592.61175      63151.057      61922.304      22812.118      39110.186      10161.833      10438.203      10617.346      1279.0982     -145.19775      19828.401     -13069.497     -883.47225      142173.42      52.192264      52.192264      52.192264      1.0777766      321.00849      455.68006      1001.1467    
     66000   66000          696.27559      1047.2377      63623.741      61446.795      22620.496      38826.299      9903.0025      10568.023      10318.945      1271.7698     -6.1807745      19845.068     -13074.328     -881.22111      142536.61      52.236669      52.236669      52.236669      1.0750303      1974.8457      990.24826      176.6193     
     66500   66500          704.0665       992.36995      63570.472      61521.613      22873.606      38648.007      9863.8149      10468.25       10341.003      1295.601      -93.709843      19848.267     -13075.22      -887.25522      141567.24      52.117981      52.117981      52.117981      1.0823915      1330.4303      895.84511      750.83449    
     67000   67000          705.16888     -406.66196      61086.091      61920.972      22909.42       39011.552      9944.778       10581.916      10618.56       1266.834      -145.19149      19823.351     -13078.696     -892.27003      140771.59      52.020159      52.020159      52.020159      1.0885093     -1136.4131     -575.52296      491.95017    
     67500   67500          705.07068      281.52943      62405.923      61821.993      22906.23       38915.763      9947.6875      10519.918      10531.556      1231.4455     -59.084955      19819.658     -13075.416     -883.18167      142220.2       52.197987      52.197987      52.197987      1.0774221      1260.416       427.2684      -843.09614    
     68000   68000          698.68067     -219.45473      61178.568      61633.864      22698.632      38935.232      9925.6981      10456.346      10574.748      1288.8356     -52.247451      19818.748     -13076.895     -882.95432      142256.82      52.202467      52.202467      52.202467      1.0771447     -1557.8287      55.871316      843.59318    
     68500   68500          700.9827       441.64909      62304.018      61400.938      22773.42       38627.518      9740.19        10556.067      10595.882      1228.8126     -252.75758      19834.025     -13074.701     -895.85565      140208.16      51.950663      51.950663      51.950663      1.0928835     -406.54545      691.99523      1039.4975    
     69000   69000          685.56851     -696.32058      59730.404      61155.582      22272.646      38882.935      9866.3165      10679.738      10449.19       1279.4549     -135.54746      19818.388     -13074.605     -895.00902      140340.79      51.967039      51.967039      51.967039      1.0918506      445.76037     -1367.6539     -1167.0682    
     69500   69500          689.65159     -151.59337      60954.479      61266.656      22405.297      38861.36       9781.7404      10658.005      10484.562      1239.824      -76.271779      19838.413     -13064.913     -889.5418       141203.34      52.073286      52.073286      52.073286      1.085181      -53.601715      404.61967     -805.79806    
     70000   70000          704.48216      456.97654      62350.86       61406.068      22887.11       38518.958      9742.4285      10432.126      10452.468      1211.5138     -52.836504      19813.789     -13080.531     -886.0224       141764.22      52.142143      52.142143      52.142143      1.0808876     -132.30796      385.36168      1117.8759    
     70500   70500          697.71261     -3044.8274      55448.767      61733.621      22667.182      39066.439      9885.4679      10670.507      10784.426      1236.7738     -244.67937      19816.09      -13082.146     -887.47217      141532.63      52.113734      52.113734      52.113734      1.0826562     -3246.6569     -2334.8683     -3552.957     
     71000   71000          698.05769     -35.201671      61495.89       61568.196      22678.392      38889.804      9795.8419      10417.55       10707.126      1269.8853     -20.817264      19803.258     -13083.041     -891.81554      140843.33      52.028994      52.028994      52.028994      1.0879548     -1052.3686      1757.2244     -810.46082    
     71500   71500          690.26064      108.81764      61943.264      61717.619      22425.083      39292.535      9961.1067      10639.44       10665.388      1281.81        9.8447448      19818.544     -13083.598     -883.40582      142184.11      52.193572      52.193572      52.193572      1.0776955      483.05196      925.95678     -1082.5558    
     72000   72000          703.04972     -1204.6919      59319.993      61833.569      22840.573      38992.996      9857.9458      10442.976      10581.803      1300.9194      60.663145      19821.796     -13073.108     -877.95279      143067.23      52.301409      52.301409      52.301409      1.0710432     -1924.0978     -819.41952     -870.5582     
     72500   72500          703.11664     -1278.6146      59311.87       61977.686      22842.747      39134.939      9753.8262      10589.507      10814.665      1249.8435     -28.352549      19825.783     -13070.333     -878.61126      142960.01      52.28834       52.28834       52.28834       1.0718465     -2559.5733     -565.5635      -710.70704    
     73000   73000          703.8544       1336.861       64638.679      61871.688      22866.715      39004.972      9862.3979      10524.632      10662.234      1258.0179     -40.641152      19811.905     -13073.574     -885.04547      141920.7       52.161321      52.161321      52.161321      1.0796958      305.8787       1918.7708      1785.9336    
     73500   73500          700.27964     -1179.6263      59203.605      61642.614      22750.579      38892.035      9788.2987      10489.711      10763.165      1235.3428     -103.10133      19804.613     -13085.993     -885.96827      141772.88      52.143204      52.143204      52.143204      1.0808215     -2290.0217     -182.89228     -1065.9648    
     74000   74000          699.34764      488.69624      62569.653      61561.087      22720.3        38840.786      9811.2772      10410.239      10786.506      1219.4644     -133.08609      19825.527     -13079.141     -887.60917      141510.79      52.111053      52.111053      52.111053      1.0828233      1084.9399      579.46283     -198.31397    
     74500   74500          697.08932      1138.8731      64177.948      61849.614      22646.932      39202.682      10123.064      10408.453      10796.393      1251.2957     -119.58291      19824.807     -13081.749     -896.01919      140182.57      51.947502      51.947502      51.947502      1.093083       820.12095      892.95403      1703.5443    
     75000   75000          698.42246      631.71003      62948.693      61643.714      22690.243      38953.471      9896.6775      10399.626      10629.007      1270.8035     -3.7596099      19839.495     -13078.378     -886.75053      141647.81      52.127867      52.127867      52.127867      1.0817758      818.69643     -10.513108      1086.9468    
     75500   75500          707.48509      498.0493       62569.347      61533.573      22984.669      38548.905      9733.1722      10428.419      10301.073      1225.0331      125.64281      19810.365     -13074.801     -880.83497      142599.1       52.244301      52.244301      52.244301      1.0745592      395.75938      915.33468      183.05384    
     76000   76000          696.71298      485.5966       62773.834      61759.795      22634.706      39125.089      9942.3616      10480.28       10644.438      1260.0523      21.688397      19848.484     -13072.214     -877.21938      143186.84      52.31598       52.31598       52.31598       1.0701485      967.285        1401.0935     -911.58866    
     76500   76500          706.33108      1236.0473      64668.953      62080.371      22947.177      39133.194      10010.461      10240.954      10640.027      1267.7011      251.54038      19806.3       -13083.789     -874.70274      143598.81      52.366106      52.366106      52.366106      1.0670783      2387.5399      12.060559      1308.5414    
     77000   77000          701.68679      1091.1324      63768.883      61500.586      22796.294      38704.292      9805.6967      10413.462      10426.461      1268.5167      77.631473      19797.152     -13084.627     -881.18016      142543.23      52.237478      52.237478      52.237478      1.0749804      1308.418       1804.9342      160.04499    
     77500   77500          695.80229      1071.821       63873.768      61643.34       22605.12       39038.22       9887.4801      10458.037      10749.838      1253.8005     -47.700062      19818.906     -13082.142     -880.28055      142688.91      52.255267      52.255267      52.255267      1.0738829      801.13999      52.956854      2361.366     
     78000   78000          697.99129     -605.63486      60548.441      61809.883      22676.236      39133.647      9772.1079      10557.057      10748.671      1290.3622      9.1499777      19834.618     -13078.318     -879.49004      142817.16      52.270918      52.270918      52.270918      1.0729185     -585.35125     -687.46261     -544.09071    
     78500   78500          705.15674     -588.93991      60780.48       61999.106      22909.025      39090.08       9891.4054      10538.761      10642.158      1280.4009      17.485971      19801.645     -13081.776     -885.29468      141880.75      52.156426      52.156426      52.156426      1.0799998      106.97405     -1984.2205      110.42677    
     79000   79000          698.9154      -810.48804      59915.288      61597.696      22706.258      38891.438      9762.04        10347.6        10760.601      1301.7203     -7.535476       19809.982     -13082.969     -882.4752       142334.05      52.211913      52.211913      52.211913      1.0765602     -1811.9615     -1216.9491      597.44647    
     79500   79500          700.42292      484.92997      62514.938      61509.29       22755.234      38754.057      9934.114       10283.842      10571.953      1294.7428     -54.17414       19806.637     -13083.058     -883.32453      142197.2       52.195173      52.195173      52.195173      1.0775963      563.08645      803.78565      87.917821    
     80000   80000          697.2918       1091.1461      63902.359      61655.977      22653.51       39002.467      9797.1232      10505.216      10702.643      1249.525       14.332886      19809.756     -13076.13      -889.78804      141164.26      52.068482      52.068482      52.068482      1.0854814      494.26336      1942.775       836.39992    
     80500   80500          704.31891     -445.53721      61071.087      61999.829      22881.806      39118.023      9742.202       10670.009      10692.929      1271.7184      21.256514      19800.622     -13080.714     -878.77155      142933.93      52.28516       52.28516       52.28516       1.072042      -965.76366      953.20285     -1324.0508    
     81000   81000          701.77535      706.06611      62974.154      61506.795      22799.171      38707.623      9775.7721      10345.901      10682.844      1240.4929     -59.550159      19805.512     -13083.348     -881.44674      142500.13      52.232212      52.232212      52.232212      1.0753056      1212.6397      70.009442      835.54924    
     81500   81500          702.00345     -336.77389      61027.488      61726.416      22806.582      38919.835      9792.175       10415.083      10796.598      1284.668      -120.94407      19833.443     -13081.188     -882.65952      142304.33      52.208278      52.208278      52.208278      1.0767851     -500.66791     -1078.6156      568.9618     
     82000   82000          701.01083     -1875.7994      57861.178      61766.313      22774.334      38991.979      9881.6767      10521.936      10711.806      1228.9011     -90.185923      19816.943     -13079.097     -879.90847      142749.25      52.262632      52.262632      52.262632      1.073429      -49.23847      -2156.0142     -3422.1454    
     82500   82500          704.32407      705.80147      63425.004      61941.735      22881.974      39059.761      9936.8026      10484.834      10554.341      1243.8696      84.240655      19832.386     -13076.712     -871.66521      144099.21      52.426863      52.426863      52.426863      1.0633728      770.4714      -523.57521      1870.5082    
     83000   83000          695.3742       1258.6681      64434.057      61790.935      22591.212      39199.724      9929.9768      10509.129      10558.006      1241.2036      211.83665      19821.176     -13071.605     -872.33105      143989.22      52.41352       52.41352       52.41352       1.064185       280.27564      2085.0575      1410.6713    
     83500   83500          699.59901      177.50881      61789.545      61416.997      22728.467      38688.53       9789.6652      10391.273      10506.363      1217.4937     -1.4701962      19851.991     -13066.785     -872.81997      143908.57      52.403732      52.403732      52.403732      1.0647815     -1198.0184      235.17637      1495.3685    
     84000   84000          695.29989      897.01692      63421.981      61546.79       22588.798      38957.992      9880.1109      10366.091      10585.329      1236.7204      141.83355      19813.537     -13065.629     -876.27894      143340.51      52.334689      52.334689      52.334689      1.0690012      671.55165      1012.2396      1007.2596    
     84500   84500          691.03083      52.830551      61771.245      61660.209      22450.105      39210.104      9769.1636      10592.138      10782.393      1265.4419      38.177472      19837.345     -13074.555     -871.57725      144113.76      52.428626      52.428626      52.428626      1.0632655      28.807088      310.85864     -181.17408    
     85000   85000          693.10495     -226.57029      60792.426      61267.182      22517.489      38749.693      9466.7825      10296.101      10866.36       1252.1862      108.91601      19827.399     -13068.051     -874.21893      143678.28      52.375764      52.375764      52.375764      1.0664881     -684.69917      8.3356236     -3.3473088    
     85500   85500          697.80337     -1419.0816      58514.371      61472.438      22670.13       38802.308      9683.0204      10243.088      10775.751      1278.363       56.899579      19839.582     -13074.397     -878.79312      142930.42      52.284732      52.284732      52.284732      1.0720683     -1335.7233     -2070.615      -850.90662    
     86000   86000          695.21724     -184.34745      61320.405      61701.17       22586.113      39115.057      9786.7811      10442.184      10830.491      1299.4734     -18.254763      19850.553     -13076.17      -886.88614      141626.15      52.12521       52.12521       52.12521       1.0819413     -743.94174     -10.093774      200.99315    
     86500   86500          701.49519     -1116.7767      59374.208      61695.153      22790.07       38905.083      9819.3671      10446.755      10612.038      1264.7712     -29.566813      19865.863     -13074.145     -881.43157      142502.58      52.232511      52.232511      52.232511      1.0752871     -495.52248     -1200.264      -1654.5436    
     87000   87000          714.28294      749.01986      63545.802      61991.555      23205.516      38786.039      9848.1203      10265.862      10616.627      1238.6168      49.089754      19838.951     -13071.228     -882.79599      142282.33      52.205588      52.205588      52.205588      1.0769516      365.53517      1374.3571      507.16737    
[...]
   2351000   2351000        351.46505      167.83943      37747.033      37431.68       11418.343      26013.337      5634.8899      7696.2744      6929.8496      627.43881     -1486.029       19725.862     -13114.949     -974.9548       128832.92      50.505919      50.505919      50.505919      1.1893791      873.95652     -452.81092      82.372681    
   2351500   2351500        352.1698      -514.65926      36568.463      37533.501      11441.239      26092.262      5666.897       7671.5185      6964.624       648.18512     -1478.0894      19729.763     -13110.636     -976.92778      128572.73      50.471896      50.471896      50.471896      1.191786      -233.80515     -912.2406      -397.93203    
   2352000   2352000        352.08512      732.36417      38909.328      37534.947      11438.488      26096.459      5763.8146      7731.0143      6864.9449      637.30432     -1508.3402      19718.028     -13110.307     -976.12844      128678.02      50.485669      50.485669      50.485669      1.1908109      1351.3774      387.09789      458.61725    
   2352500   2352500        350.97771     -732.23904      36283.857      37661.593      11402.511      26259.082      5731.4955      7725.2138      7066.5395      627.19982     -1499.4383      19719.907     -13111.835     -973.58534      129014.13      50.529589      50.529589      50.529589      1.1877084     -839.3086      -1408.6087      51.200199    
   2353000   2353000        346.81438      1199.0233      39711.703      37466.188      11267.253      26198.935      5698.1106      7772.6363      6959.4654      620.1773      -1449.7405      19714.117     -13115.831     -978.13538      128413.99      50.451117      50.451117      50.451117      1.1932592      1005.9224      423.51533      2167.6323    
   2353500   2353500        348.76309     -702.2591       36143.073      37464.287      11330.562      26133.724      5598.9184      7666.7117      7042.3873      625.17929     -1401.764       19710.108     -13107.817     -973.66934      129003         50.528136      50.528136      50.528136      1.1878109     -862.64325     -315.2015      -928.93254    
   2354000   2354000        352.55466     -417.01342      36873.859      37659.088      11453.743      26205.346      5616.4183      7734.6456      7078.8371      638.25702     -1481.2272      19728.659     -13110.244     -972.83846      129113.18      50.542517      50.542517      50.542517      1.1867973      187.85662     -56.498626     -1382.3983    
   2354500   2354500        345.09196     -1101.1137      35247.85       37318.874      11211.295      26107.579      5626.5506      7693.6925      7050.5544      626.53269     -1488.4116      19714.332     -13115.672     -973.94462      128966.54      50.523375      50.523375      50.523375      1.1881467     -1077.7107     -938.26493     -1287.3654    
   2355000   2355000        345.15044     -1031.2215      35336.132      37283.716      11213.195      26070.521      5585.0421      7728.8109      7035.0182      625.92447     -1502.805       19713.585     -13115.055     -969.936        129499.54      50.592881      50.592881      50.592881      1.1832565     -1605.8091     -96.325325     -1391.5302    
   2355500   2355500        347.67491     -268.61401      36885.599      37392.156      11295.21       26096.946      5657.8202      7717.3928      7013.8799      637.09654     -1551.8627      19732.773     -13110.154     -971.37577      129307.6       50.567873      50.567873      50.567873      1.1850129     -1585.8284      606.85749      173.12887    
   2356000   2356000        348.4014      -200.58619      37097.299      37475.189      11318.812      26156.377      5653.0887      7626.8215      7083.3454      653.55755     -1481.6302      19725.965     -13104.771     -972.34977      129178.07      50.550983      50.550983      50.550983      1.1862011     -502.74942     -54.596156     -44.413011    
   2356500   2356500        353.68967      1825.9608      41030.695      37608.626      11490.616      26118.009      5664.5549      7732.6331      6893.4975      644.41968     -1445.3779      19734.928     -13106.646     -977.43945      128505.42      50.463087      50.463087      50.463087      1.1924102      2309.7583      831.75164      2336.3726    
   2357000   2357000        348.06329     -355.21553      36781.909      37451.5        11307.827      26143.672      5657.3121      7741.9974      7024.5979      638.12311     -1533.5671      19722.878     -13107.67      -971.78477      129253.18      50.560778      50.560778      50.560778      1.1855119     -322.29053      62.962929     -806.31899    
   2357500   2357500        350.8035      -408.42431      36776.697      37547.427      11396.851      26150.577      5660.1162      7687.376       6953.3179      647.42652     -1400.9965      19710.235     -13106.898     -970.72533      129394.24      50.579165      50.579165      50.579165      1.1842194      110.60887     -549.39183     -786.48997    
   2358000   2358000        348.45142      516.39811      38481.303      37511.507      11320.437      26191.07       5628.6052      7769.7119      7011.425       650.62206     -1495.0406      19736.042     -13110.295     -975.41951      128771.54      50.497897      50.497897      50.497897      1.189946       1877.9789      747.09964     -1075.8842    
   2358500   2358500        349.36911     -274.46548      36912.627      37429.417      11350.251      26079.167      5638.0555      7652.0196      7021.6829      625.06787     -1478.1818      19730.683     -13110.16      -972.88205      129107.4       50.541762      50.541762      50.541762      1.1868505     -697.18338      697.50011     -823.71318    
   2359000   2359000        346.57711      163.56752      37719.277      37412.87       11259.545      26153.325      5640.2531      7715.8368      7011.3509      626.60059     -1460.2126      19732.515     -13113.019     -977.87977      128447.56      50.455512      50.455512      50.455512      1.1929474      236.32555      823.98644     -569.60943    
   2359500   2359500        351.04215     -619.98259      36304.617      37475.544      11404.604      26070.94       5569.0665      7734.6423      6997.2137      633.43487     -1476.8819      19727.505     -13114.041     -969.92234      129501.37      50.593119      50.593119      50.593119      1.1832398     -162.76203     -221.67239     -1475.5133    
   2360000   2360000        350.54437      206.51223      37799.967      37412.221      11388.433      26023.788      5561.0611      7617.0781      6994.4759      612.78504     -1380.7159      19726.201     -13107.097     -975.62995      128743.76      50.494266      50.494266      50.494266      1.1902027      855.768        486.86679     -723.09809    
   2360500   2360500        352.61807      416.81387      38282.151      37497.212      11455.803      26041.409      5602.5502      7688.8028      6974.5935      634.87601     -1467.8574      19722.113     -13113.668     -972.73232      129127.27      50.544355      50.544355      50.544355      1.1866678     -118.57167     -488.88598      1857.8993    
   2361000   2361000        350.52574     -232.48188      37271.373      37710.223      11387.827      26322.396      5803.0338      7633.1565      7059.4655      629.12462     -1414.0338      19720.987     -13109.338     -970.42154      129434.75      50.584442      50.584442      50.584442      1.1838488      501.78563     -992.93971     -206.29156    
   2361500   2361500        353.79782      458.24816      38531.893      37672.811      11494.13       26178.681      5788.8661      7594.142       7013.3295      626.51226     -1453.0526      19717.641     -13108.757     -977.13278      128545.75      50.468366      50.468366      50.468366      1.1920361     -269.54907      1323.6365      320.6571     
   2362000   2362000        353.56656      72.878414      37682.322      37545.475      11486.617      26058.859      5653.7017      7697.4184      6948.334       626.36204     -1471.0188      19713.186     -13109.125     -975.55558      128753.58      50.495549      50.495549      50.495549      1.190112      -590.72409      74.685943      734.67338    
   2362500   2362500        351.46203      547.79452      38513.988      37485.434      11418.245      26067.188      5773.818       7676.6259      6921.0562      610.65896     -1525.7556      19719.422     -13108.637     -975.61351      128745.93      50.49455       50.49455       50.49455       1.1901827      869.95696      255.28487      518.14173    
   2363000   2363000        346.13951     -321.34333      36805.734      37412.208      11245.328      26166.88       5646.0712      7691.6021      7017.6342      625.28194     -1440.546       19737.485     -13110.649     -970.6095       129409.69      50.581177      50.581177      50.581177      1.1840781      865.75852     -936.82376     -892.96476    
   2363500   2363500        347.36575     -98.686335      37090.359      37275.585      11285.166      25990.419      5590.0189      7681.9874      6971.7379      627.20095     -1512.4497      19737.593     -13105.669     -975.98271      128697.23      50.488182      50.488182      50.488182      1.1906331     -353.54866     -410.82964      468.31929    
   2364000   2364000        349.88197     -663.49009      36267.334      37520.344      11366.913      26153.432      5651.8272      7727.9953      7026.2858      618.33055     -1465.3443      19705.963     -13111.626     -969.98955      129492.4       50.59195       50.59195       50.59195       1.1833218     -1679.3283     -246.41658     -64.725412    
   2364500   2364500        349.54231     -470.62672      36621.303      37502.866      11355.878      26146.988      5586.6251      7741.2258      7036.6817      647.21888     -1465.5336      19713.147     -13112.377     -977.93678      128440.07      50.454532      50.454532      50.454532      1.1930169     -1006.1231      368.02344     -773.78047    
   2365000   2365000        351.45108     -830.21048      35999.379      37564.48       11417.89       26146.59       5658.5197      7593.3295      7061.1127      640.61849     -1419.3293      19720.375     -13108.036     -971.70218      129264.16      50.56221       50.56221       50.56221       1.1854111     -1112.049      -775.22302     -603.35945    
   2365500   2365500        351.37789      1064.6107      39338.143      37335.692      11415.512      25920.18       5503.7411      7722.2351      6871.1422      629.3379      -1431.2248      19734.175     -13109.226     -973.90386      128971.94      50.52408       50.52408       50.52408       1.188097       2297.0709      912.1892      -15.428028    
   2366000   2366000        345.33141      1361.3339      39885.733      37335.783      11219.075      26116.708      5649.0209      7783.7961      6890.1269      640.01709     -1489.7764      19749.375     -13105.851     -977.9578       128437.31      50.45417       50.45417       50.45417       1.1930426      472.13153      1731.859       1880.0111    
   2366500   2366500        348.71796      377.26115      38156.265      37449.93       11329.096      26120.834      5717.3915      7703.063       6994.7676      622.75852     -1514.0346      19711.301     -13114.413     -978.4052       128378.58      50.446479      50.446479      50.446479      1.1935884      503.9685       618.23244      9.5824981    
   2367000   2367000        351.93003      845.66387      39149.423      37558.513      11433.45       26125.064      5666.4963      7716.2455      6972.9367      634.39606     -1489.3015      19732.518     -13108.227     -973.73209      128994.69      50.52705       50.52705       50.52705       1.1878875      840.08773      1220.3619      476.54201    
   2367500   2367500        353.68475      459.89035      38511.405      37646.021      11490.457      26155.565      5785.3903      7692.648       6921.0425      633.77442     -1476.9274      19715.327     -13115.69      -973.49324      129026.34      50.531182      50.531182      50.531182      1.1875961      1841.1924      368.80872     -830.33005    
   2368000   2368000        352.45518     -2.2087475      37737.325      37741.469      11450.511      26290.958      5718.0432      7744.4186      6933.504       659.94171     -1353.2008      19703.343     -13115.092     -976.40241      128641.91      50.480947      50.480947      50.480947      1.1911451      563.01515     -382.60954     -187.03185    
   2368500   2368500        352.86862      930.44587      39400.902      37653.498      11463.942      26189.556      5596.2627      7651.8481      7067.9116      639.81982     -1403.0577      19743.469     -13106.698     -975.40538      128773.4       50.498141      50.498141      50.498141      1.1899288     -5.7193078      1299.6692      1497.3877    
   2369000   2369000        349.35771     -362.37965      36843.113      37524.054      11349.88       26174.174      5643.6941      7694.1676      7104.0346      635.65451     -1515.536       19724.159     -13112         -974.85734      128845.8       50.507602      50.507602      50.507602      1.1892602      11.286602     -48.415027     -1050.0105    
   2369500   2369500        345.70285      382.90217      38229.839      37511.286      11231.142      26280.144      5724.3934      7824.8626      6976.7555      621.29133     -1494.6953      19734.476     -13106.939     -976.14839      128675.39      50.485325      50.485325      50.485325      1.1908352      418.66089      1308.5993     -578.55372    
   2370000   2370000        342.1033      -184.61588      36905.547      37252.218      11114.2        26138.018      5619.5026      7692.0898      7086.3502      640.1842      -1515.9731      19723.227     -13107.362     -975.52635      128757.43      50.496054      50.496054      50.496054      1.1900763     -76.700331     -1098.2628      621.11547    
   2370500   2370500        348.01935     -442.90184      36527.077      37363.902      11306.4        26057.502      5674.0404      7679.7968      6949.9368      632.01914     -1501.828       19731.89      -13108.353     -969.52738      129554.12      50.599988      50.599988      50.599988      1.182758      -815.04243      306.43365     -820.09675    
   2371000   2371000        350.69235     -229.2163       37156.49       37587.624      11393.24       26194.384      5628.8813      7723.1722      6994.6313      632.96003     -1398.4928      19723.311     -13110.078     -973.91173      128970.9       50.523944      50.523944      50.523944      1.1881066     -875.79778      454.30289     -266.15402    
   2371500   2371500        348.79436      119.98657      37700.383      37476.06       11331.579      26144.481      5691.8585      7678.2783      7061.3258      633.19213     -1524.6657      19717.439     -13112.946     -979.82007      128193.2       50.422185      50.422185      50.422185      1.1953144      682.40299     -496.49609      174.05283    
   2372000   2372000        352.00758     -472.76748      36531.612      37420.965      11435.969      25984.996      5593.5543      7687.4407      7041.4773      609.27931     -1575.5491      19737.64      -13108.847     -973.78017      128988.32      50.526219      50.526219      50.526219      1.1879461     -1601.517       201.79682     -18.582283    
   2372500   2372500        346.76358     -404.98793      36588.136      37347.912      11265.603      26082.31       5716.308       7731.8891      6940.5963      624.63375     -1536.3346      19719.146     -13113.929     -976.43602      128637.48      50.480368      50.480368      50.480368      1.1911861      138.90721     -1318.3303     -35.540673    
   2373000   2373000        348.85927     -688.74395      36245.476      37539.97       11333.687      26206.283      5747.9094      7661.9547      7097.2484      659.84889     -1580.2991      19732.245     -13112.625     -974.64143      128874.34      50.511332      50.511332      50.511332      1.1889968     -1980.1569      191.30648     -277.3814     
   2373500   2373500        351.86621      18.398218      37587.749      37553.235      11431.376      26121.859      5642.5099      7635.7114      7139.6484      634.49724     -1525.6925      19710.594     -13115.409     -976.49209      128630.09      50.479401      50.479401      50.479401      1.1912545     -378.59093      762.99716     -329.21157    
   2374000   2374000        351.43176      1093.1998      39563.97       37512.025      11417.262      26094.763      5650.5167      7719.7028      6881.3411      646.99295     -1408.8733      19721.48      -13116.397     -975.93511      128703.51      50.489003      50.489003      50.489003      1.190575       663.47817      1644.5684      971.55275    
   2374500   2374500        349.4759       241.49898      37890.312      37437.511      11353.72       26083.79       5704.0337      7671.997       6908.3975      629.70568     -1423.0306      19706.447     -13113.76      -976.99973      128563.26      50.470657      50.470657      50.470657      1.1918738      92.816624     -388.87356      1020.5539    
   2375000   2375000        346.73234     -98.661778      37126.712      37312.213      11264.588      26047.625      5600.7181      7667.0559      6999.674       642.51672     -1471.2444      19717.193     -13108.289     -974.29607      128920.02      50.517299      50.517299      50.517299      1.1885755      1281.6703     -768.5403      -809.11538    
Loop time of 688.786 on 1 procs for 125000 steps with 10900 atoms

Performance: 15.680 ns/day, 1.531 hours/ns, 181.479 timesteps/s, 1.978 Matom-step/s
100.0% CPU use with 1 MPI tasks x 1 OpenMP threads

MPI task timing breakdown:
Section |  min time  |  avg time  |  max time  |%varavg| %total
---------------------------------------------------------------
Pair    | 356.56     | 356.56     | 356.56     |   0.0 | 51.77
Bond    | 95.992     | 95.992     | 95.992     |   0.0 | 13.94
Kspace  | 138.75     | 138.75     | 138.75     |   0.0 | 20.14
Neigh   | 30.377     | 30.377     | 30.377     |   0.0 |  4.41
Comm    | 4.1743     | 4.1743     | 4.1743     |   0.0 |  0.61
Output  | 0.088248   | 0.088248   | 0.088248   |   0.0 |  0.01
Modify  | 40.667     | 40.667     | 40.667     |   0.0 |  5.90
Other   |            | 22.18      |            |       |  3.22

Nlocal:          10900 ave       10900 max       10900 min
Histogram: 1 0 0 0 0 0 0 0 0 0
Nghost:          22598 ave       22598 max       22598 min
Histogram: 1 0 0 0 0 0 0 0 0 0
Neighs:              0 ave           0 max           0 min
Histogram: 1 0 0 0 0 0 0 0 0 0
FullNghs:  5.86624e+06 ave 5.86624e+06 max 5.86624e+06 min
Histogram: 1 0 0 0 0 0 0 0 0 0

Total # of neighbors = 5866236
Ave neighs/atom = 538.18679
Ave special neighs/atom = 5.6385321
Neighbor list builds = 3771
Dangerous builds = 0
  unfix npt_tg
  shell echo '{"stage":"T${temps}","status":"done"}' >> /home/arz2/PolyJarvis/data/PEEK2/lammps/thermal/tg_sweep_r160/tg_progress.jsonl
  print "STAGE COMPLETE: Tg step T=${temps}K P=1.0atm steps=125000"
STAGE COMPLETE: Tg step T=350K P=1.0atm steps=125000
  next temps
  jump SELF TEMP_LOOP

write_data tg_step_out.data
System init for write_data ...
PPPM Kokkos initialization ...
  using 12-bit tables for long-range coulomb
  G vector (1/distance) = 0.30959148
  grid = 40 40 40
  stencil order = 5
  estimated absolute RMS force accuracy = 0.00032848905
  estimated relative force accuracy = 9.8923502e-07
  using double precision cuFFT
  3d grid and FFT values/proc = 103823 64000
Generated 21 of 21 mixed pair_coeff terms from sixthpower/sixthpower mixing rule
Total wall time: 3:43:23
