units real
atom_style full
boundary p p p

# --- Force Field Styles ---
pair_style lj/cut 12.0
dielectric 1.000000
bond_style harmonic
angle_style harmonic
dihedral_style multi/harmonic
improper_style none
special_bonds lj 0 0 0
pair_modify mix arithmetic tail yes
neighbor 2.0 bin
neigh_modify delay 0 every 1 check yes
neigh_modify one 4000
package gpu 1 neigh yes

read_data /home/arz2/PolyJarvis/data/cis-PBD2/lammps/equil/npt_production/npt_production_out.data
Reading data file ...
  orthogonal box = (4.7926216 4.7926216 4.7926216) to (63.385756 63.385756 63.385756)
  1 by 1 by 1 MPI processor grid
  reading atoms ...
  8040 atoms
  reading velocities ...
  8040 velocities
  scanning bonds ...
  2 = max bonds/atom
  scanning angles ...
  1 = max angles/atom
  scanning dihedrals ...
  2 = max dihedrals/atom
  orthogonal box = (4.7926216 4.7926216 4.7926216) to (63.385756 63.385756 63.385756)
  1 by 1 by 1 MPI processor grid
  reading bonds ...
  8020 bonds
  reading angles ...
  8000 angles
  reading dihedrals ...
  7980 dihedrals
Finding 1-2 1-3 1-4 neighbors ...
  special bond factors lj:    0        0        0       
  special bond factors coul:  0        0        0       
     2 = max # of 1-2 neighbors
     2 = max # of 1-3 neighbors
     4 = max # of 1-4 neighbors
     6 = max # of special neighbors
  special bonds CPU = 0.002 seconds
  read_data CPU = 0.105 seconds
include /home/arz2/PolyJarvis/data/cis-PBD2/lammps/cell/emc_build.params
# LAMMPS parameters created by EMC v9.4.4, build Jul 31 2025 20:33:44

# Variables

variable	seed		index	734812
variable	ntotal		index	8040
variable	fshape		index	1
variable	output		index	emc_build
variable	field		index	trappe/2014/trappe-ua
variable	location1	index	/home/arz2/emc/field/
variable	nav		index	0.6022141179
variable	temperature	index	300
variable	radius		index	5
variable	nrelax		index	100
variable	weight_nonbond	index	0.0001
variable	weight_bond	index	0.0001
variable	weight_focus	index	1
variable	cutoff		index	14
variable	charge_cutoff	index	14
variable	kappa		index	4
variable	density1	index	0.57
variable	lprevious	index	0
variable	lphase		index	68.1783775471
variable	f_poly		index	20
variable	chem_repeat	index	*C/C=C\C*
variable	chem_cap	index	*C
variable	lg_repeat	index	4
variable	lg_cap		index	1
variable	norm_poly	index	100
variable	l_poly		index	402
variable	mg_repeat	index	54.0914
variable	mg_cap		index	15.0347
variable	m_poly		index	5439.2094
variable	n_poly		index	20
variable	mtotal		index	108784.188
variable	nphase1		index	8040
variable	mphase1		index	108784.188
variable	vphase1		index	316912.949994
variable	lbox		index	68.1783775471
variable	lphase1		index	68.1783775471
variable	lxx		index	68.1783775471
variable	lyy		index	68.1783775471
variable	lzz		index	68.1783775471
variable	lzy		index	0
variable	lzx		index	0
variable	lyx		index	0
variable	vtotal		index	316912.949994
variable	nl_poly		index	20

# Types

variable	type_c3h	index	1
variable	type_c4h2	index	2
variable	type_c4h3	index	3

variable	type_bond_c3h_c3h index	1
variable	type_bond_c3h_c4h2 index	2
variable	type_bond_c4h2_c4h2 index	3
variable	type_bond_c4h2_c4h3 index	4

variable	type_angle_c3h_c3h_c4h2 index	1
variable	type_angle_c3h_c4h2_c4h2 index	2
variable	type_angle_c3h_c4h2_c4h3 index	3

# Clusters

variable	n0_poly		index	1
variable	n1_poly		index	20
variable	nl_poly		index	20

# Flags

variable	flag_charged	index	0

# Masses

mass		1    13.01890  # c3h
mass		2    14.02680  # c4h2
mass		3    15.03470  # c4h3

# Potentials

pair_modify	mix arithmetic tail yes
special_bonds	lj 0 0 0 coul 0 0 0.5
Finding 1-2 1-3 1-4 neighbors ...
  special bond factors lj:    0        0        0       
  special bond factors coul:  0        0        0.5     
     2 = max # of 1-2 neighbors
     2 = max # of 1-3 neighbors
     4 = max # of 1-4 neighbors
     6 = max # of special neighbors
  special bonds CPU = 0.002 seconds

# Pair Coeffs

pair_coeff	1 1    0.09340    3.71000  # c3h,c3h
pair_coeff	2 2    0.09141    3.95000  # c4h2,c4h2
pair_coeff	3 3    0.19475    3.75000  # c4h3,c4h3

# Bond Coeffs

bond_coeff	1  529.99987    1.33000  # c3h,c3h
bond_coeff	2  260.00013    1.54000  # c3h,c4h2
bond_coeff	3  260.00013    1.54000  # c4h2,c4h2
bond_coeff	4  260.00013    1.54000  # c4h2,c4h3

# Angle Coeffs

angle_coeff	1   69.96954  119.70000  # c3h,c3h,c4h2
angle_coeff	2   62.10020  114.00000  # c3h,c4h2,c4h2
angle_coeff	3   62.10020  114.00000  # c3h,c4h2,c4h3

# Dihedral Coeffs

dihedral_coeff	1    1.91086    1.85422    0.43627   -2.24348    0.00000  # c3h,c3h,c4h2,c4h2
dihedral_coeff	2    1.91086    1.85422    0.43627   -2.24348    0.00000  # c3h,c3h,c4h2,c4h3
dihedral_coeff	3    2.00702   -4.01203    0.27102    6.29006    0.00000  # c3h,c4h2,c4h2,c3h
dihedral_coeff	4   25.63496    0.99360  -25.63496   -0.99360    0.00000  # c4h2,c3h,c3h,c4h2


# --- Thermo Output ---
thermo_style custom step time temp press enthalpy etotal ke pe ebond eangle edihed eimp evdwl ecoul elong etail vol lx ly lz density pxx pyy pzz
thermo_modify flush yes
thermo 500

# --- Velocity initialization at T_START (once only — Rule A) ---
velocity all create 400.0 923147 mom yes rot yes dist gaussian

# --- Temperature staircase (inherits momenta across steps — Rule A) ---
variable temps index 400 380 360 340 320 300 280 260 240 220 200 180 160 140 120 100 80
label TEMP_LOOP
  timestep 2.0
  fix npt_tg all npt temp ${temps} ${temps} 100.0 iso 1.0 1.0 1000.0
  fix npt_tg all npt temp 400 ${temps} 100.0 iso 1.0 1.0 1000.0
  fix npt_tg all npt temp 400 400 100.0 iso 1.0 1.0 1000.0
  run 25000

CITE-CITE-CITE-CITE-CITE-CITE-CITE-CITE-CITE-CITE-CITE-CITE-CITE

Your simulation uses code contributions which should be cited:

- GPU package (short-range, long-range and three-body potentials): doi:10.1016/j.cpc.2010.12.021, doi:10.1016/j.cpc.2011.10.012, doi:10.1016/j.cpc.2013.08.002, doi:10.1016/j.commatsci.2014.10.068, doi:10.1016/j.cpc.2016.10.020, doi:10.3233/APC200086

@Article{Brown11,
 author = {W. M. Brown and P. Wang and S. J. Plimpton and A. N. Tharrington},
 title = {Implementing Molecular Dynamics on Hybrid High Performance Computers---Short Range Forces},
 journal = {Comput.\ Phys.\ Commun.},
 year =    2011,
 volume =  182,
 pages =   {898--911},
 doi =     {10.1016/j.cpc.2010.12.021}
}

@Article{Brown12,
 author = {W. M. Brown and A. Kohlmeyer and S. J. Plimpton and A. N. Tharrington},
 title = {Implementing Molecular Dynamics on Hybrid High Performance Computers - Particle-Particle Particle-Mesh},
 journal = {Comput.\ Phys.\ Commun.},
 year =    2012,
 volume =  183,
 doi =     {10.1016/j.cpc.2011.10.012},
 pages =   {449--459}
}

@Article{Brown13,
 author = {W. M. Brown and Y. Masako},
 title = {Implementing Molecular Dynamics on Hybrid High Performance Computers---Three-Body Potentials},
 journal = {Comput.\ Phys.\ Commun.},
 year =    2013,
 volume =  184,
 pages =   {2785--2793},
 doi =     {10.1016/j.cpc.2013.08.002},
}

@Article{Trung15,
 author = {T. D. Nguyen and S. J. Plimpton},
 title = {Accelerating Dissipative Particle Dynamics Simulations for Soft Matter Systems},
 journal = {Comput.\ Mater.\ Sci.},
 year =    2015,
 doi =     {10.1016/j.commatsci.2014.10.068},
 volume =  100,
 pages =   {173--180}
}

@Article{Trung17,
 author = {T. D. Nguyen},
 title = {{GPU}-Accelerated {T}ersoff Potentials for Massively Parallel
    Molecular Dynamics Simulations},
 journal = {Comput.\ Phys.\ Commun.},
 year =    2017,
 doi =     {10.1016/j.cpc.2016.10.020},
 volume =  212,
 pages =   {113--122}
}

@inproceedings{Nikolskiy19,
 author = {V. Nikolskiy and V. Stegailov},
 title = {{GPU} Acceleration of Four-Site Water Models in {LAMMPS}},
 booktitle = {Proceedings of the International Conference on Parallel
    Computing (ParCo 2019), Prague, Czech Republic},
 doi =     {10.3233/APC200086},
 year =    2019
}

CITE-CITE-CITE-CITE-CITE-CITE-CITE-CITE-CITE-CITE-CITE-CITE-CITE

Generated 3 of 3 mixed pair_coeff terms from arithmetic mixing rule
Per MPI rank memory allocation (min/avg/max) = 15.41 | 15.41 | 15.41 Mbytes
   Step          Time           Temp          Press         Enthalpy        TotEng         KinEng         PotEng         E_bond        E_angle        E_dihed        E_impro         E_vdwl         E_coul         E_long         E_tail         Volume           Lx             Ly             Lz          Density          Pxx            Pyy            Pzz      
         0   0              400            678.30005      16084.123      14094.193      9585.0928      4509.0998      2407.1788      2431.8053      8760.8762      0             -9090.7605      0              0             -458.73975      201159.33      58.593134      58.593134      58.593134      0.8979965      645.15164      800.61524      589.13325    
       500   1000           399.62522     -755.63176      14482.131      16787.508      9576.112       7211.3961      3330.599       3105.2963      9358.8737      0             -8583.3729      0              0             -441.11383      209197.21      59.363381      59.363381      59.363381      0.86349326    -1039.2647     -565.74449     -661.88607    
      1000   2000           397.96816     -269.3219       16113.102      16938.976      9536.4044      7402.5717      3273.6453      3144.3889      9476.4926      0             -8491.9552      0              0             -438.87442      210264.66      59.464179      59.464179      59.464179      0.85910955    -368.33517     -520.67674      81.046198    
      1500   3000           403.45874      361.84485      18273.774      17166.265      9667.9736      7498.2913      3316.2954      3100.9327      9569.7069      0             -8488.6438      0              0             -439.70097      209869.4       59.426896      59.426896      59.426896      0.86072755     570.26445      223.65834      291.61176    
      2000   4000           397.77344      187.74781      17569.548      16991.177      9531.7384      7459.4389      3308.34        3109.3827      9449.6281      0             -8407.9119      0              0             -436.86852      211230.1       59.555051      59.555051      59.555051      0.85518293    -306.54014      572.35586      297.42772    
      2500   5000           401.92256      298.2048       18139.664      17217.634      9631.1625      7586.4717      3358.9167      3206.6132      9404.4257      0             -8383.484       0              0             -435.26318      212009.16      59.628178      59.628178      59.628178      0.85204044     918.80133      199.74409     -223.93101    
      3000   6000           397.74986      23.515669      17116.597      17043.537      9531.1733      7512.3638      3264.8455      3208.7273      9421.4507      0             -8382.6598      0              0             -433.17502      213031.17      59.723839      59.723839      59.723839      0.84795281     526.7901      -509.00068      52.757584    
      3500   7000           405.55599      61.795596      17582.791      17390.655      9718.2294      7672.4252      3313.7069      3251.1455      9434.1425      0             -8326.5697      0              0             -432.84233      213194.91      59.739137      59.739137      59.739137      0.84730156     136.01927      522.76191     -473.39439    
      4000   8000           398.33003      14.491358      17192.703      17147.97       9545.0759      7602.8944      3340.3516      3181.7779      9476.4422      0             -8395.6774      0              0             -435.97487      211663.08      59.595715      59.595715      59.595715      0.85343359    -211.28345      35.396768      219.36076    
      4500   9000           398.59795      75.371065      17310.848      17077.087      9551.4959      7525.5915      3338.341       3122.2077      9439.4736      0             -8374.4308      0              0             -433.9263       212662.34      59.689352      59.689352      59.689352      0.84942345    -480.8732       242.81635      464.17005    
      5000   10000          399.03626      285.11755      17893.333      17009.931      9561.999       7447.9321      3272.3566      3057.9766      9443.2917      0             -8325.6928      0              0             -434.3581       212450.93      59.669566      59.669566      59.669566      0.85026871     724.19783      354.30853     -223.15372    
      5500   11000          395.42069     -672.46849      15085.44       17165.181      9475.3601      7689.8209      3283.865       3230.2323      9524.448       0             -8348.7243      0              0             -435.15609      212061.34      59.633069      59.633069      59.633069      0.8518308     -285.46113     -1708.7023     -23.242008    
      6000   12000          401.0494      -167.6929       16821.038      17346.187      9610.2393      7735.9477      3274.8317      3256.0621      9505.7063      0             -8300.6523      0              0             -429.74865      214729.66      59.882145      59.882145      59.882145      0.84124559    -190.4629      -348.20669      35.590895    
      6500   13000          400.03011      63.369223      17620.753      17421.964      9585.8142      7836.1495      3275.8176      3227.6922      9563.2632      0             -8230.6235      0              0             -429.0095       215099.62      59.916515      59.916515      59.916515      0.83979868     112.06443     -234.80401      312.84725    
      7000   14000          401.40702      134.64775      17529.855      17112.107      9618.8087      7493.2978      3172.059       3248.7421      9399.2913      0             -8326.7946      0              0             -433.77729      212735.39      59.696186      59.696186      59.696186      0.84913176     0.78165428    -65.358257      468.51986    
      7500   15000          398.8442       413.63873      18502.543      17212.719      9557.3968      7655.322       3290.1628      3160.1485      9446.6395      0             -8241.6289      0              0             -431.59166      213812.71      59.796786      59.796786      59.796786      0.84485332     491.68484      528.47838      220.75296    
      8000   16000          400.92306      84.438541      17510.507      17245.71       9607.2118      7638.4981      3342.557       3148.2036      9405.8221      0             -8258.0847      0              0             -429.15027      215029.06      59.909963      59.909963      59.909963      0.84007424     118.75798     -33.915696      168.47334    
      8500   17000          402.58153     -1.3994722      17388.712      17393.123      9646.9533      7746.1694      3260.682       3167.0572      9485.5745      0             -8167.1443      0              0             -427.0592       216081.94      60.007586      60.007586      60.007586      0.83598091     95.361898     -16.367031     -83.193284    
      9000   18000          397.88058     -234.6539       16710.446      17450.044      9534.3057      7915.7385      3342.6977      3204.6544      9537.4078      0             -8169.0213      0              0             -426.98667      216118.65      60.010984      60.010984      60.010984      0.83583893     214.77527      5.9239168     -924.66088    
      9500   19000          403.88133      193.71368      18175.324      17566.531      9678.1001      7888.4312      3313.6157      3238.8395      9493.3678      0             -8157.3918      0              0             -428.226        215493.18      59.953035      59.953035      59.953035      0.83826495     345.64703      409.14759     -173.65359    
     10000   20000          396.56467     -126.48711      16835.637      17228.508      9502.7728      7725.7356      3271.6899      3177.9086      9553.5513      0             -8277.4141      0              0             -433.28942      212974.92      59.718582      59.718582      59.718582      0.84817675    -162.25421     -372.85927      155.65214    
     10500   21000          397.1331      -656.52996      15032.277      17083.755      9516.3941      7567.3605      3147.9842      3215.5716      9476.6209      0             -8272.8162      0              0             -430.69532      214257.68      59.838239      59.838239      59.838239      0.84309872    -1277.7505     -732.12691      40.287472    
     11000   22000          396.24339      309.20147      18257.094      17288.241      9495.0742      7793.1665      3180.919       3205.9621      9632.7537      0             -8226.4683      0              0             -429.50296      214852.49      59.893561      59.893561      59.893561      0.84076463     111.08266      55.912363      760.60939    
     11500   23000          394.48417     -144.85662      16566.548      17020.725      9452.9184      7567.8069      3046.1399      3137.8961      9556.3578      0             -8172.5868      0              0             -429.23527      214986.48      59.906009      59.906009      59.906009      0.84024063    -480.36089      513.94565     -468.15461    
     12000   24000          401.14633     -620.0234       15451.189      17398.469      9612.5619      7785.9075      3153.5588      3296.7053      9576.3168      0             -8240.6733      0              0             -428.51111      215349.8       59.939736      59.939736      59.939736      0.83882307    -627.04895     -349.51943     -883.50183    
     12500   25000          400.98758     -375.7567       16321.064      17508.592      9608.7579      7899.834       3249.04        3254.9072      9523.6453      0             -8127.7585      0              0             -425.83886      216701.18      60.064854      60.064854      60.064854      0.83359205    -510.66475     -519.47523     -97.130109    
     13000   26000          398.4945      -3.0667829      17073.127      17082.696      9549.0168      7533.6791      3217.9378      3100.2919      9505.3904      0             -8289.9409      0              0             -431.29857      213958.01      59.810327      59.810327      59.810327      0.84427959    -162.23149     -100.46056      253.49169    
     13500   27000          397.59123     -93.801302      16966.784      17260.411      9527.372       7733.0389      3297.6301      3138.4774      9500.6743      0             -8203.7428      0              0             -429.92803      214640.07      59.873815      59.873815      59.873815      0.84159672    -399.03825     -5.0056876      122.64003    
     14000   28000          401.20038     -402.78981      16051.021      17310.303      9613.8572      7696.4461      3244.2002      3251.5218      9468.3277      0             -8267.6037      0              0             -430.4651       214372.27      59.848904      59.848904      59.848904      0.84264805    -239.61342     -842.11494     -126.64106    
     14500   29000          400.26852      459.39493      18746.668      17307.662      9591.5272      7716.1345      3218.9264      3208.9157      9514.4457      0             -8226.1532      0              0             -429.64128      214783.32      59.887132      59.887132      59.887132      0.84103541     801.36093      230.84028      345.98359    
     15000   30000          401.67337      57.690187      17652.542      17473.184      9625.1913      7847.9928      3337.8998      3168.4582      9594.8472      0             -8253.2124      0              0             -432.87719      213177.74      59.737533      59.737533      59.737533      0.84736979     99.9687        266.50356     -193.4017     
     15500   31000          397.73853     -9.5057592      17152.216      17181.934      9530.9018      7651.0323      3212.7229      3179.4015      9484.0387      0             -8225.1307      0              0             -430.47554      214367.07      59.848421      59.848421      59.848421      0.84266849    -848.60624      238.57702      581.51195    
     16000   32000          396.9706      -95.906305      17028.324      17330.05       9512.5         7817.5501      3228.4276      3204.0464      9555.9397      0             -8170.8635      0              0             -427.77653      215719.6       59.974026      59.974026      59.974026      0.83738511     67.89298      -60.399349     -295.21255    
     16500   33000          406.43779      43.989358      17606.411      17468.499      9739.3598      7729.1395      3227.526       3165.3313      9573.3754      0             -8237.0931      0              0             -429.27012      214969.03      59.904387      59.904387      59.904387      0.84030885     366.65131     -200.27393     -34.409305    
     17000   34000          400.30809      347.63911      18449.7        17369.344      9592.4754      7776.869       3195.05        3237.1531      9623.2584      0             -8278.5926      0              0             -433.0562       213089.62      59.729301      59.729301      59.729301      0.84772021     35.144241      435.18454      572.58856    
     17500   35000          399.37139     -293.7129       16352.709      17273.398      9570.0296      7703.3687      3121.7823      3233.5631      9548.6121      0             -8200.5888      0              0             -429.33091      214938.59      59.90156       59.90156       59.90156       0.84042785    -69.978878     -709.4251      -101.73474    
     18000   36000          400.8318       262.21424      18361.781      17536.363      9605.025       7931.3377      3248.8899      3180.6767      9654.7752      0             -8153.0041      0              0             -427.52786      215845.07      59.985651      59.985651      59.985651      0.83689832    -30.273315      403.85495      413.06109    
     18500   37000          403.94813     -138.81176      17141.226      17577.763      9679.7008      7898.0623      3255.455       3192.1859      9630.0338      0             -8179.6124      0              0             -427.94467      215634.84      59.96617       59.96617       59.96617       0.83771424    -762.00511      79.261651      266.30818    
     19000   38000          398.60591      187.8611       17906.941      17314.531      9551.6866      7762.8444      3244.5421      3144.9641      9535.8728      0             -8162.5346      0              0             -426.77268      216227.01      60.021012      60.021012      60.021012      0.83542004    -53.186838      566.34288      50.427251    
     19500   39000          398.14378     -487.85044      15899.611      17446.665      9540.6127      7906.052       3142.9965      3250.5786      9591.0181      0             -8078.5412      0              0             -424.38873      217441.64      60.133189      60.133189      60.133189      0.83075339    -677.52338     -15.549561     -770.47837    
     20000   40000          404.69239     -16.63043       17543.369      17595.603      9697.5354      7898.0674      3227.1005      3281.2817      9586.4967      0             -8196.8116      0              0             -428.48287      215363.99      59.941052      59.941052      59.941052      0.83876778    -7.1313224      831.03869     -873.79866    
     20500   41000          401.64547     -251.54761      16510.389      17302.596      9624.5228      7678.0732      3124.4425      3193.8348      9565.4406      0             -8205.6447      0              0             -427.33043      215944.79      59.994888      59.994888      59.994888      0.83651185    -361.53776     -394.61078      1.5057005    
     21000   42000          395.21986     -857.88733      14573.652      17269.163      9470.5477      7798.6152      3235.456       3147.2219      9609.4958      0             -8193.5585      0              0             -428.32316      215444.29      59.948502      59.948502      59.948502      0.83845515    -898.28263     -1510.1868     -165.19254    
     21500   43000          397.76125     -205.2119       16613.482      17259.922      9531.4461      7728.4754      3176.7549      3226.9125      9499.62        0             -8174.812       0              0             -427.2252       215997.98      59.999813      59.999813      59.999813      0.83630586     32.729963     -14.57488      -633.79078    
     22000   44000          401.93693     -260.02254      16586.668      17402.307      9631.507       7770.7996      3264.8967      3168.027       9521.728       0             -8183.8521      0              0             -429.03784      215085.41      59.915196      59.915196      59.915196      0.83985416    -770.76557     -127.67649      118.37445    
     22500   45000          402.30227     -137.98735      16989.346      17424.002      9640.2615      7783.7403      3262.0603      3128.0442      9580.314       0             -8186.6783      0              0             -427.24423      215988.36      59.998922      59.998922      59.998922      0.83634311    -280.07204      714.61461     -848.50463    
     23000   46000          397.11896      615.68582      19320.703      17392.5        9516.0552      7876.445       3275.9173      3262.6544      9525.1717      0             -8187.2984      0              0             -429.72334      214742.31      59.88332       59.88332       59.88332       0.84119603     476.55476      504.66672      865.83599    
     23500   47000          399.80945     -532.20223      15824.766      17510.893      9580.5267      7930.366       3290.9852      3217.2132      9567.931       0             -8145.7635      0              0             -424.78483      217238.88      60.114493      60.114493      60.114493      0.83152876    -783.37915     -299.22041     -514.00715    
     24000   48000          403.85298     -283.33771      16703.408      17598.244      9677.4206      7920.8234      3237.0887      3259.762       9537.8915      0             -8113.9188      0              0             -426.13145      216552.38      60.051103      60.051103      60.051103      0.83416481    -543.80142     -65.945589     -240.26613    
     24500   49000          401.56743     -137.98305      16801.407      17233.289      9622.6528      7610.6361      3221.0744      3137.0095      9467.5278      0             -8214.9756      0              0             -429.97544      214616.4       59.871615      59.871615      59.871615      0.84168952     219.60515     -978.8998       345.3455     
     25000   50000          404.89149      162.04127      17987.207      17476.749      9702.3063      7774.4425      3240.4638      3205.8578      9486.7501      0             -8158.6293      0              0             -427.2166       216002.33      60.000216      60.000216      60.000216      0.83628903    -63.340943      563.55251     -14.087747    
Loop time of 45.9182 on 1 procs for 25000 steps with 8040 atoms

Performance: 94.080 ns/day, 0.255 hours/ns, 544.447 timesteps/s, 4.377 Matom-step/s
99.6% CPU use with 1 MPI tasks x 1 OpenMP threads

MPI task timing breakdown:
Section |  min time  |  avg time  |  max time  |%varavg| %total
---------------------------------------------------------------
Pair    | 8.4453     | 8.4453     | 8.4453     |   0.0 | 18.39
Bond    | 30.15      | 30.15      | 30.15      |   0.0 | 65.66
Neigh   | 0.016388   | 0.016388   | 0.016388   |   0.0 |  0.04
Comm    | 2.2844     | 2.2844     | 2.2844     |   0.0 |  4.97
Output  | 0.0058074  | 0.0058074  | 0.0058074  |   0.0 |  0.01
Modify  | 3.9424     | 3.9424     | 3.9424     |   0.0 |  8.59
Other   |            | 1.073      |            |       |  2.34

Nlocal:           8040 ave        8040 max        8040 min
Histogram: 1 0 0 0 0 0 0 0 0 0
Nghost:          17556 ave       17556 max       17556 min
Histogram: 1 0 0 0 0 0 0 0 0 0
Neighs:              0 ave           0 max           0 min
Histogram: 1 0 0 0 0 0 0 0 0 0

Total # of neighbors = 0
Ave neighs/atom = 0
Ave special neighs/atom = 5.9701493
Neighbor list builds = 813
Dangerous builds = 0
  unfix npt_tg
  print "STAGE COMPLETE: Tg step T=${temps}K P=1.0atm steps=25000"
STAGE COMPLETE: Tg step T=400K P=1.0atm steps=25000
  next temps
  jump SELF TEMP_LOOP
  timestep 2.0
  fix npt_tg all npt temp ${temps} ${temps} 100.0 iso 1.0 1.0 1000.0
  fix npt_tg all npt temp 380 ${temps} 100.0 iso 1.0 1.0 1000.0
  fix npt_tg all npt temp 380 380 100.0 iso 1.0 1.0 1000.0
  run 25000
Generated 3 of 3 mixed pair_coeff terms from arithmetic mixing rule
Per MPI rank memory allocation (min/avg/max) = 15.41 | 15.41 | 15.41 Mbytes
   Step          Time           Temp          Press         Enthalpy        TotEng         KinEng         PotEng         E_bond        E_angle        E_dihed        E_impro         E_vdwl         E_coul         E_long         E_tail         Volume           Lx             Ly             Lz          Density          Pxx            Pyy            Pzz      
     25000   50000          404.89149      162.04126      17987.207      17476.749      9702.3063      7774.4424      3240.4638      3205.8578      9486.7501      0             -8158.6293      0              0             -427.2166       216002.33      60.000216      60.000216      60.000216      0.83628903    -63.340944      563.55251     -14.087772    
     25500   51000          382.59085      142.61722      16796.103      16349.014      9167.9221      7181.0917      3015.3955      2996.7202      9361.0017      0             -8192.0257      0              0             -429.29937      214954.38      59.903027      59.903027      59.903027      0.84036611     532.81098      2.581267      -107.54059    
     26000   52000          378.97546     -125.91378      15954.314      16349.549      9081.2873      7268.2622      3102.3272      3019.8419      9388.3261      0             -8242.233       0              0             -428.7461       215231.77      59.928783      59.928783      59.928783      0.83928306     89.041684      8.5991312     -475.38215    
     26500   53000          377.10445     -245.72219      15699.902      16471.798      9036.4529      7435.3456      3107.1081      3029.4461      9484.4315      0             -8185.6402      0              0             -428.41814      215396.53      59.944071      59.944071      59.944071      0.83864106     45.273383     -193.82285     -588.61709    
     27000   54000          382.18846      176.5744       17061.312      16507.732      9158.2797      7349.4519      3049.5924      3062.366       9468.3101      0             -8230.8166      0              0             -429.26901      214969.58      59.904439      59.904439      59.904439      0.84030668     39.636936      478.00165      12.084617    
     27500   55000          382.18889      483.72539      18007.577      16501.377      9158.2899      7343.0873      3053.0418      3095.2349      9486.0128      0             -8291.2022      0              0             -432.21403      213504.83      59.76807       59.76807       59.76807       0.84607164     150.55198      511.65286      788.97133    
     28000   56000          385.83637      203.94114      17124.37       16487.189      9245.6934      7241.4956      3071.2141      2991.7357      9395.4706      0             -8216.9247      0              0             -430.74944      214230.76      59.835733      59.835733      59.835733      0.84320466     222.56408      41.449034      347.81032    
     28500   57000          376.83975      494.80447      17758.709      16214.923      9030.1098      7184.8136      2974.0818      3068.2905      9450.3583      0             -8307.917       0              0             -431.34921      213932.89      59.807987      59.807987      59.807987      0.84437873     86.507107      1007.7038      390.20248    
     29000   58000          386.87899     -377.05245      15338.448      16514.814      9270.6775      7244.1369      3005.4444      3042.5394      9421.402       0             -8225.2488      0              0             -431.36157      213926.76      59.807416      59.807416      59.807416      0.84440291    -519.28869     -239.56406     -372.3046     
     29500   59000          380.87088     -276.496        15557.517      16416.634      9126.7068      7289.9275      3073.5338      3099.2552      9474.5867      0             -8357.4482      0              0             -433.13041      213053.11      59.72589       59.72589       59.72589       0.84786548    -453.21905     -336.05845     -40.210497    
     30000   60000          377.84894      470.31276      17671.722      16201.299      9054.2929      7147.006       3030.1381      3045.443       9342.523       0             -8271.0981      0              0             -430.45412      214377.74      59.849413      59.849413      59.849413      0.84262655     351.06665      332.996        726.87562    
     30500   61000          375.24822     -305.03691      15372.118      16320.982      8991.9724      7329.0095      3102.7412      3080.2125      9436.7467      0             -8290.691       0              0             -432.64437      213292.46      59.748247      59.748247      59.748247      0.84691404    -532.69502     -348.37886     -34.036851    
     31000   62000          376.17408     -2.6084316      16144.531      16152.575      9014.1586      7138.4161      3088.7591      3000.0579      9430.8798      0             -8381.2808      0              0             -436.40359      211455.14      59.576193      59.576193      59.576193      0.85427282    -208.20222      531.21932     -330.8424     
     31500   63000          381.39137      300.93374      17311.401      16376.491      9139.1791      7237.3116      3063.3045      3057.3149      9419.0378      0             -8302.3456      0              0             -433.19499      213021.35      59.722922      59.722922      59.722922      0.84799189     71.808422      385.58529      445.4075     
     32000   64000          380.4803       308.5685       17214.049      16261.529      9117.3476      7144.1817      3042.7594      3073.2151      9393.0884      0             -8364.8813      0              0             -435.97329      211663.84      59.595787      59.595787      59.595787      0.8534305      177.75409      435.35053      312.60087    
     32500   65000          371.21514     -39.080351      15822.13       15942.122      8895.329       7046.7928      3058.5657      3011.6463      9383.1717      0             -8406.5909      0              0             -438.31789      210531.64      59.489336      59.489336      59.489336      0.85802011    -807.85456      449.28539      241.32812    
     33000   66000          383.04867      128.00366      16821.32       16423.791      9178.8926      7244.8988      3124.2039      3067.9782      9380.7999      0             -8328.0832      0              0             -433.34798      212946.14      59.715892      59.715892      59.715892      0.84829138    -309.64003      336.80529      356.84573    
     33500   67000          380.17041      444.57082      17705.907      16326.548      9109.9217      7216.626       3018.914       3050.5374      9470.5606      0             -8323.386       0              0             -433.75662      212745.53      59.697134      59.697134      59.697134      0.84909129     356.79315      472.08676      504.83255    
     34000   68000          374.28854      110.46067      16445.87       16103.594      8968.9761      7134.6181      3090.7389      3022.6286      9383.792       0             -8362.5414      0              0             -434.32362      212467.8       59.671145      59.671145      59.671145      0.85020122    -370.73989      547.34982      154.77208    
     34500   69000          381.19641      25.16241       16349.325      16271.318      9134.5073      7136.811       3009.9743      3007.0729      9477.0277      0             -8357.264       0              0             -434.11474      212570.03      59.680714      59.680714      59.680714      0.84979233     23.138306      119.73751     -67.388584    
     35000   70000          375.32769     -252.17588      15358.603      16142.076      8993.8768      7148.1992      3086.5082      2999.7988      9389.5434      0             -8327.6512      0              0             -433.17359      213031.87      59.723905      59.723905      59.723905      0.84795       -547.65559     -330.58255      121.7105     
     35500   71000          379.06055      218.88045      16993.615      16317.448      9083.3263      7234.1221      3154.6021      3032.8449      9421.2124      0             -8374.5373      0              0             -435.64827      211821.76      59.610604      59.610604      59.610604      0.85279425     210.38581     -54.598802      500.85434    
     36000   72000          374.3534       196.7323       16620.431      16011.127      8970.5302      7040.597       3072.7059      3016.5563      9339.5132      0             -8388.1784      0              0             -434.53421      212364.82      59.661503      59.661503      59.661503      0.85061346     456.51186     -266.94913      400.63416    
     36500   73000          380.81842     -307.50403      15404.225      16355.385      9125.4497      7229.9354      3152.5068      3095.3746      9386.5018      0             -8404.4479      0              0             -435.09063      212093.24      59.63606       59.63606       59.63606       0.85170267    -608.76387      10.410721     -324.15895    
     37000   74000          379.44143     -40.32192       16174.677      16299.653      9092.4534      7207.2         3105.4839      3073.0722      9305.6199      0             -8276.9759      0              0             -434.20725      212524.74      59.676475      59.676475      59.676475      0.84997342    -89.858426     -155.56137      124.45404    
     37500   75000          378.90992      19.177872      16208.799      16149.137      9079.7168      7069.4206      3016.4114      2954.8784      9447.4402      0             -8349.3093      0              0             -432.59918      213314.74      59.750327      59.750327      59.750327      0.84682558     122.03572     -87.130121      22.628023    
     38000   76000          376.67077     -170.24457      15592.527      16119.084      9026.0607      7093.0236      3126.8609      2950.732       9353.7564      0             -8338.3258      0              0             -435.12131      212078.29      59.634658      59.634658      59.634658      0.85176272    -359.85829     -280.92914      130.05374    
     38500   77000          382.18176      662.13503      18486.072      16429.653      9158.1191      7271.5343      3142.2767      3139.5376      9324.8457      0             -8335.1256      0              0             -433.32872      212955.61      59.716777      59.716777      59.716777      0.84825367     1102.8926      766.80999      116.70252    
     39000   78000          386.1807      -386.25471      15101.94       16292.461      9253.9446      7038.5161      3060.3491      3037.9113      9371.2827      0             -8431.027       0              0             -436.63567      211342.75      59.565636      59.565636      59.565636      0.85472712    -26.071652     -598.95809     -533.73439    
     39500   79000          372.2737      -384.83957      14845.29       16030.531      8920.695       7109.8362      3070.378       3036.4742      9420.3809      0             -8417.3968      0              0             -436.97387      211179.17      59.550265      59.550265      59.550265      0.85538917    -187.38904     -624.71096     -342.41871    
     40000   80000          379.2756      -30.093331      16101.916      16195.341      9088.4795      7106.8615      3106.2527      2988.0721      9365.5954      0             -8353.0587      0              0             -433.49937      212871.78      59.70894       59.70894       59.70894       0.84858773    -353.50795      477.36945     -214.1415     
     40500   81000          374.81306     -625.13715      14343.964      16280.823      8981.545       7299.2779      3145.1469      3103.9484      9455.8558      0             -8405.6732      0              0             -434.36995      212445.13      59.669023      59.669023      59.669023      0.8502919     -14.089949     -727.2455      -1134.076     
     41000   82000          375.34123      280.01476      16878.184      16015.526      8994.2014      7021.3247      3044.5947      3038.7463      9376.3709      0             -8438.3873      0              0             -436.84255      211242.66      59.556231      59.556231      59.556231      0.8551321      166.24689      73.481366      600.31601    
     41500   83000          386.1041       195.52773      16973.316      16369.782      9252.1091      7117.6731      3153.6769      3030.1377      9355.3847      0             -8421.5261      0              0             -436.00243      211649.69      59.594459      59.594459      59.594459      0.85348754    -124.15651      543.88495      166.85476    
     42000   84000          375.90256     -444.13522      14797.23       16165.094      9007.6523      7157.4413      3123.5093      3021.7028      9389.5548      0             -8377.3255      0              0             -436.97309      211179.55      59.5503        59.5503        59.5503        0.85538763    -984.10341      35.511207     -383.81345    
     42500   85000          386.90029      142.65268      16945.859      16505.161      9271.1879      7233.9733      3086.8568      3122.8114      9391.5706      0             -8367.2655      0              0             -435.63417      211828.61      59.611247      59.611247      59.611247      0.85276665     215.2154       513.79465     -301.05202    
     43000   86000          381.59426     -285.49729      15230.024      16116.362      9144.041       6972.3206      3044.4232      3013.54        9307.4492      0             -8393.0919      0              0             -433.4962       212873.34      59.709086      59.709086      59.709086      0.84858151    -407.38975     -278.3523      -170.74982    
     43500   87000          384.86856     -510.78775      14632.225      16208.578      9222.5021      6986.0762      3104.4089      2969.5155      9326.9533      0             -8414.8015      0              0             -436.08331      211610.44      59.590775      59.590775      59.590775      0.85364587    -217.18791     -928.08715     -387.0882     
     44000   88000          375.155        52.162429      16124.249      15964.252      8989.7387      6974.5129      3096.3757      2948.3289      9380.1053      0             -8450.297       0              0             -438.76169      210318.68      59.469272      59.469272      59.469272      0.85888887     29.965807      234.48355     -107.96207    
     44500   89000          381.74184      190.94669      16873.429      16282.797      9147.5773      7135.2195      3066.4492      3123.3668      9289.6031      0             -8344.1997      0              0             -435.08853      212094.27      59.636156      59.636156      59.636156      0.85169855    -232.95675      136.63067      669.16616    
     45000   90000          380.94551      142.03282      16532.158      16096.705      9128.4952      6968.2095      3021.9224      3048.4102      9365.7694      0             -8467.8925      0              0             -438.96506      210221.25      59.460086      59.460086      59.460086      0.85928697    -207.95379      232.40057      401.6517     
     45500   91000          384.54284      156.41603      16809.749      16328.487      9214.6971      7113.79        3108.3516      3066.3632      9368.4796      0             -8429.4044      0              0             -437.4035       210971.75      59.530761      59.530761      59.530761      0.85623018     76.266423      672.69543     -279.71376    
     46000   92000          377.18706     -98.644608      15675.122      15978.964      9038.4325      6940.5311      3058.3799      2957.6621      9341.1045      0             -8416.6154      0              0             -436.92648      211202.08      59.552417      59.552417      59.552417      0.8552964     -611.09155     -89.515322      404.67305    
     46500   93000          379.32954     -43.547439      15918.084      16052.513      9089.772       6962.7411      3053.7773      2971.2849      9374.3996      0             -8436.7207      0              0             -435.96562      211667.57      59.596136      59.596136      59.596136      0.85341549    -14.265028      91.872957     -208.25024    
     47000   94000          381.0166       17.616321      16301.815      16247.619      9130.1986      7117.4204      3145.1521      3034.6769      9375.9777      0             -8438.3864      0              0             -437.45578      210946.54      59.52839       59.52839       59.52839       0.85633251     411.22473     -231.64341     -126.73235    
     47500   95000          383.79132      739.93578      18545.636      16260.573      9196.6885      7063.8849      3035.093       3049.0858      9350.9512      0             -8371.245       0              0             -435.79107      211752.35      59.604092      59.604092      59.604092      0.85307379     387.94138      1187.7385      644.12746    
     48000   96000          381.76154      172.11462      16647.997      16118.566      9148.0494      6970.5164      3061.5546      2993.7426      9317.6573      0             -8402.438       0              0             -437.51237      210919.25      59.525823      59.525823      59.525823      0.8564433      252.68978      328.54518     -64.89109     
     48500   97000          380.1349       635.52983      18309.825      16362.324      9109.0706      7253.253       3181.4509      3099.3865      9409.9009      0             -8437.4853      0              0             -439.17798      210119.33      59.450476      59.450476      59.450476      0.85970377     665.7011       395.71657      845.17182    
     49000   98000          380.99581     -159.8329       15692.665      16185.851      9129.7004      7056.1508      3098.8524      2899.3783      9434.1161      0             -8376.1959      0              0             -436.15207      211577.08      59.587643      59.587643      59.587643      0.85378047    -312.89037     -68.432688     -98.175645    
     49500   99000          381.60526      20.470787      16404.321      16340.857      9144.3045      7196.553       3195.6318      3028.9765      9320.6548      0             -8348.7102      0              0             -434.10386      212575.35      59.681212      59.681212      59.681212      0.84977104     115.4608      -151.41202      97.363576    
     50000   100000         381.21112      148.13735      16656.768      16198.355      9134.86        7063.495       3083.2614      3062.8464      9333.9946      0             -8416.6074      0              0             -434.90072      212185.85      59.644739      59.644739      59.644739      0.85133092     419.36017     -175.09114      200.14302    
Loop time of 46.8072 on 1 procs for 25000 steps with 8040 atoms

Performance: 92.293 ns/day, 0.260 hours/ns, 534.105 timesteps/s, 4.294 Matom-step/s
99.5% CPU use with 1 MPI tasks x 1 OpenMP threads

MPI task timing breakdown:
Section |  min time  |  avg time  |  max time  |%varavg| %total
---------------------------------------------------------------
Pair    | 8.1601     | 8.1601     | 8.1601     |   0.0 | 17.43
Bond    | 31.228     | 31.228     | 31.228     |   0.0 | 66.72
Neigh   | 0.015915   | 0.015915   | 0.015915   |   0.0 |  0.03
Comm    | 2.293      | 2.293      | 2.293      |   0.0 |  4.90
Output  | 0.0058499  | 0.0058499  | 0.0058499  |   0.0 |  0.01
Modify  | 4.0248     | 4.0248     | 4.0248     |   0.0 |  8.60
Other   |            | 1.08       |            |       |  2.31

Nlocal:           8040 ave        8040 max        8040 min
Histogram: 1 0 0 0 0 0 0 0 0 0
Nghost:          17531 ave       17531 max       17531 min
Histogram: 1 0 0 0 0 0 0 0 0 0
Neighs:              0 ave           0 max           0 min
Histogram: 1 0 0 0 0 0 0 0 0 0

Total # of neighbors = 0
Ave neighs/atom = 0
Ave special neighs/atom = 5.9701493
Neighbor list builds = 789
Dangerous builds = 0
  unfix npt_tg
  print "STAGE COMPLETE: Tg step T=${temps}K P=1.0atm steps=25000"
STAGE COMPLETE: Tg step T=380K P=1.0atm steps=25000
  next temps
  jump SELF TEMP_LOOP
  timestep 2.0
  fix npt_tg all npt temp ${temps} ${temps} 100.0 iso 1.0 1.0 1000.0
  fix npt_tg all npt temp 360 ${temps} 100.0 iso 1.0 1.0 1000.0
  fix npt_tg all npt temp 360 360 100.0 iso 1.0 1.0 1000.0
  run 25000
Generated 3 of 3 mixed pair_coeff terms from arithmetic mixing rule
Per MPI rank memory allocation (min/avg/max) = 15.41 | 15.41 | 15.41 Mbytes
   Step          Time           Temp          Press         Enthalpy        TotEng         KinEng         PotEng         E_bond        E_angle        E_dihed        E_impro         E_vdwl         E_coul         E_long         E_tail         Volume           Lx             Ly             Lz          Density          Pxx            Pyy            Pzz      
     50000   100000         381.21112      148.13735      16656.768      16198.355      9134.86        7063.495       3083.2614      3062.8464      9333.9946      0             -8416.6074      0              0             -434.90072      212185.85      59.644739      59.644739      59.644739      0.85133092     419.36017     -175.09114      200.14302    
     50500   101000         355.7628       6.220169       15039.307      15020.321      8525.0487      6495.2722      2899.3389      2872.1367      9266.8353      0             -8543.0386      0              0             -440.91307      209292.46      59.37239       59.37239       59.37239       0.86310026    -83.67638      -238.78024      341.11712    
     51000   102000         360.84642      39.876318      15351.04       15228.987      8646.8661      6582.1208      2996.7835      2873.7663      9224.1032      0             -8512.5322      0              0             -439.69221      209873.59      59.427291      59.427291      59.427291      0.86071038     48.681448      115.27067     -44.323165    
     51500   103000         361.92213      286.14976      15995.007      15115.837      8672.6429      6443.194       2831.5292      2831.2835      9241.428       0             -8461.0468      0              0             -438.02912      210670.43      59.502406      59.502406      59.502406      0.85745485     131.51914      620.64215      106.288      
     52000   104000         358.4621       35.647009      15196.111      15086.516      8589.7312      6496.7851      2881.0697      2852.8337      9246.7126      0             -8483.8308      0              0             -437.73807      210810.5       59.51559       59.51559       59.51559       0.85688511     276.28131     -633.08023      463.73996    
     52500   105000         363.95422      329.70517      16361.836      15349.387      8721.3375      6628.0495      2957.6711      2905.8941      9234.6759      0             -8470.1916      0              0             -438.26345      210557.79      59.491799      59.491799      59.491799      0.85791355     56.517763      736.51933      196.07843    
     53000   106000         360.23448     -458.81406      13925.352      15328.115      8632.2024      6695.9122      2989.2328      2908.2863      9331.2407      0             -8532.8476      0              0             -440.18482      209638.72      59.405114      59.405114      59.405114      0.86167469    -1334.2946     -292.54251      250.39491    
     53500   107000         358.29218     -443.51555      13721.836      15078.985      8585.6594      6493.3258      2880.5396      2835.3214      9332.9807      0             -8555.516       0              0             -439.80874      209817.98      59.422041      59.422041      59.422041      0.8609385      17.146475     -633.24772     -714.44539    
     54000   108000         357.11658     -246.55962      14238.251      14991.04       8557.489       6433.5513      2891.162       2900.1247      9238.0142      0             -8595.7496      0              0             -440.78921      209351.27      59.37795       59.37795       59.37795       0.8628578      261.89467     -343.88829     -657.68524    
     54500   109000         362.54877      217.52183      15911.886      15252.721      8687.6589      6565.062       2994.8263      2919.4097      9232.7971      0             -8581.9712      0              0             -444.11077      207785.51      59.229548      59.229548      59.229548      0.86935985    -29.934404      12.74738       669.75252    
     55000   110000         359.06695     -203.11957      14569.85       15188.657      8604.2251      6584.4319      2987.5963      2873.7534      9303.3835      0             -8580.3012      0              0             -441.75241      208894.8       59.334763      59.334763      59.334763      0.8647433      255.20135     -145.45123     -719.10883    
     55500   111000         358.34843     -109.06578      14651.763      14985.805      8587.0074      6398.7975      2934.7085      2767.0346      9253.3246      0             -8556.2702      0              0             -439.41017      210008.3       59.440002      59.440002      59.440002      0.86015829     460.49063     -480.89746     -306.79051    
     56000   112000         359.36953      430.85235      16502.588      15181.564      8611.4758      6570.088       3037.4672      2794.5634      9276.2262      0             -8538.1689      0              0             -438.93488      210235.7       59.461449      59.461449      59.461449      0.8592279      128.16072      445.3842       719.01214    
     56500   113000         364.30539     -56.799156      15191.262      15364.926      8729.7525      6635.1735      2975.4981      2956.0354      9232.8587      0             -8529.2188      0              0             -440.16368      209648.79      59.406065      59.406065      59.406065      0.86163331    -44.081626      193.23769     -319.55353    
     57000   114000         359.571       -86.806762      14921.969      15187.425      8616.3035      6571.1214      3005.7794      2902.884       9190.6874      0             -8528.2295      0              0             -440.09195      209682.96      59.409292      59.409292      59.409292      0.86149289    -20.498509      191.95331     -431.87509    
     57500   115000         359.05677      378.78278      16252.254      15087.109      8603.9811      6483.1283      2929.723       2838.3588      9226.1158      0             -8511.0693      0              0             -437.51487      210918.05      59.525709      59.525709      59.525709      0.85644818    -273.81248      356.03564      1054.1252    
     58000   116000         358.58132      58.070398      15264.112      15086.531      8592.5881      6493.9432      2906.0933      2883.7087      9260.3359      0             -8556.1946      0              0             -440.09053      209683.63      59.409356      59.409356      59.409356      0.86149012     54.935657      474.39081     -355.11527    
     58500   117000         361.33278     -43.403129      15021.55       15154.844      8658.5205      6496.324       2906.3994      2907.9713      9200.662       0             -8518.7086      0              0             -438.21974      210578.79      59.493777      59.493777      59.493777      0.857828      -384.91476     -82.742419      337.44779    
     59000   118000         359.91301      139.94445      15687.609      15260.195      8624.4991      6635.6961      2958.3453      2917.5843      9268.1824      0             -8508.4158      0              0             -440.64605      209419.28      59.38438       59.38438       59.38438       0.86257757     438.07458     -570.21908      551.97786    
     59500   119000         366.18317      131.4486       15711.991      15311.896      8774.7492      6537.1471      2946.524       2872.28        9228.001       0             -8509.6579      0              0             -442.15551      208704.36      59.316726      59.316726      59.316726      0.86553238     347.8807       104.2523      -57.787199    
     60000   120000         359.85579     -260.24501      14339.858      15137.416      8623.1279      6514.2881      2922.3632      2819.7874      9213.7337      0             -8441.5962      0              0             -439.13965      210137.67      59.452205      59.452205      59.452205      0.85962874     70.262953     -382.10527     -468.89272    
     60500   121000         358.46101      701.03136      17091.3        14963.027      8589.705       6373.3217      2968.0528      2752.1924      9264.5335      0             -8611.4568      0              0             -443.29462      208168.06      59.265875      59.265875      59.265875      0.86776221     508.46042      411.32076      1183.3129    
     61000   122000         357.61619     -40.79383       14980.902      15106.164      8569.4609      6536.7033      2951.6298      2801.1317      9262.2942      0             -8478.3524      0              0             -438.28411      210547.86      59.490864      59.490864      59.490864      0.85795399     232.7281       111.3598      -466.46939    
     61500   123000         360.13511      188.6919       15751.383      15173.649      8629.8211      6543.8277      2958.3001      2845.3516      9236.7817      0             -8496.6057      0              0             -439.54932      209941.82      59.433729      59.433729      59.433729      0.86043067     518.03434      199.31899     -151.27762    
     62000   124000         365.20469      469.08196      16764.12       15322.143      8751.3021      6570.8411      2932.5956      2872.7112      9251.5984      0             -8486.0642      0              0             -437.79718      210782.04      59.512912      59.512912      59.512912      0.85700081     37.892169      961.74218      407.61153    
     62500   125000         361.57894      150.76111      15686.32       15222.491      8664.4191      6558.0721      2987.5517      2796.5815      9269.2036      0             -8495.2646      0              0             -437.43572      210956.21      59.529299      59.529299      59.529299      0.85629324    -101.01699      597.43215     -44.131841    
     63000   126000         362.91406     -181.08227      14850.787      15408.23       8696.4123      6711.8181      2970.9658      2880.1121      9328.4328      0             -8467.6926      0              0             -437.1774       211080.86      59.541022      59.541022      59.541022      0.85578758     119.98949     -311.11719     -352.11911    
     63500   127000         360.3299      -197.72132      14597.934      15204.463      8634.4888      6569.9739      2954.2505      2816.7977      9269.0051      0             -8470.0794      0              0             -438.71715      210340.04      59.471284      59.471284      59.471284      0.85880169     239.15797      52.264908     -884.58683    
     64000   128000         365.2518       435.05674      16536.803      15206.958      8752.4311      6454.5267      2890.2448      2835.9416      9209.0831      0             -8480.7428      0              0             -440.27819      209594.26      59.400914      59.400914      59.400914      0.86185747     429.52494      751.24575      124.39954    
     64500   129000         359.26451      318.14567      16203.995      15227.379      8608.9592      6618.4201      2898.0493      2916.2452      9274.1172      0             -8469.9917      0              0             -438.41433      210485.32      59.484973      59.484973      59.484973      0.85820891    -111.47754      881.2188       184.69576    
     65000   130000         359.88003      162.74221      15654.375      15154.68       8623.7087      6530.9718      2958.4297      2861.3143      9202.2188      0             -8490.991       0              0             -438.30623      210537.23      59.489863      59.489863      59.489863      0.8579973      123.01947     -92.122325      457.32948    
     65500   131000         356.24207      208.07712      15568.707      14931.217      8536.5332      6394.6836      2900.825       2826.7732      9206.3386      0             -8539.2532      0              0             -439.2714       210074.64      59.446261      59.446261      59.446261      0.85988663     338.27422      261.00285      24.954274    
     66000   132000         363.51389     -257.719        14341.272      15129.326      8710.7859      6418.5404      2841.5975      2850.6876      9237.1354      0             -8510.8801      0              0             -440.12158      209668.84      59.407959      59.407959      59.407959      0.86155091    -272.23307     -676.7312       175.80728    
     66500   133000         360.23589     -202.55128      14678.278      15297.924      8632.2362      6665.6876      2916.9187      2916.7622      9328.3473      0             -8496.3406      0              0             -439.92016      209764.84      59.417024      59.417024      59.417024      0.8611566     -421.35458     -75.331831     -110.96742    
     67000   134000         355.47554     -88.284728      14896.442      15166.453      8518.165       6648.2876      2983.3586      2888.176       9316.9567      0             -8540.2037      0              0             -440.03565      209709.79      59.411826      59.411826      59.411826      0.86138269     62.446889      285.53037     -612.83144    
     67500   135000         359.30478     -8.6850515      15130.247      15156.671      8609.9241      6546.7469      2890.6385      2900.7309      9326.6125      0             -8571.2349      0              0             -442.33518      208619.59      59.308694      59.308694      59.308694      0.86588408    -171.15716     -352.62702      497.72902    
     68000   136000         359.59144     -495.8816       13702.737      15221.991      8616.7933      6605.1977      2919.4196      2920.7329      9299.2916      0             -8534.2463      0              0             -439.2686       210075.98      59.446387      59.446387      59.446387      0.85988116    -559.64429     -124.77025     -803.23026    
     68500   137000         358.38662     -201.43824      14533.802      15150.049      8587.9225      6562.1265      2950.7495      2880.9088      9202.0115      0             -8471.5433      0              0             -439.91549      209767.07      59.417235      59.417235      59.417235      0.86114747    -435.31689     -420.45975      251.46192    
     69000   138000         366.24641     -110.15089      14922.433      15259.206      8776.2646      6482.941       2950.73        2824.8351      9202.6172      0             -8495.2413      0              0             -440.18299      209639.59      59.405196      59.405196      59.405196      0.86167112    -96.264064     -577.29059      343.10199    
     69500   139000         357.46567     -5.6983921      15113.465      15131.019      8565.8541      6565.1648      2987.2689      2858.6538      9214.9265      0             -8495.6844      0              0             -436.87652      211226.23      59.554688      59.554688      59.554688      0.8551986     -420.47252      351.10193      52.275412    
     70000   140000         360.47897     -246.4248       14383.615      15136.421      8638.0609      6498.3598      2876.6771      2883.0748      9262.7221      0             -8524.1142      0              0             -440.53876      209470.29      59.389201      59.389201      59.389201      0.86236753    -47.563486      127.21837     -818.92929    
     70500   141000         358.75518      131.47548      15565.603      15166.292      8596.7542      6569.5381      2889.7461      2938.7371      9292.9808      0             -8551.9259      0              0             -443.11495      208252.47      59.273884      59.273884      59.273884      0.86741051     234.24942      258.13329     -97.956283    
     71000   142000         361.01417      553.52298      16725.657      15045.924      8650.8859      6395.0379      2870.9378      2823.228       9255.5499      0             -8554.6779      0              0             -443.48373      208079.29      59.257449      59.257449      59.257449      0.86813241     502.16803      486.68545      671.71548    
     71500   143000         362.8708      -7.3462661      15110.221      15132.56       8695.3757      6437.184       2853.7406      2873.483       9268.0003      0             -8558.0399      0              0             -442.58744      208500.68      59.297424      59.297424      59.297424      0.86637788     492.19162     -32.825491     -481.40493    
     72000   144000         357.76071      152.53413      15568.919      15102.917      8572.924       6529.9927      2932.9679      2922.1711      9230.5893      0             -8555.7356      0              0             -440.51559      209481.31      59.390242      59.390242      59.390242      0.86232217    -341.36578     -145.55682      944.52498    
     72500   145000         358.97814      101.43936      15446.832      15136.579      8602.0969      6534.4822      2889.0795      2882.7573      9293.7326      0             -8531.0873      0              0             -440.02129      209716.63      59.412472      59.412472      59.412472      0.86135457    -519.79012      380.54612      443.56208    
     73000   146000         365.90543      29.52348       15518.552      15428.392      8768.0938      6660.2977      2956.6658      2941.4799      9278.2876      0             -8516.1356      0              0             -440.69212      209397.39      59.38231       59.38231       59.38231       0.86266775     154.67644     -785.05424      718.94824    
     73500   147000         358.71664      239.59933      15912.688      15183.285      8595.8307      6587.4541      2934.6116      2880.9715      9355.3577      0             -8583.4867      0              0             -442.07942      208740.28      59.320129      59.320129      59.320129      0.86538342     543.28735      173.18819      2.3224556    
     74000   148000         363.33119     -124.65158      15015.534      15395.145      8706.4079      6688.7375      3022.308       2957.9464      9259.5628      0             -8551.0797      0              0             -441.91706      208816.97      59.327393      59.327393      59.327393      0.8650656     -11.431033     -179.71292     -182.81078    
     74500   149000         358.47838      125.4201       15542.995      15161.423      8590.1213      6571.3015      2977.6242      2892.1529      9338.1597      0             -8636.6355      0              0             -442.35701      208609.29      59.307718      59.307718      59.307718      0.86592681     140.41144     -76.896525      312.74539    
     75000   150000         356.01015      217.39503      15745.687      15083.832      8530.9759      6552.8562      3008.6907      2833.6838      9247.2168      0             -8536.7351      0              0             -442.04802      208755.11      59.321534      59.321534      59.321534      0.86532196     162.48316      60.210914      429.49101    
Loop time of 45.3604 on 1 procs for 25000 steps with 8040 atoms

Performance: 95.237 ns/day, 0.252 hours/ns, 551.141 timesteps/s, 4.431 Matom-step/s
99.6% CPU use with 1 MPI tasks x 1 OpenMP threads

MPI task timing breakdown:
Section |  min time  |  avg time  |  max time  |%varavg| %total
---------------------------------------------------------------
Pair    | 7.9729     | 7.9729     | 7.9729     |   0.0 | 17.58
Bond    | 30.146     | 30.146     | 30.146     |   0.0 | 66.46
Neigh   | 0.015203   | 0.015203   | 0.015203   |   0.0 |  0.03
Comm    | 2.2482     | 2.2482     | 2.2482     |   0.0 |  4.96
Output  | 0.005628   | 0.005628   | 0.005628   |   0.0 |  0.01
Modify  | 3.9124     | 3.9124     | 3.9124     |   0.0 |  8.63
Other   |            | 1.06       |            |       |  2.34

Nlocal:           8040 ave        8040 max        8040 min
Histogram: 1 0 0 0 0 0 0 0 0 0
Nghost:          17754 ave       17754 max       17754 min
Histogram: 1 0 0 0 0 0 0 0 0 0
Neighs:              0 ave           0 max           0 min
Histogram: 1 0 0 0 0 0 0 0 0 0

Total # of neighbors = 0
Ave neighs/atom = 0
Ave special neighs/atom = 5.9701493
Neighbor list builds = 764
Dangerous builds = 0
  unfix npt_tg
  print "STAGE COMPLETE: Tg step T=${temps}K P=1.0atm steps=25000"
STAGE COMPLETE: Tg step T=360K P=1.0atm steps=25000
  next temps
  jump SELF TEMP_LOOP
  timestep 2.0
  fix npt_tg all npt temp ${temps} ${temps} 100.0 iso 1.0 1.0 1000.0
  fix npt_tg all npt temp 340 ${temps} 100.0 iso 1.0 1.0 1000.0
  fix npt_tg all npt temp 340 340 100.0 iso 1.0 1.0 1000.0
  run 25000
Generated 3 of 3 mixed pair_coeff terms from arithmetic mixing rule
Per MPI rank memory allocation (min/avg/max) = 15.41 | 15.41 | 15.41 Mbytes
   Step          Time           Temp          Press         Enthalpy        TotEng         KinEng         PotEng         E_bond        E_angle        E_dihed        E_impro         E_vdwl         E_coul         E_long         E_tail         Volume           Lx             Ly             Lz          Density          Pxx            Pyy            Pzz      
     75000   150000         356.01015      217.39504      15745.687      15083.832      8530.9759      6552.8562      3008.6907      2833.6838      9247.2168      0             -8536.7351      0              0             -442.04802      208755.11      59.321534      59.321534      59.321534      0.86532196     162.48319      60.210929      429.491      
     75500   151000         337.31643     -143.62456      13695.819      14128.795      8083.0232      6045.7713      2817.3887      2794.5739      9158.2396      0             -8724.4308      0              0             -446.42454      206708.58      59.127044      59.127044      59.127044      0.87388913    -13.006287     -182.05129     -235.81609    
     76000   152000         341.67915      634.89613      16115.55       14195.743      8187.5658      6008.1769      2800.4449      2684.6792      9180.5236      0             -8657.4708      0              0             -445.06913      207338.09      59.187005      59.187005      59.187005      0.87123586     1045.819       708.6198       150.24959    
     76500   153000         340.60566      121.88258      14481.772      14112.263      8161.8423      5950.4208      2724.8747      2658.1013      9191.8216      0             -8624.3768      0              0             -443.91426      207877.49      59.238286      59.238286      59.238286      0.86897519     47.565429      269.68599      48.396333    
     77000   154000         337.53663      104.27295      14505.697      14187.84       8088.2997      6099.5406      2797.4228      2756.9387      9196.3612      0             -8651.182       0              0             -441.49167      209018.17      59.346441      59.346441      59.346441      0.86423289     507.5185       216.94551     -411.64516    
     77500   155000         338.91983     -154.11754      13724.676      14191.27       8121.445       6069.8251      2864.0455      2748.0438      9181.964       0             -8724.2283      0              0             -444.52371      207592.49      59.211202      59.211202      59.211202      0.87016819    -88.517324      346.59986     -720.43515    
     78000   156000         335.08244      415.54514      15193.461      13937.939      8029.4908      5908.4478      2741.0859      2728.7555      9127.5002      0             -8688.8938      0              0             -445.42679      207171.6       59.171159      59.171159      59.171159      0.87193599     77.401496      734.72689      434.50703    
     78500   157000         335.72558     -10.506729      14050.556      14082.53       8044.902       6037.6284      2857.5459      2683.8728      9102.5264      0             -8606.3167      0              0             -442.22422      208671.93      59.313654      59.313654      59.313654      0.86566688    -139.93023      344.47258     -236.06254    
     79000   158000         336.92008      100.74587      14421.985      14116.785      8073.5255      6043.2595      2848.0222      2778.0675      9106.4696      0             -8689.2998      0              0             -444.24802      207721.31      59.223448      59.223448      59.223448      0.86962852     199.78198     -13.877444      116.33309    
     79500   159000         341.22597     -673.19175      12058.038      14086.236      8176.7065      5909.5293      2805.4424      2661.981       9169.4521      0             -8727.3462      0              0             -446.69476      206583.53      59.115119      59.115119      59.115119      0.87441808    -1394.5443     -394.32324     -230.70774    
     80000   160000         334.43668     -13.863869      13944.135      13986.072      8014.0166      5972.0557      2811.062       2755.273       9055.4527      0             -8649.7319      0              0             -444.90817      207413.1       59.194142      59.194142      59.194142      0.87092078    -11.211016     -214.58095      184.20036    
     80500   161000         337.44798     -558.96846      12269.633      13950.706      8086.1756      5864.5307      2740.9456      2746.2859      9090.4243      0             -8713.1252      0              0             -447.48975      206216.52      59.080091      59.080091      59.080091      0.87597431    -237.10211     -696.12002     -743.68325    
     81000   162000         343.9281      -437.31669      12690.816      14011.472      8241.4569      5770.0146      2669.2499      2698.3707      9104.4908      0             -8702.0968      0              0             -445.64494      207070.19      59.161502      59.161502      59.161502      0.87236303    -649.70586     -255.40558     -406.83863    
     81500   163000         342.02543      461.69343      15537.401      14137.273      8195.8636      5941.4093      2797.5124      2727.735       9052.1589      0             -8635.997       0              0             -443.78067      207940.07      59.24423       59.24423       59.24423       0.86871367     247.28369      818.37911      319.41749    
     82000   164000         340.39385      136.67071      14534.204      14119.291      8156.7665      5962.5245      2788.1984      2729.7364      9117.2797      0             -8672.69        0              0             -443.30328      208163.99      59.265489      59.265489      59.265489      0.86777917     55.84727      -109.76935      463.93422    
     82500   165000         337.49733     -281.91345      13284.691      14137.041      8087.3581      6049.6826      2776.1183      2772.2591      9186.0135      0             -8684.7083      0              0             -445.12332      207312.84      59.184603      59.184603      59.184603      0.87134195    -26.770899     -364.11014     -454.85931    
     83000   166000         343.12447      671.52687      16192.035      14160.388      8222.1997      5938.1887      2812.8754      2696.5585      9103.2859      0             -8674.5311      0              0             -444.83363      207447.85      59.197448      59.197448      59.197448      0.87077487     618.54734      1106.8646      289.16869    
     83500   167000         341.98835     -39.626016      13814.065      13933.245      8194.9752      5738.2694      2704.726       2691.0783      9066.5298      0             -8724.0646      0              0             -447.46815      206226.48      59.081042      59.081042      59.081042      0.87593202    -161.53633     -145.78542      188.4437     
     84000   168000         339.81599      194.1698       14513.651      13926.454      8142.9195      5783.5344      2717.4899      2715.5213      9071.1074      0             -8720.5842      0              0             -445.02094      207360.54      59.189141      59.189141      59.189141      0.87114153     653.96832      90.024002     -161.48292    
     84500   169000         336.35383     -262.65894      13152.412      13941.483      8059.9568      5881.5261      2802.9565      2722.9194      9118.3175      0             -8762.6673      0              0             -447.9797       205990.99      59.058545      59.058545      59.058545      0.8769334     -291.85145     -477.00602     -19.119336    
     85000   170000         340.39942     -230.4381       13395.698      14095.252      8156.9002      5938.3518      2775.0532      2748.7403      9069.0321      0             -8654.4738      0              0             -443.318        208157.08      59.264833      59.264833      59.264833      0.86780798    -37.392638     -886.26548      232.34382    
     85500   171000         345.3462       164.17944      14649.976      14154.027      8275.4386      5878.5881      2720.9465      2692.4671      9181.947       0             -8716.7725      0              0             -445.51649      207129.89      59.167187      59.167187      59.167187      0.8721116      380.04333      50.227297      62.267703    
     86000   172000         339.53725      94.033888      14362.203      14076.513      8136.2402      5940.2726      2753.6198      2683.9616      9132.411       0             -8629.7198      0              0             -442.96658      208322.22      59.280501      59.280501      59.280501      0.86712008     507.46754      53.844197     -279.21007    
     86500   173000         336.54424      430.42028      15249.17       13951.943      8064.5195      5887.4234      2751.3717      2741.3491      9110.3382      0             -8715.6356      0              0             -446.53892      206655.63      59.121995      59.121995      59.121995      0.87411303     361.64599      339.54729      590.06756    
     87000   174000         338.59097     -663.15026      11988.137      13998.914      8113.5646      5885.3498      2719.334       2751.8269      9085.8932      0             -8671.7043      0              0             -443.84406      207910.37      59.24141       59.24141       59.24141       0.86883775    -779.26093     -589.54763     -620.64222    
     87500   175000         344.72269      250.35167      14925.217      14175.116      8260.4974      5914.6184      2793.3049      2727.2857      9150.3971      0             -8756.3693      0              0             -449.17217      205444.12      59.006235      59.006235      59.006235      0.87926769     223.72031      540.41569     -13.080979    
     88000   176000         338.30055     -87.508136      13765.796      14030.248      8106.6054      5923.6429      2821.8055      2682.4782      9072.1248      0             -8652.7657      0              0             -445.33176      207215.81      59.175367      59.175367      59.175367      0.87174998    -319.87205      487.21769     -429.87005    
     88500   177000         342.50794     -235.61994      13360.192      14071.936      8207.4261      5864.5096      2790.9121      2729.9094      9064.0072      0             -8720.3191      0              0             -445.52358      207126.59      59.166874      59.166874      59.166874      0.87212547    -336.64869      50.558792     -420.76993    
     89000   178000         338.83428      345.9641       15231.846      14183.622      8119.3949      6064.2275      2873.8432      2745.3949      9109.7758      0             -8664.7865      0              0             -444.18072      207752.79      59.226439      59.226439      59.226439      0.86949678     827.6613      -25.420797      235.65179    
     89500   179000         340.60487      103.94565      14315.033      14001.59       8161.8231      5839.7674      2807.1823      2657.3818      9100.0216      0             -8724.8183      0              0             -446.30395      206764.43      59.132369      59.132369      59.132369      0.87365306    -103.46995      384.90277      30.404142    
[...]
    400000   800000         100.25181     -64.720331      714.37737      889.2922       2402.3073     -1513.0151      811.73297      847.64602      7270.5391      0             -10442.933      0              0             -497.96238      185314.77      57.01249       57.01249       57.01249       0.97477595    -293.40083     -84.555826      183.79567    
    400500   801000         80.921289      194.27587      476.2203      -44.922644      1939.0952     -1984.0178      659.45044      710.13238      7201.9539      0             -10555.554      0              0             -501.7004       183934.04      56.870542      56.870542      56.870542      0.98209325     268.39497      12.70642       301.72622    
    401000   802000         78.496275     -36.665496     -234.78922     -136.37256      1880.9852     -2017.3577      642.9402       706.43448      7178.9428      0             -10545.675      0              0             -501.38504      184049.73      56.882463      56.882463      56.882463      0.98147592     223.98364     -93.650757     -240.32937    
    401500   803000         80.45411       274.06642      654.55676     -81.552297      1927.9003     -2009.4526      649.82222      690.18548      7182.6998      0             -10532.16       0              0             -501.06737      184166.42      56.894482      56.894482      56.894482      0.98085407     203.90475      18.679711      599.61481    
    402000   804000         80.810172      300.42931      752.09432     -54.26497       1936.4325     -1990.6975      662.01092      720.1872       7178.3883      0             -10551.284      0              0             -501.41365      184039.23      56.881382      56.881382      56.881382      0.98153192     375.4904       76.550326      449.24719    
    402500   805000         80.147546     -153.32466     -510.26631     -98.58073       1920.5542     -2019.1349      654.20683      708.16901      7163.4656      0             -10544.976      0              0             -501.22049      184110.16      56.888688      56.888688      56.888688      0.9811538      84.704026     -238.41114     -306.26687    
    403000   806000         80.340052     -69.596886     -244.67125     -57.669536      1925.1671     -1982.8367      658.39855      736.51078      7170.8949      0             -10548.641      0              0             -500.87191      184238.29      56.901882      56.901882      56.901882      0.98047145    -37.131637     -334.81366      163.15464    
    403500   807000         79.854924      326.01756      783.69247     -91.470501      1913.5422     -2005.0127      668.37818      685.56352      7195.0421      0             -10553.996      0              0             -501.34248      184065.36      56.884073      56.884073      56.884073      0.9813926      407.1818       18.379443      552.49142    
    404000   808000         81.244199     -191.73318     -574.75106     -58.802404      1946.833      -2005.6354      644.03904      710.15502      7203.3208      0             -10563.15       0              0             -500.11888      184515.69      56.930427      56.930427      56.930427      0.97899736    -274.56275     -114.11397     -186.52283    
    404500   809000         79.660879      4.6019275     -58.874728     -71.225545      1908.8923     -1980.1178      656.378        714.73374      7190.1784      0             -10541.408      0              0             -501.44874      184026.35      56.880055      56.880055      56.880055      0.98160061     191.81506     -23.708112     -154.30117    
    405000   810000         78.052548      3.065688      -122.74644     -130.9675       1870.3523     -2001.3198      664.23092      707.09215      7181.6663      0             -10554.309      0              0             -501.85992      183875.58      56.864516      56.864516      56.864516      0.98240551    -88.362059      49.749976      47.809147    
    405500   811000         80.028341      248.00582      599.8597      -67.08316       1917.6977     -1984.7808      675.87329      716.67903      7175.9643      0             -10553.297      0              0             -500.44424      184395.73      56.918086      56.918086      56.918086      0.97963426     169.58295      295.72979      278.70471    
    406000   812000         80.003976     -54.888205     -264.11435     -116.88436      1917.1138     -2033.9982      652.79393      692.92442      7180.4326      0             -10560.149      0              0             -501.72437      183925.25      56.869637      56.869637      56.869637      0.98214017     145.64817     -346.74713      36.434347    
    406500   813000         80.146274      165.81658      338.65081     -106.15815      1920.5237     -2026.6818      653.89197      712.64148      7174.8626      0             -10568.078      0              0             -501.69166      183937.25      56.870873      56.870873      56.870873      0.98207613     290.24157      124.3607       82.847479    
    407000   814000         81.279799     -217.31011     -638.57775     -53.693402      1947.686      -2001.3794      646.75305      719.05082      7166.8033      0             -10533.987      0              0             -500.02576      184550.05      56.93396       56.93396       56.93396       0.97881509    -273.30581     -270.81845     -107.80606    
    407500   815000         79.715791      35.122323     -6.3689605     -100.52617      1910.2081     -2010.7343      654.11468      709.31036      7188.5783      0             -10562.738      0              0             -502.00966      183820.73      56.858862      56.858862      56.858862      0.98269863     401.37295      62.464887     -358.47087    
    408000   816000         79.409605      266.008        611.08601     -101.86561      1902.8711     -2004.7367      650.70481      732.0929       7173.2638      0             -10560.798      0              0             -502.13105      183776.29      56.854279      56.854279      56.854279      0.98293625     212.43317      303.42921      282.16162    
    408500   817000         79.72738      -65.359743     -284.64624     -109.44398      1910.4858     -2019.9298      646.61081      719.18924      7185.1555      0             -10570.885      0              0             -502.05706      183803.37      56.857072      56.857072      56.857072      0.98279141    -304.89529     -22.24915       131.06521    
    409000   818000         80.187406      2.9502022     -95.544292     -103.45479      1921.5093     -2024.9641      654.39214      718.24276      7174.4303      0             -10572.029      0              0             -501.91533      183855.28      56.862423      56.862423      56.862423      0.98251398     40.791298      51.629589     -83.57028     
    409500   819000         78.456049      0.88515073    -151.31994     -153.69653      1880.0213     -2033.7178      654.56821      707.6996       7151.3339      0             -10547.32       0              0             -501.24017      184102.92      56.887943      56.887943      56.887943      0.98119233    -15.314614     -122.85417      140.82424    
    410000   820000         79.697934      15.463148     -63.383594     -104.95223      1909.7802     -2014.7325      661.16394      699.48372      7176.6027      0             -10551.983      0              0             -500.62738      184328.27      56.911144      56.911144      56.911144      0.97999278    -5.4710175     -111.04716      162.90762    
    410500   821000         80.252793     -110.07592     -377.84406     -82.439647      1923.0762     -2005.5158      645.43103      724.73517      7164.8816      0             -10540.564      0              0             -501.48485      184013.1       56.87869       56.87869       56.87869       0.98167129     132.49328     -144.95364     -317.76741    
    411000   822000         79.491436      40.200085     -8.1496572     -115.91374      1904.832      -2020.7457      653.84202      717.78889      7180.5015      0             -10572.878      0              0             -502.0366       183810.86      56.857845      56.857845      56.857845      0.98275137    -178.35166     -57.086851      356.03877    
    411500   823000         81.03368       23.517854     -17.981815     -81.056261      1941.7884     -2022.8446      650.89613      705.18529      7156.3282      0             -10535.254      0              0             -501.79542      183899.21      56.866952      56.866952      56.866952      0.98227925     243.32558     -414.43116      241.65914    
    412000   824000         78.933878      36.979062     -27.086436     -126.17541      1891.4714     -2017.6468      647.84271      713.53446      7180.3489      0             -10559.373      0              0             -502.24196      183735.71      56.850094      56.850094      56.850094      0.98315336     111.04247      108.82296     -108.92824    
    412500   825000         79.64829      -338.10862     -1019.9315     -111.32288      1908.5906     -2019.9135      650.95172      718.29574      7158.3815      0             -10547.542      0              0             -500.79713      184265.8       56.904714      56.904714      56.904714      0.98032506    -354.92577     -542.94266     -116.45743    
    413000   826000         80.108154     -61.516533     -248.86104     -83.655654      1919.6102     -2003.2659      668.25543      693.0339       7168.8971      0             -10533.452      0              0             -501.12964      184143.53      56.892125      56.892125      56.892125      0.98097596    -69.215513      15.669125     -131.00321    
    413500   827000         79.625742      135.90851      253.38797     -110.82371      1908.0503     -2018.874       653.1404       712.9485       7174.2055      0             -10559.168      0              0             -502.1983       183751.68      56.851741      56.851741      56.851741      0.9830679     -89.849088      65.03493       432.5397     
    414000   828000         81.290773      30.623659      25.619785     -56.637074      1947.949      -2004.5861      669.59749      722.38202      7156.8241      0             -10553.39       0              0             -501.03424      184178.59      56.895736      56.895736      56.895736      0.98078921    -66.218341     -19.047367      177.13668    
    414500   829000         80.56585      -38.704593     -200.33031     -96.519382      1930.5779     -2027.0973      632.69864      711.46726      7164.136       0             -10535.399      0              0             -501.76677      183909.71      56.868035      56.868035      56.868035      0.98222315    -209.69864      48.680033      44.904824    
    415000   830000         78.934745      257.57513      571.15397     -119.78024      1891.4921     -2011.2724      654.4413       733.47399      7152.9782      0             -10552.166      0              0             -501.70645      183931.82      56.870314      56.870314      56.870314      0.98210508     206.94678      16.610263      549.16835    
    415500   831000         80.595804      72.484494      107.95275     -86.738152      1931.2957     -2018.0338      664.67273      705.79459      7174.9097      0             -10563.411      0              0             -501.05097      184172.45      56.895103      56.895103      56.895103      0.98082195     207.4037       121.74986     -111.70008    
    416000   832000         81.204355      89.771822      183.14306     -57.758378      1945.8782     -2003.6366      654.55202      736.01221      7160.9226      0             -10555.123      0              0             -501.51405      184002.38      56.877585      56.877585      56.877585      0.98172846     510.42561     -452.75552      211.64538    
    416500   833000         79.820226     -21.095795     -164.34923     -107.66712      1912.7107     -2020.3778      660.72036      700.06667      7164.0819      0             -10545.247      0              0             -500.87846      184235.88      56.901634      56.901634      56.901634      0.98048427     91.576535      72.052561     -226.91648    
    417000   834000         79.555554      80.691456      90.771221     -125.9233       1906.3684     -2032.2917      664.92359      706.11506      7155.3578      0             -10558.688      0              0             -501.14347      184138.45      56.891602      56.891602      56.891602      0.98100303    -235.45676      305.6759       171.85523    
    417500   835000         80.241464      234.34337      542.70527     -86.25167       1922.8047     -2009.0564      650.34503      716.63475      7174.4845      0             -10550.521      0              0             -501.4345       184031.58      56.880593      56.880593      56.880593      0.98157273     368.11973      152.36779      182.5426     
    418000   836000         79.323939     -241.83669     -804.35321     -154.55841      1900.8183     -2055.3767      636.85838      699.15606      7167.6067      0             -10558.998      0              0             -500.87391      184237.55      56.901806      56.901806      56.901806      0.98047537    -335.60455     -78.623052     -311.28248    
    418500   837000         79.526975      123.89451      231.50999     -100.27962      1905.6836     -2005.9632      659.8477       714.40797      7176.643       0             -10556.862      0              0             -502.54126      183626.28      56.838806      56.838806      56.838806      0.98373926     331.26251     -38.443817      78.864831    
    419000   838000         77.870023      258.35467      581.09443     -112.32387      1865.9785     -1978.3023      670.84354      708.65847      7190.8651      0             -10548.669      0              0             -501.42209      184036.13      56.881062      56.881062      56.881062      0.98154845     232.52156      314.17092      228.37153    
    419500   839000         80.323496     -42.781695     -212.39236     -97.328384      1924.7704     -2022.0988      649.51599      687.87156      7165.9566      0             -10525.443      0              0             -500.38127      184418.94      56.920474      56.920474      56.920474      0.979511       164.52353     -231.57331     -61.2953      
    420000   840000         80.456574     -14.432371     -124.95        -86.217801      1927.9593     -2014.1771      657.23833      703.95723      7186.4629      0             -10561.836      0              0             -501.4735       184017.26      56.879118      56.879118      56.879118      0.98164908    -403.8896      -64.333148      424.92564    
    420500   841000         80.313035      102.27412      140.74724     -133.4297       1924.5197     -2057.9494      651.04429      699.11718      7159.2253      0             -10567.336      0              0             -502.01568      183818.53      56.858635      56.858635      56.858635      0.98271041     161.76224     -54.566905      199.62702    
    421000   842000         79.380786     -92.669467     -359.72455     -110.5907       1902.1805     -2012.7712      672.76014      684.46995      7181.7158      0             -10551.717      0              0             -500.59484      184340.26      56.912378      56.912378      56.912378      0.97992908    -150.20446     -169.1241       41.320164    
    421500   843000         80.376104      28.340777      12.787849     -63.171882      1926.031      -1989.2029      681.49974      693.78798      7189.0967      0             -10553.587      0              0             -502.12376      183778.96      56.854554      56.854554      56.854554      0.98292199     364.04348     -277.70926     -1.3118906    
    422000   844000         81.170341      282.65495      692.53098     -67.540108      1945.0631     -2012.6032      651.46894      709.50883      7171.3476      0             -10544.929      0              0             -500.4778       184383.37      56.916814      56.916814      56.916814      0.97969997     157.75856      393.13915      297.06713    
    422500   845000         80.112317      10.717999     -108.78559     -137.53403      1919.71       -2057.244       640.29334      693.86522      7147.6081      0             -10539.011      0              0             -501.74374      183918.15      56.868905      56.868905      56.868905      0.98217809    -69.126681      149.94613     -48.665452    
    423000   846000         80.306988     -222.0076      -676.68964     -80.965978      1924.3748     -2005.3408      662.78062      721.57714      7168.1411      0             -10557.84       0              0             -501.53984      183992.92      56.87661       56.87661       56.87661       0.98177895    -174.39092     -565.31461      73.682726    
    423500   847000         80.243078      249.97014      605.64166     -64.388851      1922.8434     -1987.2322      660.48845      730.32311      7179.125       0             -10557.169      0              0             -502.08357      183793.67      56.856072      56.856072      56.856072      0.9828433     -84.371509      442.79247      391.48947    
    424000   848000         79.097189     -170.4632      -600.70424     -142.06428      1895.3848     -2037.449       650.54973      700.0284       7160.4205      0             -10548.448      0              0             -500.19713      184486.83      56.927458      56.927458      56.927458      0.97915054    -95.644797     -391.96845     -23.776346    
    424500   849000         80.255926     -72.133372     -304.8276      -111.10798      1923.1512     -2034.2592      652.35465      701.96954      7155.113       0             -10543.696      0              0             -501.12386      184145.66      56.892344      56.892344      56.892344      0.98096464     46.115185     -425.13318      162.61788    
    425000   850000         79.593891     -293.22436     -905.96866     -118.37679      1907.2871     -2025.6639      643.29624      707.98872      7173.6897      0             -10550.639      0              0             -501.05024      184172.71      56.89513       56.89513       56.89513       0.98082053    -307.54638     -373.93193     -198.19478    
Loop time of 45.3609 on 1 procs for 25000 steps with 8040 atoms

Performance: 95.236 ns/day, 0.252 hours/ns, 551.136 timesteps/s, 4.431 Matom-step/s
99.6% CPU use with 1 MPI tasks x 1 OpenMP threads

MPI task timing breakdown:
Section |  min time  |  avg time  |  max time  |%varavg| %total
---------------------------------------------------------------
Pair    | 7.0885     | 7.0885     | 7.0885     |   0.0 | 15.63
Bond    | 30.867     | 30.867     | 30.867     |   0.0 | 68.05
Neigh   | 0.0051077  | 0.0051077  | 0.0051077  |   0.0 |  0.01
Comm    | 2.2192     | 2.2192     | 2.2192     |   0.0 |  4.89
Output  | 0.0061947  | 0.0061947  | 0.0061947  |   0.0 |  0.01
Modify  | 4.0552     | 4.0552     | 4.0552     |   0.0 |  8.94
Other   |            | 1.119      |            |       |  2.47

Nlocal:           8040 ave        8040 max        8040 min
Histogram: 1 0 0 0 0 0 0 0 0 0
Nghost:          18632 ave       18632 max       18632 min
Histogram: 1 0 0 0 0 0 0 0 0 0
Neighs:              0 ave           0 max           0 min
Histogram: 1 0 0 0 0 0 0 0 0 0

Total # of neighbors = 0
Ave neighs/atom = 0
Ave special neighs/atom = 5.9701493
Neighbor list builds = 242
Dangerous builds = 0
  unfix npt_tg
  print "STAGE COMPLETE: Tg step T=${temps}K P=1.0atm steps=25000"
STAGE COMPLETE: Tg step T=80K P=1.0atm steps=25000
  next temps
  jump SELF TEMP_LOOP

write_data tg_step_out.data
System init for write_data ...
Generated 3 of 3 mixed pair_coeff terms from arithmetic mixing rule
Total wall time: 0:12:54
