units real
atom_style full
boundary p p p

# --- Force Field Styles ---
pair_style lj/class2/coul/long 9.5 9.5
kspace_style pppm 1e-6
dielectric 1.000000
bond_style class2
angle_style class2
dihedral_style class2
improper_style class2
special_bonds lj/coul 0 0 1
pair_modify mix sixthpower tail yes
neighbor 2.0 bin
neigh_modify delay 0 every 1 check yes
neigh_modify one 4000
# KOKKOS: package loaded via -pk kokkos on the command line

read_data /home/arz2/PolyJarvis/data/PLA4/lammps/equil/npt_prod300/npt_prod300_out.data
Reading data file ...
  orthogonal box = (4.5704171 4.5704171 4.5704171) to (41.062706 41.062706 41.062706)
  1 by 1 by 1 MPI processor grid
  reading atoms ...
  4520 atoms
  reading velocities ...
  4520 velocities
  scanning bonds ...
  4 = max bonds/atom
  scanning angles ...
  12 = max angles/atom
  scanning dihedrals ...
  21 = max dihedrals/atom
  scanning impropers ...
  8 = max impropers/atom
  orthogonal box = (4.5704171 4.5704171 4.5704171) to (41.062706 41.062706 41.062706)
  1 by 1 by 1 MPI processor grid
  reading bonds ...
  4510 bonds
  reading angles ...
  8000 angles
  reading dihedrals ...
  9970 dihedrals
  reading impropers ...
  4500 impropers
Finding 1-2 1-3 1-4 neighbors ...
  special bond factors lj:    0        0        1       
  special bond factors coul:  0        0        1       
     4 = max # of 1-2 neighbors
     6 = max # of 1-3 neighbors
    10 = max # of special neighbors
  special bonds CPU = 0.003 seconds
  read_data CPU = 0.246 seconds


# --- Thermo Output ---
thermo_style custom step time temp press enthalpy etotal ke pe ebond eangle edihed eimp evdwl ecoul elong etail vol lx ly lz density pxx pyy pzz
thermo_modify flush yes
thermo 100

# --- Trajectory ---
dump dump_npt all custom 1000 /home/arz2/PolyJarvis/data/PLA4/lammps/mechanical/bm_series/bm_P1500/bm_P1500.dump id type mol x y z ix iy iz vx vy vz

# --- Restart Checkpointing ---
restart 10000 npt_1.rst npt_2.rst

# --- Initial Velocities (optional) ---
# Velocities read from data file

# --- SHAKE Constraints ---
fix shake_fix all shake 1e-4 1000 0 m 1.008
Finding SHAKE clusters ...
     500 = # of size 2 clusters
      10 = # of size 3 clusters
     500 = # of size 4 clusters
       0 = # of frozen angles
  find clusters CPU = 0.002 seconds

# --- NPT Thermostat + Barostat (Nose-Hoover) ---
# T_damp = 100.0 fs  (heat bath coupling)
# P_damp = 1000.0 fs  (pressure bath coupling, ~10x T_damp typical)
# Ramp: T=300.0->300.0K  P=1500.0->1500.0atm
timestep 1.0
fix npt_fix all npt temp 300.0 300.0 100.0 iso 1500.0 1500.0 1000.0

run 500000
PPPM Kokkos initialization ...
  using 12-bit tables for long-range coulomb
  G vector (1/distance) = 0.34318297
  grid = 45 45 45
  stencil order = 5
  estimated absolute RMS force accuracy = 0.00024909339
  estimated relative force accuracy = 7.5013733e-07
  using double precision cuFFT
  3d grid and FFT values/proc = 140608 91125
Generated 21 of 21 mixed pair_coeff terms from sixthpower/sixthpower mixing rule
Neighbor list info ...
  update: every = 1 steps, delay = 0 steps, check = yes
  max neighbors/atom: 4000, page size: 100000
  master list distance cutoff = 11.5
  ghost atom cutoff = 11.5
  binsize = 11.5, bins = 4 4 4
  1 neighbor lists, perpetual/occasional/extra = 1 0 0
  (1) pair lj/class2/coul/long/kk, perpetual
      attributes: full, newton off, kokkos_device
      pair build: full/bin/kk/device
      stencil: full/bin/3d
      bin: kk/device
Per MPI rank memory allocation (min/avg/max) = 38.42 | 38.42 | 38.42 Mbytes
   Step          Time           Temp          Press         Enthalpy        TotEng         KinEng         PotEng         E_bond        E_angle        E_dihed        E_impro         E_vdwl         E_coul         E_long         E_tail         Volume           Lx             Ly             Lz          Density          Pxx            Pyy            Pzz      
         0   0              356.85367      401.03678      16043.171      15758.945      4090.6857      11668.259      1557.3123      3802.344      -4145.1088      128.44282     -2498.5066      44844.305     -32020.53      -389.17239      48596.313      36.492289      36.492289      36.492289      1.2319067      1458.1234     -681.51164      426.49855    
       100   100            302.85869      2520.3627      16891.804      15111.625      3471.7303      11639.895      1453.1786      3790.4748     -4159.8723      146.07505     -2451.1841      44876.566     -32015.343     -390.49967      48431.138      36.450897      36.450897      36.450897      1.2361081      2428.0919      1444.7225      3688.2737    
       200   200            298.22499      15.371439      15058.871      15048.083      3418.6133      11629.47       1482.0063      3756.6758     -4119.4491      143.38725     -2497.667       44880.373     -32015.857     -393.02174      48120.35       36.37276       36.37276       36.37276       1.2440916      99.357174     -384.0328       330.78995    
       300   300            302.58242      2809.0058      17003.886      15051.048      3468.5634      11582.485      1443.3774      3706.4152     -4106.2136      154.09855     -2482.9227      44889.358     -32021.628     -396.74152      47669.181      36.258728      36.258728      36.258728      1.2558664      3221.5338      2359.8259      2845.6577    
       400   400            295.09323      3386.977       17383.243      15040.879      3382.7132      11658.165      1465.2305      3769.1544     -4045.0123      145.22738     -2518.4287      44862.74      -32020.746     -398.82185      47420.53       36.195574      36.195574      36.195574      1.2624516      3271.7417      2174.6748      4714.5146    
       500   500            301.212        215.28053      15200.296      15051.39       3452.854       11598.536      1487.2767      3748.2214     -4060.8845      156.58113     -2560.1255      44848.279     -32020.812     -398.763        47427.528      36.197354      36.197354      36.197354      1.2622653      5.860604       234.23106      405.74994    
       600   600            303.83808      888.9234       15701.547      15085.671      3482.9573      11602.714      1486.644       3839.2322     -4094.9774      149.65848     -2627.4547      44868.146     -32018.535     -398.10045      47506.461      36.217424      36.217424      36.217424      1.260168       1790.9991      607.88634      267.88478    
       700   700            302.24879      1454.5353      16112.854      15105.082      3464.7389      11640.343      1470.2635      3790.2418     -4076.5245      148.11239     -2517.9991      44852.376     -32026.127     -398.09168      47507.507      36.21769       36.21769       36.21769       1.2601403      1721.4687      1244.1028      1398.0345    
       800   800            304.37795      1473.6376      16095.089      15073.206      3489.1459      11584.06       1455.3757      3768.3972     -4104.3457      146.04614     -2534.6544      44872.043     -32018.802     -397.75046      47548.263      36.228044      36.228044      36.228044      1.2590601      1930.7695      766.53713      1723.6063    
       900   900            297.23789      3602.1864      17485.019      14983.531      3407.2979      11576.233      1457.7813      3726.554      -4110.6261      141.38314     -2467.2667      44856.768     -32028.361     -397.18142      47616.385      36.245337      36.245337      36.245337      1.2572589      4069.2635      1776.8834      4960.4122    
      1000   1000           298.82638      4.7216923      14951.355      14948.063      3425.5071      11522.556      1502.2374      3721.3693     -4086.5563      137.4832      -2552.069       44822.683     -32022.591     -395.62631      47803.553      36.292765      36.292765      36.292765      1.2523362      127.07076      697.63473     -810.54041    
      1100   1100           299.53465      894.17459      15656.492      15033.071      3433.6262      11599.445      1474.2737      3818.1138     -4113.225       141.62356     -2565.3426      44861.182     -32017.18      -395.60589      47806.021      36.29339       36.29339       36.29339       1.2522716      801.49738      789.55057      1091.4758    
      1200   1200           300.02988      1185.4759      15927.026      15103.311      3439.3031      11664.008      1523.3482      3800.6599     -4108.4382      134.6985      -2550.9412      44875.393     -32010.712     -396.95109      47644.015      36.252346      36.252346      36.252346      1.2565298      1738.7642      1346.9991      470.6644     
      1300   1300           304.05614      1978.3274      16451.937      15083.289      3485.4569      11597.833      1507.6986      3764.2059     -4105.6354      144.93197     -2559.4459      44864.052     -32017.974     -398.68292      47437.055      36.199778      36.199778      36.199778      1.2620118      1850.6117      2744.1594      1340.211     
      1400   1400           301.82128     -81.970963      14956.285      15012.836      3459.8383      11552.998      1500.8878      3712.1307     -4078.0502      144.23619     -2554.3761      44849.639     -32021.47      -399.79605      47304.979      36.16615       36.16615       36.16615       1.2655353     -1067.6098     -84.408877      906.10582    
      1500   1500           290.45586      2976.309       17012.961      14962.324      3329.5541      11632.77       1497.2881      3732.2588     -4055.4286      123.83415     -2478.7908      44840.798     -32027.19      -400.3229       47242.722      36.150278      36.150278      36.150278      1.2672031      5910.4138      970.03014      2048.483     
      1600   1600           292.70111      2104.7752      16427.336      14974.194      3355.292       11618.902      1519.2852      3714.3888     -4045.0026      140.83146     -2549.1118      44869.484     -32030.973     -399.50208      47339.787      36.175019      36.175019      36.175019      1.2646048      2222.3825      3303.6724      788.27071    
      1700   1700           305.36879     -221.53268      14913.968      15067.37       3500.5041      11566.866      1507.4129      3744.7004     -4060.9743      134.63541     -2589.4557      44846.96      -32016.412     -398.31486      47480.889      36.210925      36.210925      36.210925      1.2608467      386.33546     -432.50425     -618.42924    
      1800   1800           304.5785       1233.8022      16013.696      15157.921      3491.4448      11666.476      1478.2755      3748.4299     -4074.3338      141.75492     -2495.8775      44880.003     -32011.776     -397.65564      47559.601      36.230923      36.230923      36.230923      1.25876        1921.7273      1648.1354      131.54372    
      1900   1900           305.44659      2078.8437      16575.367      15130.93       3501.396       11629.534      1483.2202      3689.6684     -4064.4414      156.41686     -2464.3507      44851.043     -32022.022     -396.95786      47643.202      36.25214       36.25214       36.25214       1.2565512      2322.1938      3493.5333      420.80399    
      2000   2000           304.00123      812.68542      15639.787      15074.306      3484.8275      11589.478      1539.4908      3725.0304     -4073.3114      128.50069     -2528.61        44822.706     -32024.328     -396.39273      47711.126      36.26936       36.26936       36.26936       1.2547623      357.97835      1646.0319      434.04606    
      2100   2100           298.90871      2274.1455      16619.485      15039.074      3426.4509      11612.623      1416.842       3797.299      -4087.057       151.43131     -2533.4627      44891.798     -32024.227     -396.8893       47651.432      36.254227      36.254227      36.254227      1.2563342      1513.5986      3407.2313      1901.6067    
      2200   2200           302.72841      1060.2592      15779.657      15045.306      3470.2368      11575.069      1503.5237      3676.9099     -4089.4407      128.95558     -2526.6758      44899.281     -32017.484     -398.2263       47491.448      36.213609      36.213609      36.213609      1.2605664      875.32644      678.73556      1626.7157    
      2300   2300           299.47102      2337.2429      16686.844      15073.415      3432.8967      11640.518      1485.7375      3803.8531     -4101.0289      135.39811     -2515.9972      44861.998     -32029.443     -399.55368      47333.674      36.173462      36.173462      36.173462      1.2647681      2515.5019      1530.8865      2965.3403    
      2400   2400           303.50574      1887.3202      16425.386      15122.516      3479.1475      11643.368      1514.2119      3763.4738     -4068.247       138.39673     -2526.4833      44853.039     -32031.023     -399.54505      47334.696      36.173722      36.173722      36.173722      1.2647408      2686.086       1163.788       1812.0865    
      2500   2500           303.93336      1051.7364      15824.362      15095.676      3484.0494      11611.626      1481.0775      3800.2211     -4025.5711      127.47384     -2600.2996      44850.49      -32021.766     -398.09553      47507.048      36.217573      36.217573      36.217573      1.2601524      1914.2318      620.03413      620.94326    
      2600   2600           297.29425      746.02279      15531.204      15013.471      3407.944       11605.527      1504.4433      3730.0925     -4029.2174      150.28251     -2581.4036      44852.136     -32020.806     -397.43662      47585.81       36.237577      36.237577      36.237577      1.2580667     -29.59249       1804.2874      463.3735     
      2700   2700           295.30385      2108.8956      16436.401      14976.009      3385.1277      11590.881      1524.0717      3749.4636     -4098.8519      139.70939     -2542.2747      44836.488     -32017.725     -398.29695      47483.024      36.211467      36.211467      36.211467      1.26079        2196.5334      2495.2958      1634.8575    
      2800   2800           297.37429      1259.1668      15878.438      15008.85       3408.8615      11599.989      1450.6622      3794.0755     -4039.6988      155.6449      -2577.617       44832.592     -32015.669     -399.38429      47353.749      36.178575      36.178575      36.178575      1.2642319      1608.4471      1864.9114      304.14196    
      2900   2900           305.97937      1385.4618      16071.893      15117.494      3507.5033      11609.991      1549.3876      3699.3065     -4090.8032      134.39765     -2467.2755      44811.619     -32026.641     -400.39264      47234.493      36.148179      36.148179      36.148179      1.2674238      730.41809      1593.1974      1832.77      
      3000   3000           302.56652      1554.5774      16221.45       15149.651      3468.3811      11681.27       1397.6278      3838.5474     -4016.7295      152.81051     -2548.2712      44876.504     -32019.219     -400.05539      47274.312      36.158334      36.158334      36.158334      1.2663563      1996.7986      1101.4508      1565.4828    
      3100   3100           297.92317      2194.9968      16588.332      15068.39       3415.1534      11653.237      1511.2822      3699.7705     -4063.1251      135.79305     -2497.9965      44882.648     -32015.135     -398.31622      47480.726      36.210883      36.210883      36.210883      1.260851       345.15808      3736.9019      2502.9304    
      3200   3200           297.52907      581.16952      15416.9        15012.784      3410.6357      11602.148      1504.4901      3757.0222     -4055.015       128.37398     -2582.6208      44869.183     -32019.285     -396.65935      47679.057      36.261232      36.261232      36.261232      1.2556063      231.83588      533.38001      978.29267    
      3300   3300           297.34723      2425.6494      16701.945      15014.841      3408.5513      11606.29       1495.4057      3717.6387     -4090.1764      147.4877      -2527.6822      44878.551     -32014.934     -396.55867      47691.161      36.2643        36.2643        36.2643        1.2552876      2421.1303      2604.7728      2251.0452    
      3400   3400           302.19222      2073.9071      16505.689      15062.795      3464.0905      11598.705      1461.0739      3696.9926     -4065.8978      145.10031     -2508.6469      44892.253     -32022.17      -396.43897      47705.561      36.267949      36.267949      36.267949      1.2549087      1639.0574      2456.9943      2125.6696    
      3500   3500           299.11412     -719.58198      14586.385      15087.039      3428.8055      11658.233      1557.2784      3809.4165     -4109.1201      145.55967     -2558.8209      44830.382     -32016.462     -396.42724      47706.973      36.268307      36.268307      36.268307      1.2548715     -1345.8422      78.076957     -890.98067    
      3600   3600           298.68787      3405.2384      17392.648      15034.329      3423.9194      11610.41       1464.1183      3674.2417     -4071.1199      145.65563     -2502.5453      44916.289     -32016.229     -398.25966      47487.469      36.212597      36.212597      36.212597      1.260672       2898.5432      4175.6023      3141.5698    
      3700   3700           298.98355      404.42734      15208.028      14928.721      3427.3088      11501.412      1471.3906      3724.0188     -4071.3472      140.50737     -2577.7969      44830.746     -32016.106     -399.37514      47354.834      36.178851      36.178851      36.178851      1.264203      -300.45453      321.27735      1192.4592    
      3800   3800           298.60044      2383.1608      16573.32       14932.075      3422.9172      11509.158      1478.1606      3652.7366     -4065.74        133.67233     -2542.3891      44868.509     -32015.792     -400.49896      47221.954      36.14498       36.14498       36.14498       1.2677604      1572.8082      3689.5336      1887.1406    
      3900   3900           300.00786      1150.9971      15804.111      15010.024      3439.0506      11570.973      1429.8648      3744.469      -4020.0167      142.64433     -2579.5481      44870.316     -32016.756     -399.7858       47306.191      36.166459      36.166459      36.166459      1.2655029      941.92976      1948.9882      562.07339    
      4000   4000           298.14501      2047.9293      16475.321      15059.23       3417.6964      11641.533      1513.6415      3764.5867     -4082.7575      156.49363     -2554.888       44862.801     -32018.344     -398.88232      47413.341      36.193745      36.193745      36.193745      1.262643       1968.7626      2663.1811      1511.8441    
      4100   4100           298.21643      430.66629      15352.611      15054.226      3418.5152      11635.711      1508.0455      3749.1511     -4057.7535      132.76632     -2527.1087      44845.279     -32014.669     -398.09397      47507.234      36.217621      36.217621      36.217621      1.2601475      84.042318      1566.1824     -358.22584    
      4200   4200           298.55991      2888.3769      17036.059      15034.291      3422.4525      11611.839      1495.8221      3740.4601     -4106.8885      146.80092     -2524.2982      44873.882     -32013.94      -397.98013      47520.823      36.221074      36.221074      36.221074      1.2597872      3367.7322      3357.7975      1939.6011    
      4300   4300           294.76039      1711.5704      16201.166      15012.913      3378.8979      11634.015      1511.3944      3769.8281     -4118.9366      146.73053     -2499.7724      44840.96      -32016.189     -397.28947      47603.435      36.242051      36.242051      36.242051      1.2576009      1981.5551      2582.9263      570.22986    
      4400   4400           298.1884      -228.18849      14868.813      15027.383      3418.1938      11609.19       1478.9177      3793.921      -4072.6731      131.31989     -2547.3929      44843.198     -32018.101     -396.91175      47648.737      36.253544      36.253544      36.253544      1.2564052      1319.3739     -245.56472     -1758.3746    
      4500   4500           303.41079      2009.92        16481.235      15088.355      3478.0591      11610.296      1472.2552      3818.7843     -4092.4971      140.93841     -2559.2549      44847.99      -32017.92      -398.00276      47518.121      36.220387      36.220387      36.220387      1.2598588      698.46075      3622.4799      1708.8195    
      4600   4600           301.43504      2985.9114      17158.473      15096.319      3455.4108      11640.908      1521.5793      3667.0066     -4051.2273      162.09077     -2482.9872      44844.697     -32020.251     -399.37151      47355.264      36.178961      36.178961      36.178961      1.2641915      3007.7522      3346.4987      2603.4834    
      4700   4700           297.31371      1834.3716      16274.596      15006.895      3408.1671      11598.728      1502.6269      3778.5557     -4132.4473      137.89874     -2513.5098      44846.328     -32020.725     -399.10891      47386.423      36.186894      36.186894      36.186894      1.2633602      3212.3772      2338.3414     -47.603952    
      4800   4800           297.05936      849.95775      15544.033      14954.176      3405.2514      11548.925      1509.8359      3726.7782     -4100.677       136.39834     -2577.7617      44870.882     -32016.531     -397.44043      47585.354      36.237462      36.237462      36.237462      1.2580788      2920.5956      650.34745     -1021.0698    
      4900   4900           300.77927      2521.9518      16747.23       14991.462      3447.8934      11543.568      1484.5581      3768.1236     -4130.6607      127.95426     -2547.5713      44862.429     -32021.264     -396.17857      47736.917      36.275894      36.275894      36.275894      1.2540844      1417.5702      1999.8186      4148.4665    
      5000   5000           299.08973     -420.07528      14790.817      15084.41       3428.526       11655.884      1552.2866      3762.241      -4091.7989      146.61499     -2534.6085      44841.818     -32020.67      -394.64223      47922.756      36.322907      36.322907      36.322907      1.2492212     -134.00467      856.35503     -1982.5762    
      5100   5100           301.71673      1753.2465      16360.676      15136.666      3458.6397      11678.026      1482.0356      3810.4165     -4090.8123      161.90018     -2509.7724      44843.498     -32019.24      -395.07467      47870.301      36.309649      36.309649      36.309649      1.2505901      335.19054      1645.21        3279.3389    
      5200   5200           303.58684      1988.0256      16503.069      15121.376      3480.0773      11641.299      1473.7174      3714.5913     -4056.0003      143.84664     -2482.5885      44870.309     -32022.576     -396.8549       47655.562      36.255275      36.255275      36.255275      1.2562253      3247.9695      1129.5461      1586.5612    
      5300   5300           302.90525      1581.025       16173.188      15076.887      3472.264       11604.623      1484.5281      3750.2027     -4052.3373      132.73809     -2546.4641      44848.324     -32012.368     -397.76836      47546.123      36.2275        36.2275        36.2275        1.2591168      1038.9701      2224.4171      1479.6879    
      5400   5400           291.37387      1033.4636      15720.907      15005.1        3340.0775      11665.022      1502.1846      3771.2009     -4072.7678      153.13212     -2485.7623      44813.922     -32016.887     -398.21769      47492.475      36.21387       36.21387       36.21387       1.2605391      486.51268      928.05459      1685.8235    
      5500   5500           299.37036      2986.1705      17060.352      14991.744      3431.7429      11560.001      1497.2277      3736.0228     -4094.2138      128.93086     -2537.1798      44851.838     -32022.625     -398.1599       47499.368      36.215622      36.215622      36.215622      1.2603562      4203.4089      1599.0624      3156.04      
      5600   5600           301.3628       1058.6412      15741.29       15007.126      3454.5826      11552.544      1429.275       3771.5155     -4070.5236      125.92521     -2561.9718      44877.902     -32019.578     -397.71997      47551.908      36.22897       36.22897       36.22897       1.2589636      679.44406      2026.931       469.54863    
      5700   5700           301.97322      1241.4491      15944.215      15080.964      3461.5799      11619.384      1503.085       3727.3432     -4111.149       157.35732     -2531.3615      44883.007     -32008.898     -396.65544      47679.526      36.261351      36.261351      36.261351      1.2555939      1393.3163      1158.1306      1172.9005    
      5800   5800           297.64462      1946.5652      16495.28       15137.494      3411.9604      11725.534      1464.2715      3890.0185     -4082.8702      152.35973     -2523.165       44843.857     -32018.938     -395.42028      47828.461      36.299068      36.299068      36.299068      1.2516841      2851.8501      1721.7495      1266.0959    
      5900   5900           302.63456      1172.1257      15915.625      15097.429      3469.161       11628.268      1425.6198      3729.2812     -4072.2018      140.71475     -2469.9988      44890.074     -32015.222     -395.12823      47863.812      36.308009      36.308009      36.308009      1.2507596      366.25253      2794.3161      355.80839    
      6000   6000           295.20543      1288.5965      15867.857      14967.539      3383.9994      11583.539      1508.7689      3713.2385     -4058.329       132.29054     -2530.7954      44838.134     -32019.769     -394.7682       47907.465      36.319043      36.319043      36.319043      1.2496199      2018.3738      682.84098      1164.5746    
      6100   6100           291.84551      722.28021      15467.988      14964.434      3345.484       11618.95       1459.3302      3788.3795     -4103.3231      139.02263     -2502.836       44852.688     -32014.311     -395.62281      47803.976      36.292872      36.292872      36.292872      1.2523252     -451.85901      504.4975       2114.2021    
      6200   6200           297.24413      2582.5293      16813.51       15022.032      3407.3695      11614.663      1508.0549      3761.0745     -4121.662       130.80548     -2495.8795      44848.444     -32016.175     -397.60785      47565.317      36.232375      36.232375      36.232375      1.2586087      3947.0799      1734.8317      2065.6763    
      6300   6300           303.77789      678.32536      15564.242      15094.774      3482.2672      11612.507      1517.0555      3688.7015     -4073.3679      152.23624     -2490.8253      44837.935     -32019.228     -398.52286      47456.107      36.204623      36.204623      36.204623      1.2615051     -1194.1097      1191.8169      2037.2688    
      6400   6400           305.96474      3001.737       17175.058      15094.172      3507.3355      11586.836      1465.7686      3783.1024     -4109.206       139.9083      -2543.3732      44869.889     -32019.253     -397.87405      47533.494      36.224292      36.224292      36.224292      1.2594513      2157.0998      3273.1071      3575.004     
      6500   6500           300.50846     -488.7481       14717.312      15056.935      3444.7891      11612.146      1505.1924      3725.1146     -4091.4805      139.98486     -2512.0829      44862.738     -32017.321     -396.92555      47647.08       36.253123      36.253123      36.253123      1.2564489     -379.38348     -1887.1069      800.2461     
      6600   6600           299.20544      2399.3961      16712.591      15042.284      3429.8523      11612.432      1500.0956      3698.8961     -4070.9679      144.48349     -2498.0416      44851.954     -32013.988     -396.2113       47732.973      36.274895      36.274895      36.274895      1.254188       2921.44        2918.0295      1358.7189    
      6700   6700           296.85398      1478.5474      16064.23       15034.412      3402.8971      11631.515      1472.9586      3732.5918     -4062.1129      156.18337     -2536.502       44885.338     -32016.942     -396.00079      47758.348      36.281321      36.281321      36.281321      1.2535216      1427.2176      924.83197      2083.5926    
      6800   6800           302.9096       2070.2974      16526.629      15086.576      3472.3139      11614.262      1506.8736      3732.9288     -4062.8672      131.86534     -2549.6094      44874.835     -32019.765     -396.52934      47694.688      36.265194      36.265194      36.265194      1.2551947      2044.979       2808.1073      1357.8058    
      6900   6900           306.27504      1031.5732      15874.592      15156.677      3510.8926      11645.785      1472.6555      3698.0593     -4091.7236      163.83964     -2460.1583      44879.191     -32016.079     -396.32243      47719.588      36.271504      36.271504      36.271504      1.2545398      2206.3185     -187.64034      1076.0415    
      7000   7000           305.44079      2500.2849      16900.85       15155.349      3501.3294      11654.019      1478.7273      3714.354      -4068.2301      156.71072     -2448.2195      44839.741     -32019.064     -395.08511      47869.037      36.30933       36.30933       36.30933       1.2506231      1540.7142      3052.4863      2907.6543    
      7100   7100           296.6076       966.57048      15711.5        15035.57       3400.0727      11635.498      1539.4897      3702.4676     -4101.7334      145.93358     -2489.69        44858.509     -32019.479     -394.41507      47950.357      36.329879      36.329879      36.329879      1.2485021     -91.832688      624.10037      2367.4437    
      7200   7200           294.49268      2369.2639      16660.161      15003.432      3375.8291      11627.603      1515.4647      3702.6444     -4102.1601      146.0788      -2501.3727      44885.75      -32018.802     -394.44192      47947.094      36.329055      36.329055      36.329055      1.2485871      2583.9104      3213.3082      1310.5731    
      7300   7300           299.33142      787.15768      15581.969      15031.766      3431.2965      11600.47       1467.946       3737.0047     -4083.6585      143.53464     -2506.8614      44860.054     -32017.55      -394.6023       47927.606      36.324132      36.324132      36.324132      1.2490948      2391.7519     -307.51931      277.24046    
      7400   7400           306.20248      2088.8239      16590.056      15135.723      3510.0608      11625.662      1578.0598      3689.3186     -4090.3959      142.29342     -2528.8435      44852.244     -32017.014     -396.14953      47740.416      36.27678       36.27678       36.27678       1.2539925      1016.5466      2891.9123      2358.0127    
      7500   7500           306.21574      2647.7106      17001.469      15168.266      3510.2129      11658.053      1464.8895      3765.4683     -4049.3972      137.21839     -2500.998       44860.074     -32019.202     -398.36507      47474.905      36.209403      36.209403      36.209403      1.2610056      2799.7603      3865.9462      1277.4253    
      7600   7600           305.15711      902.56853      15729.241      15104.85       3498.0776      11606.772      1559.6852      3671.7313     -4061.2719      155.80791     -2533.9408      44837.43      -32022.669     -398.69887      47435.157      36.199295      36.199295      36.199295      1.2620623      1522.6377      1496.2911     -311.22319    
      7700   7700           306.01932      1964.6812      16419.099      15059.942      3507.9612      11551.981      1457.3124      3740.3734     -4080.5608      149.69122     -2543.9434      44852.857     -32023.749     -398.69793      47435.269      36.199324      36.199324      36.199324      1.2620593      2248.0326      2533.091       1112.92      
      7800   7800           297.59537      2946.8302      17055.469      15014.227      3411.3958      11602.832      1531.6594      3669.596      -4091.3996      145.30933     -2468.2197      44833.614     -32017.728     -398.18235      47496.69       36.214941      36.214941      36.214941      1.2604272      3052.1208      3487.8664      2300.5034    
      7900   7900           300.92102      888.71505      15621.455      15003.458      3449.5184      11553.939      1492.2354      3712.5563     -4142.1963      139.08274     -2499.9994      44867.209     -32014.949     -396.64047      47681.325      36.261807      36.261807      36.261807      1.2555465      908.18144      704.56571      1053.398     
      8000   8000           298.60912      1604.2087      16156.5        15036.311      3423.0166      11613.295      1467.2578      3767.7043     -4111.034       138.14582     -2488.5628      44851.732     -32011.948     -394.99445      47880.023      36.312107      36.312107      36.312107      1.2503361      2570.8957      1965.2699      276.46062    
      8100   8100           304.69092      2032.6179      16553.112      15134.839      3492.7335      11642.106      1519.139       3695.4492     -4126.6708      169.26157     -2477.9131      44874.802     -32011.962     -395.29123      47844.076      36.303017      36.303017      36.303017      1.2512755      2514.8367      2167.0279      1415.9892    
      8200   8200           305.13926      2430.8299      16830.689      15138.619      3497.8729      11640.746      1508.7887      3734.1238     -4141.6211      152.47494     -2485.2255      44883.062     -32010.856     -396.23933      47729.597      36.27404       36.27404       36.27404       1.2542767      1773.9425      3476.802       2041.7452    
      8300   8300           299.90541      159.13922      15146.192      15035.473      3437.8762      11597.597      1484.3503      3830.9143     -4138.658       133.52525     -2548.0481      44843.988     -32008.474     -396.44073      47705.349      36.267896      36.267896      36.267896      1.2549142      150.25993      1554.2513     -1227.0936    
      8400   8400           296.37524      2678.2634      16880.017      15023.555      3397.4092      11626.146      1491.3951      3735.9069     -4095.6227      135.40313     -2504.0658      44869.682     -32006.552     -397.91322      47528.814      36.223104      36.223104      36.223104      1.2595753      2108.4689      3462.0875      2464.2338    
      8500   8500           297.0221       1039.844       15765.723      15045.808      3404.8242      11640.983      1504.4428      3741.5848     -4085.6014      154.3257      -2479.4988      44824.037     -32018.307     -398.38967      47471.972      36.208658      36.208658      36.208658      1.2610835      2320.6174      891.07828     -92.163682    
      8600   8600           305.03177      3474.4068      17483.378      15077.414      3496.6408      11580.773      1434.5763      3770.4149     -4092.2991      141.6659      -2483.2411      44832.64      -32022.984     -398.30215      47482.403      36.21131       36.21131       36.21131       1.2608065      3921.0925      4246.5316      2255.5961    
      8700   8700           298.2227       158.1947       15174.216      15064.534      3418.587       11645.946      1576.2524      3720.4585     -4097.1637      146.26716     -2551.7907      44856.025     -32004.102     -397.80963      47541.191      36.226248      36.226248      36.226248      1.2592474      1145.5034     -146.15814     -524.76117    
      8800   8800           300.31752      2369.8469      16632.708      14989.759      3442.6003      11547.159      1422.7081      3727.7522     -4067.6164      151.41028     -2555.1933      44878.375     -32010.277     -397.84829      47536.571      36.225074      36.225074      36.225074      1.2593698      2804.4088      2120.8925      2184.2396    
      8900   8900           290.86505      2065.106       16379.075      14946.464      3334.2448      11612.22       1462.5198      3749.6381     -4093.6416      120.15481     -2470.6694      44858.766     -32014.548     -397.58985      47567.47       36.232921      36.232921      36.232921      1.2585517      1469.4262      3026.7683      1699.1233    
      9000   9000           293.29587      1603.9549      16132.809      15017.954      3362.1098      11655.844      1561.6944      3704.3788     -4077.1943      148.85745     -2465.6791      44800.347     -32016.559     -396.82128      47659.6        36.256299      36.256299      36.256299      1.2561189      1625.3183      2648.8987      537.64766    
      9100   9100           304.65792      549.93148      15484.865      15102.271      3492.3553      11609.915      1514.3506      3750.3069     -4072.7509      150.8641      -2492.5957      44776.569     -32016.829     -396.45224      47703.965      36.267545      36.267545      36.267545      1.2549507      2134.0484      42.357074     -526.61104    
      9200   9200           303.43303      1221.9637      15934.123      15084.868      3478.3141      11606.554      1523.441       3700.6423     -4084.525       149.95741     -2508.9472      44845.179     -32019.193     -396.86385      47654.487      36.255002      36.255002      36.255002      1.2562536      2674.2638      381.09262      610.53465    
      9300   9300           301.36223      1763.1213      16267.105      15042.575      3454.5761      11587.999      1518.9082      3714.9303     -4119.3532      138.33992     -2527.186       44879.475     -32017.115     -397.13129      47622.396      36.246862      36.246862      36.246862      1.2571002      1092.8087      1336.8338      2859.7215    
      9400   9400           301.42584      1554.0149      16075.87       14997.392      3455.3053      11542.086      1416.7755      3759.1381     -4104.0793      153.43        -2569.876       44900.009     -32013.311     -397.43395      47586.13       36.237659      36.237659      36.237659      1.2580582      2032.0454      2654.2594     -24.260074    
      9500   9500           292.74758      2549.7366      16659.537      14890.121      3355.8247      11534.297      1458.9911      3677.1166     -4085.7797      162.83359     -2541.6026      44879.131     -32016.394     -397.45377      47583.756      36.237056      36.237056      36.237056      1.258121       3722.4691      3057.6482      869.09263    
      9600   9600           291.58933      1511.0996      15882.362      14834.642      3342.5474      11492.095      1418.6841      3756.1235     -4108.7967      154.28264     -2584.6626      44869.678     -32013.214     -397.80402      47541.861      36.226418      36.226418      36.226418      1.2592297      470.17656      1930.0068      2133.1154    
      9700   9700           296.72708      744.96141      15433.235      14917.712      3401.4424      11516.269      1500.2298      3655.1874     -4097.8717      133.83628     -2554.5261      44886.706     -32007.292     -398.57201      47450.255      36.203135      36.203135      36.203135      1.2616607      1.4797864      2718.9367     -485.53223    
      9800   9800           297.7411       1072.5831      15723.1        14981.574      3413.0664      11568.508      1484.975       3758.6836     -4098.0184      146.90699     -2577.0253      44866.859     -32013.873     -398.95668      47404.504      36.191496      36.191496      36.191496      1.2628784      2034.3124      858.48232      324.95452    
      9900   9900           299.86578      1572.079       16119.14       15032.743      3437.422       11595.321      1439.3122      3769.4855     -4040.7379      145.41313     -2578.006       44875.488     -32015.634     -399.12323      47384.722      36.186461      36.186461      36.186461      1.2634056      2102.0495      268.75527      2345.4323    
     10000   10000          299.77829      836.71255      15657.652      15078.188      3436.419       11641.769      1445.5657      3731.227      -4054.3625      150.49493     -2535.4954      44921.117     -32016.778     -398.26405      47486.946      36.212464      36.212464      36.212464      1.2606859      562.0566       2319.5252     -371.44412    
     10100   10100          301.12688      1651.7592      16271.206      15120.82       3451.8782      11668.942      1517.9711      3801.4338     -4103.5958      152.0297      -2571.5674      44885.557     -32012.886     -396.02684      47755.206      36.280526      36.280526      36.280526      1.2536041      2167.333       1678.8214      1109.1232    
     10200   10200          302.48758      596.48936      15573.788      15156.507      3467.4761      11689.031      1428.6423      3798.4319     -4048.4494      141.0572      -2499.4483      44886.594     -32017.796     -394.2712       47967.855      36.334297      36.334297      36.334297      1.2480467      1794.4364     -372.26394      367.29561    
     10300   10300          301.44351      2519.7868      16881.819      15114.734      3455.5078      11659.227      1554.2044      3718.2476     -4118.8566      148.62792     -2473.065       44854.189     -32024.12      -393.30342      48085.886      36.364075      36.364075      36.364075      1.2449832      2876.6439      2006.0182      2676.6984    
     10400   10400          298.46919     -110.70719      14940.993      15018.522      3421.4125      11597.109      1446.2673      3755.8287     -4040.5399      118.39303     -2559.2008      44890.517     -32014.156     -393.85452      48018.601      36.347106      36.347106      36.347106      1.2467277      585.2591      -242.305       -675.07567    
     10500   10500          298.65091      1634.1864      16131.328      14993.866      3423.4957      11570.37       1495.1442      3699.8704     -4104.3069      154.2723      -2532.6979      44875.37      -32017.282     -396.26498      47726.507      36.273257      36.273257      36.273257      1.2543579     -1378.5346      3817.3477      2463.746     
     10600   10600          297.35723      3086.5888      17172.649      15036.904      3408.666       11628.238      1480.0166      3731.9662     -4105.6138      162.43817     -2523.7292      44899.488     -32016.328     -398.61222      47445.468      36.201918      36.201918      36.201918      1.261788       3574.7191      3870.5127      1814.5347    
     10700   10700          305.9032       1861.774       16435.328      15148.442      3506.6301      11641.811      1471.9094      3777.8805     -4052.9611      136.25086     -2539.4671      44856.338     -32008.139     -399.03222      47395.53       36.189212      36.189212      36.189212      1.2631175      2638.3881      2564.8705      382.06323    
     10800   10800          301.72495      673.44772      15633.861      15167.69       3458.734       11708.956      1577.9427      3769.0814     -4046.5663      132.14554     -2544.5632      44836.467     -32015.552     -398.45555      47464.124      36.206662      36.206662      36.206662      1.2612921      3317.0907     -924.13387     -372.61367    
     10900   10900          300.59046      1543.7301      16171.138      15099.88       3445.7291      11654.151      1550.4211      3778.8449     -4077.7771      146.39775     -2573.3743      44847.875     -32018.236     -397.46461      47582.459      36.236727      36.236727      36.236727      1.2581553     -656.33171      2816.6425      2470.8794    
     11000   11000          298.16355      2333.2296      16683.063      15061.597      3417.909       11643.688      1475.2537      3736.4216     -4054.5732      153.59177     -2517.9487      44868.841     -32017.899     -396.89063      47651.272      36.254187      36.254187      36.254187      1.2563384      4082.4222      2951.3714     -34.104823    
     11100   11100          295.51095      1291.3128      15932.006      15033.101      3387.5017      11645.6        1549.5757      3742.3793     -4104.1975      162.00536     -2514.7084      44829.655     -32019.11      -396.22235      47731.642      36.274558      36.274558      36.274558      1.254223       1466.3461      2246.037       161.55522    
     11200   11200          299.00084      1264.5242      15882.567      15002.425      3427.507       11574.918      1463.8484      3713.9839     -4076.8303      155.14212     -2497.4846      44837.908     -32021.649     -396.27388      47725.436      36.272985      36.272985      36.272985      1.2543861      262.11635      1857.8187      1673.6374    
     11300   11300          295.27233      2346.8388      16620.387      14989.066      3384.7663      11604.3        1518.4586      3719.172      -4118.7529      142.09584     -2476.2565      44841.008     -32021.425     -396.79387      47662.892      36.257133      36.257133      36.257133      1.2560321      1154.9928      2919.6416      2965.8819    
     11400   11400          299.87739      2009.5728      16408.014      15012.152      3437.5551      11574.597      1483.4615      3722.1374     -4119.8887      152.89543     -2500.2413      44856.08      -32019.847     -397.08415      47628.049      36.248296      36.248296      36.248296      1.256951       970.34352      1746.524       3311.8508    
     11500   11500          306.92652      544.01317      15482.413      15104.407      3518.3606      11586.047      1519.2549      3743.8686     -4059.803       146.7585      -2602.4403      44859.231     -32020.823     -396.94679      47644.53       36.252477      36.252477      36.252477      1.2565162     -354.47659      1448.5126      538.00351    
     11600   11600          304.76091      1442.606       16124.7        15122.6        3493.5358      11629.064      1492.5019      3733.7744     -4063.8945      155.29512     -2495.2352      44834.801     -32028.179     -397.06138      47630.78       36.248989      36.248989      36.248989      1.2568789      2240.8451      829.00633      1257.9664    
     11700   11700          300.65819      1079.8339      15789.755      15039.998      3446.5055      11593.492      1470.9643      3730.0733     -4048.4116      153.64203     -2546.6646      44850.309     -32016.42      -397.24395      47608.89       36.243435      36.243435      36.243435      1.2574568      1467.665       242.73955      1529.0971    
     11800   11800          292.91569      1766.6934      16196.29       14972.832      3357.7517      11615.08       1517.6712      3722.2833     -4090.9465      159.42257     -2525.7665      44845.043     -32012.627     -398.28437      47484.523      36.211848      36.211848      36.211848      1.2607502      2303.6216      2401.4023      595.05649    
     11900   11900          299.00468      1351.2638      15938.159      15005.632      3427.551       11578.081      1390.3567      3795.0262     -4023.7392      137.80496     -2599.0824      44894.732     -32017.016     -399.66884      47320.035      36.169987      36.169987      36.169987      1.2651327      1862.8131      1405.6825      785.29594    
     12000   12000          296.73206      1897.5733      16340.228      15030.455      3401.4995      11628.956      1462.1365      3809.3152     -4098.4945      152.40095     -2543.343       44865.615     -32018.674     -399.59844      47328.372      36.172111      36.172111      36.172111      1.2649098      2783.2822      1201.6747      1707.7628    
     12100   12100          299.83189      897.71643      15695.881      15074.043      3437.0335      11637.01       1489.5627      3836.5628     -4079.1793      133.27612     -2589.6081      44868.917     -32022.521     -398.18342      47496.561      36.214908      36.214908      36.214908      1.2604307      1168.985       955.70982      568.45452    
     12200   12200          302.73518      1933.2902      16516.294      15172.638      3470.3145      11702.324      1523.813       3796.3822     -4060.839       162.10214     -2595.7453      44901.918     -32025.307     -396.85348      47655.733      36.255318      36.255318      36.255318      1.2562208      2436.3823      1756.9989      1606.4892    
     12300   12300          308.64462      924.37717      15836.898      15193.25       3538.0556      11655.194      1522.3328      3767.3012     -4098.0653      138.1068      -2521.3495      44860.41      -32013.541     -396.11568      47744.496      36.277814      36.277814      36.277814      1.2538853      1370.4768     -209.6227       1612.2774    
     12400   12400          298.3816       1188.5684      15877.677      15051.102      3420.4085      11630.694      1531.2228      3714.3899     -4085.2339      153.03952     -2534.7118      44866.404     -32014.417     -396.60964      47685.032      36.262746      36.262746      36.262746      1.2554489      31.234415      2039.5367      1494.9341    
     12500   12500          296.88132      2570.0902      16803.176      15021.366      3403.2105      11618.155      1450.9926      3744.8973     -4067.4819      153.97151     -2503.2157      44861.382     -32022.391     -397.8397       47537.597      36.225335      36.225335      36.225335      1.2593426      2543.7346      2676.9066      2489.6296    
     12600   12600          301.55111      726.66184      15527.653      15024.014      3456.7413      11567.273      1449.2906      3726.9115     -4110.2453      170.18769     -2499.7107      44843.009     -32012.17      -397.95534      47523.783      36.221826      36.221826      36.221826      1.2597087      1604.6216      178.68636      396.67752    
     12700   12700          300.38552      2385.9653      16664.334      15012.892      3443.3799      11569.512      1429.1157      3747.6935     -4072.4565      142.86729     -2488.8243      44830.344     -32019.227     -398.49428      47459.51       36.205489      36.205489      36.205489      1.2614147      2843.2386      2217.0576      2097.5998    
     12800   12800          300.8213       3447.1891      17391.168      15006.962      3448.3752      11558.586      1475.3159      3734.6211     -4139.1938      158.13172     -2515.7483      44866.644     -32021.184     -398.78834      47424.515      36.196588      36.196588      36.196588      1.2623455      3556.3521      3986.5748      2798.6405    
     12900   12900          299.37279      705.04304      15484.737      14996.59       3431.7707      11564.82       1470.5359      3731.1085     -4080.8069      142.67271     -2563.5047      44882.832     -32018.018     -398.36977      47474.344      36.209261      36.209261      36.209261      1.2610205      548.99523      927.99763      638.13624    
     13000   13000          296.39745      1869.3358      16301.208      15004.481      3397.6637      11606.818      1441.9637      3729.1057     -4056.6495      137.07294     -2508.5573      44879.37      -32015.488     -397.61267      47564.74       36.232228      36.232228      36.232228      1.258624       1641.4066      1376.8782      2589.7224    
     13100   13100          302.16493      1782.3358      16314.03       15074.738      3463.7776      11610.96       1494.4456      3679.6785     -4039.0724      171.52388     -2523.024       44847.269     -32019.861     -396.67711      47676.922      36.260691      36.260691      36.260691      1.2556625      2872.7961      2940.5473     -466.33612    
     13200   13200          304.10255      1139.3737      15927.737      15134.001      3485.9889      11648.012      1499.7161      3756.8115     -4059.2551      147.22113     -2530.7456      44853.126     -32018.862     -395.92388      47767.625      36.283671      36.283671      36.283671      1.2532782      1996.2445     -734.74494      2156.6216    
     13300   13300          300.93029      1402.898       16097.369      15119.995      3449.6246      11670.37       1463.6706      3812.9459     -4085.1683      137.07254     -2523.8694      44879.964     -32014.245     -395.9008       47770.41       36.284376      36.284376      36.284376      1.2532051      1538.2295      2424.375       246.08952    
     13400   13400          291.17452      1449.8349      16000.845      14991.01       3337.7923      11653.217      1503.3681      3759.1221     -4076.992       139.83314     -2502.4433      44847.695     -32017.365     -395.99452      47759.104      36.281513      36.281513      36.281513      1.2535018      1285.1425      1819.7309      1244.6312    
     13500   13500          294.7369       1419.7314      15957.005      14968.899      3378.6286      11590.27       1470.6871      3713.079      -4065.735       139.95897     -2543.2053      44891.667     -32016.182     -396.29978      47722.317      36.272195      36.272195      36.272195      1.2544681      2543.9809      1346.9204      368.29276    
     13600   13600          298.04797      1349.816       15949.268      15011.547      3416.584       11594.963      1444.8917      3742.62       -4093.058       143.52575     -2505.7357      44876.082     -32013.363     -397.02902      47634.663      36.249974      36.249974      36.249974      1.2567764      1019.5827      645.384        2384.4812    
     13700   13700          304.57965      967.05839      15761.746      15091.063      3491.458       11599.605      1483.0791      3674.1376     -4043.8544      150.00743     -2512.352       44869.547     -32020.959     -397.70085      47554.194      36.22955       36.22955       36.22955       1.2589031      1508.9106      661.55564      730.70897    
     13800   13800          299.69584      2403.3117      16748.463      15084.962      3435.4739      11649.488      1482.166       3813.3056     -4097.7278      139.24344     -2542.4357      44870.624     -32015.687     -398.4815       47461.033      36.205876      36.205876      36.205876      1.2613742      3041.5861      2937.0359      1231.3132    
     13900   13900          300.60443      2482.4952      16755.238      15039.651      3445.8892      11593.762      1472.6344      3717.6867     -4086.89        158.36726     -2533.0791      44885.408     -32020.365     -399.11397      47385.822      36.186741      36.186741      36.186741      1.2633763      1805.0119      3568.736       2073.7379    
     14000   14000          300.06011      956.46913      15667.176      15006.205      3439.6496      11566.555      1472.809       3772.3157     -4066.2352      136.15659     -2581.1649      44851.608     -32018.934     -399.12582      47384.415      36.186383      36.186383      36.186383      1.2634138      775.6746       1315.8647      777.86811    
     14100   14100          295.37935      1704.2616      16172.785      14994.985      3385.9931      11608.992      1552.6928      3764.9536     -4089.8288      157.85181     -2581.0731      44826.778     -32022.382     -399.10393      47387.014      36.187045      36.187045      36.187045      1.2633445      1520.1734      3685.3007     -92.689417    
     14200   14200          296.3387       1861.9929      16339.434      15052.067      3396.9903      11655.077      1482.4905      3778.8574     -4098.7045      144.37808     -2476.5765      44847.34      -32022.708     -398.93022      47407.648      36.192296      36.192296      36.192296      1.2627946      2245.8786      1557.2701      1782.83      
     14300   14300          308.35698      1592.1067      16268.368      15163.048      3534.7583      11628.289      1501.7811      3753.683      -4093.7829      146.40983     -2535.3467      44868.683     -32013.138     -397.2879       47603.623      36.242098      36.242098      36.242098      1.2575959      1087.856       2087.5568      1600.9073    
     14400   14400          298.26501      2090.8399      16583.214      15125.132      3419.072       11706.06       1466.5216      3851.6588     -4111.2518      158.71187     -2502.2147      44858.019     -32015.385     -395.51248      47817.312      36.296247      36.296247      36.296247      1.2519759      2082.3585      3765.4698      424.69137    
     14500   14500          294.16623      904.63221      15693.842      15062.137      3372.0868      11690.05       1560.5221      3769.4733     -4075.1809      140.17246     -2525.4912      44834.496     -32013.941     -394.98359      47881.34       36.31244       36.31244       36.31244       1.2503017     -630.0707       1661.7515      1682.2158    
     14600   14600          303.31191      1710.9314      16218.627      15027.034      3476.9256      11550.108      1469.6886      3742.1948     -4104.7002      132.19814     -2549.2349      44874.768     -32014.807     -396.02798      47755.068      36.280491      36.280491      36.280491      1.2536077      1957.0859      102.40642      3073.302     
     14700   14700          298.49641      1425.5664      16018.851      15030.155      3421.7246      11608.431      1499.337       3682.7049     -4036.3337      139.21479     -2526.8175      44870.501     -32020.176     -397.69126      47555.341      36.229841      36.229841      36.229841      1.2588727      1477.8971      2387.239       411.56307    
     14800   14800          300.9131       1859.3896      16390.869      15105.588      3449.4276      11656.16       1469.1762      3752.6133     -4041.4653      157.54489     -2529.4341      44868.822     -32021.097     -399.01891      47397.11       36.189614      36.189614      36.189614      1.2630754      1836.1884      1996.9056      1745.0748    
     14900   14900          308.382        2620.0612      17035.917      15224.77       3535.0451      11689.725      1479.5352      3794.8577     -4046.2655      158.6521      -2526.7405      44854.708     -32025.022     -399.00567      47398.683      36.190015      36.190015      36.190015      1.2630335      2245.7468      3092.4497      2521.9873    
     15000   15000          306.00834      1220.7204      16025.908      15178.92       3507.8354      11671.085      1477.0036      3795.5401     -4076.7212      161.22266     -2548.591       44878.98      -32016.35      -397.52138      47575.664      36.235002      36.235002      36.235002      1.258335       1939.295       2831.3883     -1108.5222    
     15100   15100          304.3737       1263.8853      15971.576      15090.881      3489.0971      11601.784      1481.3456      3751.131      -4072.6638      135.70601     -2546.089       44864.446     -32012.091     -395.82508      47779.548      36.286689      36.286689      36.286689      1.2529654      1225.408       2099.3741      466.87394    
     15200   15200          305.47784      1768.5182      16279.235      15043.474      3501.7541      11541.72       1465.6952      3683.2643     -4074.4458      145.43263     -2547.1839      44890.932     -32021.974     -394.72648      47912.527      36.320322      36.320322      36.320322      1.2494879      1755.2498      424.93094      3125.3737    
     15300   15300          299.64163      809.87236      15561.448      14996.009      3434.8525      11561.157      1487.3573      3738.118      -4105.8706      135.61055     -2554.7037      44877.199     -32016.554     -395.05018      47873.268      36.310399      36.310399      36.310399      1.2505125     -1035.2607      2041.4723      1423.4055    
     15400   15400          295.5804       1250.3164      15826.476      14956.735      3388.2978      11568.437      1485.0403      3704.7517     -4120.3273      159.39856     -2519.5986      44872.478     -32013.305     -396.50735      47697.333      36.265864      36.265864      36.265864      1.2551251      2135.7141      1866.5281     -251.29294    
     15500   15500          301.80783      1790.024       16220.899      14981.8        3459.6841      11522.116      1407.3925      3741.2335     -4096.0041      142.02859     -2524.768       44874.961     -32022.728     -398.4504       47464.737      36.206818      36.206818      36.206818      1.2612758     -40.174515      2718.1302      2692.1164    
     15600   15600          303.80735      3020.0107      17186.945      15099.947      3482.605       11617.342      1509.1007      3750.2499     -4093.6656      150.80895     -2520.9373      44847.358     -32025.572     -399.12385      47384.648      36.186442      36.186442      36.186442      1.2634075      901.70683      4208.2415      3950.0838    
     15700   15700          301.67444      763.94616      15650.171      15121.373      3458.155       11663.218      1472.012       3763.9386     -4037.0105      136.95865     -2508.8376      44850.867     -32014.711     -398.46819      47462.618      36.206279      36.206279      36.206279      1.2613321      631.1371       1333.1275      327.57386    
     15800   15800          298.2899       1539.1255      16109.489      15038.44       3419.3573      11619.082      1513.4743      3729.1753     -4103.2194      160.96417     -2492.597       44829.361     -32018.076     -396.35625      47715.517      36.270472      36.270472      36.270472      1.2546468      1333.8512      1647.7852      1635.7399    
     15900   15900          293.45751      1355.4247      15928.089      14980.219      3363.9627      11616.256      1506.0729      3724.3202     -4110.3823      147.08562     -2509.1484      44869.946     -32011.638     -394.40974      47951.005      36.330042      36.330042      36.330042      1.2484853      2054.977       2079.9769     -68.679884    
     16000   16000          297.64199      1719.5087      16204.653      15000.956      3411.9302      11589.025      1507.6594      3684.0597     -4099.6188      156.33283     -2531.2286      44879.643     -32007.822     -394.01082      47999.553      36.342299      36.342299      36.342299      1.2472225      3541.2347      934.97842      682.31291    
     16100   16100          295.11842     -209.11364      14896.31       15042.058      3383.002       11659.056      1465.4682      3744.7896     -4039.3118      141.68161     -2519.7721      44882.205     -32016.004     -395.73212      47790.771      36.28953       36.28953       36.28953       1.2526712      980.00615     -742.85343     -864.49365    
     16200   16200          304.1392       1793.8539      16329.731      15087.228      3486.409       11600.819      1509.9493      3747.4978     -4055.8038      150.92382     -2574.4285      44846.652     -32023.972     -398.20871      47493.545      36.214142      36.214142      36.214142      1.2605107      1393.5229      1558.6695      2429.3694    
     16300   16300          304.8815       2107.4399      16580.777      15130.547      3494.9181      11635.629      1434.434       3695.7516     -4036.0937      155.41639     -2499.1089      44906.017     -32020.788     -400.81086      47185.207      36.135602      36.135602      36.135602      1.2687477      1741.8547      2800.8021      1779.6628    
     16400   16400          307.22121      2195.3038      16652.543      15143.687      3521.7387      11621.948      1501.5416      3747.2193     -4086.8162      154.70239     -2559.0242      44886.698     -32022.373     -401.2988       47127.834      36.12095       36.12095       36.12095       1.2702922      3218.2901      2838.8583      528.76295    
     16500   16500          302.363        726.41547      15539.274      15038.718      3466.0481      11572.67       1469.3699      3790.9715     -4087.322       156.45441     -2589.2676      44856.891     -32024.427     -400.27042      47248.916      36.151857      36.151857      36.151857      1.267037       1684.2038      423.10333      71.93923     
     16600   16600          294.0185       1290.6909      15864.42       14972.295      3370.3934      11601.902      1509.7652      3820.4308     -4110.6449      143.23553     -2609.3934      44863.932     -32015.424     -399.0414       47394.44       36.188935      36.188935      36.188935      1.2631465     -63.4582        2780.2502      1155.2808    
     16700   16700          298.26188      2212.0845      16513.283      14984.753      3419.0362      11565.717      1530.4174      3687.5123     -4101.7955      156.8108      -2551.3394      44854.812     -32010.7       -399.16189      47380.133      36.185293      36.185293      36.185293      1.263528       2424.0537      2988.4589      1223.7409    
     16800   16800          302.23936      204.92809      15196.367      15054.571      3464.6308      11589.941      1489.6909      3724.5128     -4118.6232      171.06956     -2547.1009      44889.286     -32018.895     -398.62114      47444.407      36.201648      36.201648      36.201648      1.2618162      893.83078      78.032065     -357.07856    
     16900   16900          311.35472      1641.7917      16262.176      15121.807      3569.122       11552.685      1440.8516      3754.5014     -4124.5515      160.60637     -2544.3993      44880.512     -32014.835     -397.09427      47626.835      36.247988      36.247988      36.247988      1.256983       890.97587      790.32499      3244.0742    
     17000   17000          306.63221      786.98267      15644.827      15096.619      3514.9869      11581.632      1553.0575      3725.8817     -4118.6248      151.51499     -2570.0389      44856.408     -32016.566     -395.95058      47764.404      36.282855      36.282855      36.282855      1.2533627     -804.20929      1585.9912      1579.1661    
     17100   17100          296.73534      1599.6775      16148.193      15033.481      3401.5371      11631.944      1496.5189      3735.9393     -4083.0838      148.57314     -2507.3325      44866.951     -32025.622     -395.81391      47780.896      36.28703       36.28703       36.28703       1.2529301      2917.5589      2201.0894     -319.61581    
     17200   17200          294.7625       1276.8402      15916.698      15027.19       3378.922       11648.268      1477.1274      3797.5391     -4122.042       173.09466     -2514.089       44862.534     -32025.896     -395.92029      47768.058      36.28378       36.28378       36.28378       1.2532668      611.58452      573.42752      2645.5086    
     17300   17300          301.42074      827.14322      15620.162      15044.118      3455.2468      11588.871      1483.2178      3779.7538     -4074.9235      141.05327     -2574.2534      44853.61      -32019.588     -396.04611      47752.883      36.279938      36.279938      36.279938      1.2536651     -32.271477      2443.6591      70.041989    
     17400   17400          296.18341      1739.7594      16257.155      15050.902      3395.2103      11655.692      1493.2304      3800.2886     -4069.2804      148.52907     -2588.8278      44892.391     -32020.639     -397.80667      47541.544      36.226337      36.226337      36.226337      1.2592381      2495.7073     -4.3431761      2727.9141    
     17500   17500          296.98916      2727.4279      16909.01       15027.75       3404.4466      11623.303      1499.778       3706.6874     -4071.5768      153.94794     -2527.1177      44882.529     -32020.945     -399.87642      47295.471      36.163727      36.163727      36.163727      1.2657898      1016.7996      3342.8231      3822.661     
     17600   17600          297.27028      1483.2807      15977.36       14955.304      3407.6693      11547.634      1504.449       3742.4883     -4090.3717      149.76601     -2572.6653      44835.077     -32021.109     -400.28549      47247.137      36.151404      36.151404      36.151404      1.2670847      1824.2583      1968.5699      657.01405    
     17700   17700          290.99891      2471.8587      16601.495      14894.352      3335.7792      11558.573      1462.1538      3698.1109     -4084.3026      154.93138     -2536.7844      44879.132     -32014.668     -399.36971      47355.478      36.179015      36.179015      36.179015      1.2641858      3302.9724      1872.7106      2239.8931    
     17800   17800          298.14506      924.28833      15634.106      14992.428      3417.697       11574.731      1472.8785      3790.1084     -4093.8742      148.38662     -2539.4594      44817.561     -32020.87      -397.29311      47602.999      36.24194       36.24194       36.24194       1.2576124      1376.5504      2148.9749     -752.66032    
     17900   17900          299.73809      743.07572      15574.563      15057.702      3435.9582      11621.743      1478.0502      3758.957      -4052.0007      144.50612     -2550.0696      44861.51      -32019.209     -396.5338       47694.152      36.265058      36.265058      36.265058      1.2552089      1471.5459     -54.829366      812.51062    
     18000   18000          301.21903      1780.1756      16315.977      15078.52       3452.9346      11625.586      1480.1131      3733.5451     -4007.1415      141.10062     -2570.7901      44867.021     -32018.263     -396.7839       47664.089      36.257437      36.257437      36.257437      1.2560005      1041.9474      2157.0035      2141.5759    
     18100   18100          301.97516      617.13029      15482.518      15054.502      3461.6022      11592.9        1527.7812      3714.9477     -4098.6875      141.33693     -2512.3022      44835.93      -32016.106     -397.68399      47556.21       36.230062      36.230062      36.230062      1.2588497      573.63195     -285.37123      1563.1301    
     18200   18200          296.79738      3338.638       17271.963      14961.022      3402.2483      11558.774      1432.9965      3662.6128     -4051.5985      151.45868     -2521.2605      44902.644     -32018.078     -398.47573      47461.72       36.206051      36.206051      36.206051      1.2613559      2842.6626      4117.8855      3055.3659    
     18300   18300          293.75991     -103.68063      14874.468      14946.353      3367.4291      11578.924      1461.829       3727.1784     -4074.7845      160.86812     -2549.354       44869.908     -32016.721     -397.81415      47540.651      36.226111      36.226111      36.226111      1.2592617     -105.87393     -560.7989       355.63093    
     18400   18400          297.33644      1881.5973      16310.193      15005.514      3408.4277      11597.086      1449.89        3699.5778     -4074.7293      155.89418     -2520.5134      44900.532     -32013.566     -397.78098      47544.615      36.227117      36.227117      36.227117      1.2591567      2504.5151      1219.4012      1920.8756    
     18500   18500          301.24596      3030.8633      17147.176      15043.526      3453.2432      11590.283      1405.2992      3768.9726     -4071.7786      147.68181     -2536.8696      44891.335     -32014.358     -397.38728      47591.718      36.239077      36.239077      36.239077      1.2579105      2538.2266      3319.8099      3234.5535    
     18600   18600          303.84639      1072.1802      15797.467      15051.619      3483.0526      11568.567      1546.8387      3607.9555     -4098.6591      145.85094     -2494.4045      44874.949     -32013.964     -396.49626      47698.668      36.266203      36.266203      36.266203      1.25509        520.109        2618.0955      78.335967    
     18700   18700          297.99023      535.55349      15406.471      15033.358      3415.9221      11617.436      1543.8104      3754.163      -4083.7386      157.75495     -2556.5223      44821.309     -32019.34      -395.89852      47770.684      36.284445      36.284445      36.284445      1.2531979      2515.5631     -2118.8914      1209.9887    
     18800   18800          302.95297      792.07815      15513.708      14963.827      3472.811       11491.016      1493.1355      3644.8219     -4101.1284      152.59323     -2521.0432      44837.868     -32015.231     -397.3018       47601.958      36.241676      36.241676      36.241676      1.2576399     -35.100823      278.69536      2132.6399    
     18900   18900          295.50182      2524.8904      16659.601      14916.809      3387.397       11529.412      1469.4723      3710.6391     -4111.3587      143.83531     -2516.0228      44848.561     -32015.714     -399.59329      47328.981      36.172266      36.172266      36.172266      1.2648935      1475.2347      3215.1371      2884.2993    
     19000   19000          295.82344      1644.1727      16148.667      15017.204      3391.0838      11626.121      1515.6387      3755.335      -4103.0835      156.40319     -2521.6986      44839.399     -32015.874     -400.80063      47186.411      36.135909      36.135909      36.135909      1.2687153      1223.243       2063.6186      1645.6566    
     19100   19100          306.24878      3081.4406      17216.294      15093.699      3510.5915      11583.108      1511.0577      3691.8476     -4081.5168      143.39642     -2498.1658      44835.849     -32019.36      -400.41273      47232.123      36.147574      36.147574      36.147574      1.2674874      3400.1342      1092.1354      4752.0523    
     19200   19200          302.44193      870.48138      15672.346      15070.615      3466.9529      11603.662      1430.972       3780.8251     -4078.5391      146.89364     -2508.2624      44852.629     -32020.856     -399.00493      47398.772      36.190037      36.190037      36.190037      1.2630311      1115.4391      431.40919      1064.5959    
     19300   19300          300.12139      1541.4241      16077.734      15007.004      3440.3521      11566.652      1562.8151      3745.1906     -4133.1001      147.3461      -2598.2006      44858.548     -32015.947     -397.06665      47630.149      36.248829      36.248829      36.248829      1.2568956     -113.09772      2659.9858      2077.3841    
     19400   19400          299.59504      993.79312      15660.741      14968.626      3434.3185      11534.307      1489.3257      3601.7131     -4035.0536      143.32954     -2516.5631      44876.227     -32024.671     -396.03961      47753.667      36.280136      36.280136      36.280136      1.2536445      50.678149      2550.2833      380.41788    
     19500   19500          300.38072      2322.4444      16640.085      15022.77       3443.3249      11579.445      1459.305       3787.054      -4116.5263      151.60849     -2532.3931      44848.775     -32018.378     -396.07002      47750          36.279208      36.279208      36.279208      1.2537408      1825.8398      1782.2328      3359.2606    
     19600   19600          304.6069      -157.52441      15019.096      15128.686      3491.7703      11636.916      1559.4518      3668.8119     -4047.1277      154.57267     -2551.0766      44874.811     -32022.527     -396.4578       47703.295      36.267375      36.267375      36.267375      1.2549683     -1900.7165      2189.974      -761.83075    
     19700   19700          305.94491      1415.4596      16118.606      15136.991      3507.1083      11629.883      1400.0123      3793.5418     -4032.661       158.98033     -2588.494       44915.955     -32017.451     -397.72016      47551.885      36.228964      36.228964      36.228964      1.2589642      1630.621       2679.0553     -63.297516    
     19800   19800          300.72101      1837.1255      16318.804      15049.37       3447.2256      11602.145      1561.1573      3710.465      -4095.5513      156.51244     -2553.8512      44842.48      -32019.068     -399.16286      47380.018      36.185264      36.185264      36.185264      1.263531       1551.4301      2842.1015      1117.8449    
     19900   19900          297.99913      2270.079       16567.728      15002.476      3416.0242      11586.452      1455.2829      3730.3653     -4093.472       154.79793     -2531.821       44890.114     -32018.816     -400.01644      47278.916      36.159507      36.159507      36.159507      1.266233       2714.1493      2511.4634      1584.6245    
     20000   20000          295.44826      1802.4012      16254.349      15009.578      3386.7831      11622.795      1523.1611      3735.6722     -4085.6502      151.59566     -2573.4045      44890.146     -32018.726     -399.37692      47354.623      36.178798      36.178798      36.178798      1.2642086      3297.3214      1244.3584      865.52383    
     20100   20100          302.06447      3257.1511      17298.107      15043.059      3462.6259      11580.433      1449.131       3734.8864     -4080.2446      156.03678     -2525.4066      44867.737     -32021.707     -398.3852       47472.506      36.208793      36.208793      36.208793      1.2610694      3145.8655      3815.3329      2810.255     
     20200   20200          303.65167      1202.5587      15947.994      15112.072      3480.8203      11631.251      1587.5438      3768.443      -4124.1422      135.74876     -2558.7662      44843.789     -32021.365     -396.79064      47663.28       36.257232      36.257232      36.257232      1.2560219      152.66748      1466.1567      1988.8519    
     20300   20300          308.57923      1012.8676      15881.247      15175.816      3537.306       11638.51       1559.9978      3726.5867     -4068.633       151.62169     -2539.4         44831.437     -32023.1       -396.02195      47755.796      36.280675      36.280675      36.280675      1.2535886      1182.0283      680.93167      1175.6428    
     20400   20400          303.51503      1190.2565      15919.797      15091.303      3479.254       11612.049      1468.6827      3767.3227     -4097.1609      156.72907     -2548.562       44881.541     -32016.504     -396.25285      47727.968      36.273627      36.273627      36.273627      1.2543195      3260.7186     -870.10617      1180.1571    
     20500   20500          299.51856      685.21237      15476.24       15000.597      3433.4417      11567.155      1536.1546      3740.1486     -4120.2529      131.96471     -2590.5908      44889.111     -32019.38      -397.34269      47597.059      36.240433      36.240433      36.240433      1.2577694      177.24968      2096.2003     -217.81288    
     20600   20600          300.53116      2879.9281      16988.905      14997.011      3445.0494      11551.961      1406.3821      3694.2799     -4065.2046      160.40771     -2530.0039      44906.129     -32020.029     -398.78292      47425.159      36.196752      36.196752      36.196752      1.2623283      2465.924       2691.7074      3482.1531    
     20700   20700          301.59662      144.63767      15146.452      15046.384      3457.2629      11589.121      1542.2503      3765.5149     -4125.9937      151.12774     -2603.4956      44871.977     -32012.26      -398.6649       47439.199      36.200323      36.200323      36.200323      1.2619548     -0.55862879    -757.87637      1192.348     
     20800   20800          305.83689      1440.562       16127.642      15131.533      3505.87        11625.663      1489.3424      3763.6619     -4064.6092      149.84434     -2554.0008      44860.791     -32019.366     -398.88389      47413.155      36.193697      36.193697      36.193697      1.2626479      589.64994      2543.2014      1188.8347    
     20900   20900          302.89522      3042.4728      17201.836      15099.542      3472.149       11627.393      1472.2145      3793.4185     -4060.9912      159.50139     -2580.7231      44862.582     -32018.61      -399.16673      47379.559      36.185147      36.185147      36.185147      1.2635433      3596.3715      2844.1344      2686.9124    
     21000   21000          293.92227      149.97336      15061.4        14957.694      3369.2903      11588.403      1542.9533      3659.3772     -4055.7353      146.44124     -2542.8145      44855.016     -32016.835     -398.86794      47415.05       36.19418       36.19418       36.19418       1.2625975     -98.17621       597.39096     -49.294653    
     21100   21100          297.19823      1681.0437      16117.288      14953.639      3406.8433      11546.796      1500.8896      3756.6314     -4107.1392      161.13386     -2578.9259      44838.984     -32024.778     -398.45422      47464.282      36.206702      36.206702      36.206702      1.2612879      1682.4137      1729.03        1631.6874    
     21200   21200          300.40606      1256.5238      15889.179      15021.562      3443.6153      11577.947      1457.9752      3734.7158     -4032.9191      151.72698     -2556.6743      44844.391     -32021.269     -399.45157      47345.773      36.176544      36.176544      36.176544      1.2644449      140.93893      2084.9488      1543.6836    
[...]
    495200   495200         297.5756       812.89635      15534.972      14973.219      3411.1692      11562.05       1474.0894      3731.3394     -4079.0558      148.63369     -2579.0013      44882.242     -32016.197     -399.12675      47384.304      36.186355      36.186355      36.186355      1.2634167      733.13273      2044.3627     -338.80637    
    495300   495300         299.34963      2531.8519      16756.534      15010.452      3431.5052      11578.947      1465.5955      3697.3085     -4063.6509      159.36123     -2550.0853      44891.382     -32020.964     -399.93996      47287.956      36.161812      36.161812      36.161812      1.2659909      3977.8274      2352.2152      1265.5131    
    495400   495400         299.34757      1635.0473      16168.689      15040.176      3431.4816      11608.694      1479.4835      3798.0737     -4111.8195      172.29948     -2544.5769      44835.865     -32020.631     -399.61795      47326.061      36.171522      36.171522      36.171522      1.2649716      1805.2732      1761.6014      1338.2674    
    495500   495500         299.35569      388.76266      15311.963      15043.482      3431.5747      11611.907      1524.6269      3723.9804     -4097.3571      160.14307     -2535.401       44849.81      -32013.895     -399.3862       47353.523      36.178517      36.178517      36.178517      1.264238       605.59834      589.80143     -29.111791    
    495600   495600         299.07932      2344.3539      16644.946      15028.257      3428.4066      11599.851      1452.0242      3745.3854     -4037.0617      154.60067     -2619.1319      44913.311     -32009.277     -399.96131      47285.432      36.161168      36.161168      36.161168      1.2660585      2276.7929      3084.4436      1671.8253    
    495700   495700         298.52925      1785.4222      16257.738      15027.119      3422.1011      11605.018      1523.7074      3677.7161     -4047.7924      161.89507     -2550.4131      44859.098     -32019.194     -400.16451      47261.421      36.155047      36.155047      36.155047      1.2667017      3413.9422      89.33335       1852.9911    
    495800   495800         300.99947      1328.9969      15960.794      15044.755      3450.4177      11594.337      1481.8362      3753.8399     -4071.9636      155.06942     -2597.1224      44893.075     -32020.397     -400.15771      47262.224      36.155251      36.155251      36.155251      1.2666802      1444.3939      2194.4212      348.17569    
    495900   495900         299.4902       1596.4575      16203.827      15103.96       3433.1167      11670.844      1519.5317      3759.3577     -4083.1854      168.00695     -2571.2742      44896.283     -32017.876     -400.34881      47239.664      36.149498      36.149498      36.149498      1.2672851      1468.7559      2224.2468      1096.3697    
    496000   496000         301.83951      2336.5054      16724.044      15112.739      3460.0473      11652.691      1529.1395      3789.5816     -4100.7835      176.16491     -2584.4889      44855.421     -32012.343     -399.95425      47286.267      36.161381      36.161381      36.161381      1.2660361      2207.0279      2638.1919      2164.2965    
    496100   496100         305.86905      1080.3617      15767.465      15021.749      3506.2386      11515.51       1485.3824      3684.8452     -4052.4239      146.26126     -2566.7243      44839.307     -32021.137     -399.59211      47329.121      36.172302      36.172302      36.172302      1.2648898      1657.3956     -107.95435      1691.6438    
    496200   496200         296.58838      731.3443       15467.71       14962.533      3399.8524      11562.681      1531.1134      3716.0104     -4103.5042      158.60898     -2575.6036      44844.926     -32008.87      -399.30029      47363.711      36.181112      36.181112      36.181112      1.263966       1096.9536      1078.5866      18.492771    
    496300   496300         296.23371      3117.7635      17134.66       14980.091      3395.7868      11584.304      1470.2976      3739.9508     -4107.1061      152.36967     -2508.2596      44847.141     -32010.09      -399.12037      47385.062      36.186548      36.186548      36.186548      1.2633965      2191.041       3953.7107      3208.5389    
    496400   496400         305.07109      719.17521      15522.155      15023.999      3497.0915      11526.908      1483.3967      3673.3021     -4068.5343      153.93435     -2570.8305      44864.669     -32009.029     -398.19064      47495.701      36.21469       36.21469       36.21469       1.2604535      940.2392       936.10994      281.17649    
    496500   496500         294.25733      1415.3666      16021.447      15039.606      3373.1311      11666.475      1483.737       3824.4355     -4103.3728      155.12252     -2521.3728      44842.855     -32014.93      -397.6024       47565.969      36.23254       36.23254       36.23254       1.2585915      2536.3767      1475.6279      234.09519    
    496600   496600         300.83594      1075.2532      15796.613      15051.414      3448.543       11602.871      1488.8465      3727.19       -4049.4881      141.69071     -2582.1294      44889.508     -32012.747     -397.97844      47521.025      36.221125      36.221125      36.221125      1.2597818      1076.0969      1159.4254      990.23746    
    496700   496700         298.50582      2196.8701      16597.371      15078.232      3421.8325      11656.4        1562.2186      3734.7345     -4062.3531      152.69789     -2565.3217      44852.378     -32017.954     -398.86706      47415.155      36.194206      36.194206      36.194206      1.2625947      1543.7701      3257.1753      1789.6648    
    496800   496800         301.36037      318.08488      15349.115      15129.869      3454.5547      11675.314      1471.3912      3737.4309     -4005.5042      173.47346     -2558.5506      44871.292     -32014.219     -400.15782      47262.211      36.155248      36.155248      36.155248      1.2666805      1482.9773      273.89022     -802.61285    
    496900   496900         311.63003      2369.0082      16819.957      15188.803      3572.278       11616.525      1468.0138      3777.6806     -4080.1829      144.12767     -2550.9344      44869.855     -32012.035     -400.58309      47212.036      36.142449      36.142449      36.142449      1.2680267      3281.7893      2541.9686      1283.2667    
    497000   497000         302.46345      2295.255       16678.394      15093.589      3467.1996      11626.389      1537.2807      3695.406      -4077.3086      153.01215     -2492.8726      44821.994     -32011.122     -399.46285      47344.437      36.176203      36.176203      36.176203      1.2644806      3272.5273      1860.949       1752.2885    
    497100   497100         300.67446      620.38407      15435.798      15005.532      3446.6921      11558.84       1470.9289      3761.9526     -4094.3249      170.11643     -2565.995       44833.289     -32017.128     -397.68966      47555.532      36.22989       36.22989       36.22989       1.2588677      1863.1861     -300.09029      298.05641    
    497200   497200         299.15729      2054.8347      16432.535      15004.678      3429.3004      11575.377      1446.4554      3761.0001     -4060.0098      137.42644     -2549.3081      44854.893     -32015.08      -396.92936      47646.622      36.253007      36.253007      36.253007      1.256461       3265.4621      791.863        2107.1789    
    497300   497300         302.79369      419.45086      15361.111      15069.617      3470.9852      11598.632      1537.8304      3766.3326     -4111.4822      143.02973     -2580.7608      44861.159     -32017.476     -396.89193      47651.116      36.254147      36.254147      36.254147      1.2563425     -556.63691      1939.6013     -124.61185    
    497400   497400         302.3889       2111.8639      16579.335      15114.262      3466.345       11647.917      1506.2043      3810.015      -4112.2636      147.96314     -2534.7809      44851.028     -32020.249     -397.58305      47568.284      36.233128      36.233128      36.233128      1.2585302      2595.8799      1675.5531      2064.1586    
    497500   497500         301.74231      582.21568      15473.25       15070.205      3458.933       11611.272      1490.8305      3748.593      -4099.4039      151.88287     -2540.289       44875.072     -32015.414     -398.42894      47467.293      36.207468      36.207468      36.207468      1.2612078      850.31969      654.89275      241.4346     
    497600   497600         294.72137      2360.0343      16587.686      14955.917      3378.4505      11577.467      1424.5483      3778.3556     -4062.9736      156.32915     -2584.1817      44884.177     -32018.787     -398.9156       47409.385      36.192738      36.192738      36.192738      1.2627483      3169.125       2082.1637      1828.8142    
    497700   497700         293.88578      1490.579       15987.182      14957.182      3368.872       11588.31       1494.7533      3688.3376     -4054.2742      140.39393     -2551.6842      44890.356     -32019.572     -399.15281      47381.21       36.185567      36.185567      36.185567      1.2634992      1202.2748      797.4226       2472.0396    
    497800   497800         295.68287      1740.5756      16247.742      15045.891      3389.4724      11656.419      1530.5997      3754.6038     -4030.0397      157.7739      -2586.5589      44847.076     -32017.036     -399.45088      47345.856      36.176565      36.176565      36.176565      1.2644427      754.28534      2749.5533      1717.8882    
    497900   497900         304.59701      567.98542      15476.091      15084.727      3491.657       11593.07       1431.2498      3790.3242     -4049.9786      144.43054     -2554.7316      44856.075     -32024.299     -400.29231      47246.332      36.151198      36.151198      36.151198      1.2671063     -235.73399     -195.97735      2135.6676    
    498000   498000         301.67747      1647.1859      16206.208      15070.986      3458.1897      11612.796      1497.0539      3783.634      -4053.3971      133.27006     -2598.7303      44866.62      -32015.654     -400.20548      47256.583      36.153813      36.153813      36.153813      1.2668314      1529.1524      1929.8272      1482.5781    
    498100   498100         304.00986      206.22184      15179.356      15037.132      3484.9264      11552.206      1486.218       3688.7269     -4033.4452      147.41586     -2581.6445      44865.374     -32020.439     -399.93106      47289.008      36.16208       36.16208       36.16208       1.2659627     -92.522827      1062.217      -351.02867    
    498200   498200         301.22291      2050.116       16412.463      14998.351      3452.9791      11545.372      1448.4216      3702.5494     -4048.0885      157.00804     -2588.5915      44897.205     -32023.133     -399.86713      47296.569      36.164007      36.164007      36.164007      1.2657604      4840.0695      74.731255      1235.5474    
    498300   498300         294.18419      1409.6853      15847.169      14873.452      3372.2927      11501.159      1399.8199      3694.6314     -4023.1082      145.58354     -2564.4058      44871.758     -32023.12      -399.31039      47362.512      36.180807      36.180807      36.180807      1.263998       1754.1512      2738.9277     -264.0229     
    498400   498400         292.27228      325.78173      15098.881      14873.151      3350.3762      11522.775      1452.4696      3658.4248     -4063.3078      162.75811     -2577.2567      44907.457     -32017.77      -398.07029      47510.061      36.218339      36.218339      36.218339      1.2600725      1084.2364     -515.17457      408.28336    
    498500   498500         293.00556      2021.3364      16386.311      14983.864      3358.7819      11625.082      1444.7985      3755.7415     -4031.1637      145.03401     -2534.0145      44862.504     -32017.817     -397.53322      47574.247      36.234642      36.234642      36.234642      1.2583725      1955.0828      675.99231      3432.9341    
    498600   498600         302.326        3676.7825      17590.993      15042.623      3465.6239      11577          1490.3385      3675.7948     -4123.2384      163.26267     -2511.5014      44898.729     -32016.386     -397.9484       47524.612      36.222036      36.222036      36.222036      1.2596867      3528.7711      3781.3564      3720.2199    
    498700   498700         301.60097      491.4549       15410.55       15070.089      3457.3128      11612.776      1434.9072      3748.9559     -4021.7564      164.167       -2577.0407      44877.773     -32014.23      -398.14179      47501.528      36.216171      36.216171      36.216171      1.2602989      576.44703      2978.1082     -2080.1906    
    498800   498800         302.33958      902.97635      15717.855      15092.845      3465.7796      11627.065      1485.6993      3810.037      -4100.8429      165.68166     -2589.4552      44873.795     -32017.849     -398.48393      47460.744      36.205803      36.205803      36.205803      1.2613819      1416.1018      118.25852      1174.5687    
    498900   498900         299.37435      3576.2315      17515.18       15047.75       3431.7886      11615.962      1479.8475      3733.4917     -4092.2113      137.07497     -2506.0465      44882.095     -32018.289     -399.76257      47308.94       36.16716       36.16716       36.16716       1.2654294      2991.0701      4802.5649      2935.0596    
    499000   499000         293.27315      1356.4108      15895.502      14960.105      3361.8493      11598.255      1447.3429      3790.6785     -4073.6344      144.49915     -2600.8396      44897.693     -32007.484     -399.95984      47285.606      36.161213      36.161213      36.161213      1.2660538      1865.2023      886.69519      1317.3349    
    499100   499100         298.47716      1711.9393      16156.787      14975.966      3421.5039      11554.462      1498.4975      3642.8902     -4063.8797      137.96242     -2530.0959      44878.79      -32009.703     -399.87604      47295.515      36.163738      36.163738      36.163738      1.2657886      769.07596      3352.4981      1014.2439    
    499200   499200         303.29673      2649.8588      16902.37       15076.165      3476.7516      11599.413      1489.5227      3743.4354     -4075.0046      129.90711     -2541.0926      44863.613     -32010.968     -400.21602      47255.338      36.153495      36.153495      36.153495      1.2668647      3908.5856      1596.9734      2444.0175    
    499300   499300         303.45924      2065.285       16525.841      15106.459      3478.6145      11627.844      1501.8226      3734.3822     -4055.9076      150.49545     -2534.993       44851.105     -32019.06      -401.33016      47124.152      36.120009      36.120009      36.120009      1.2703915      2618.8874      2633.7516      943.21598    
    499400   499400         303.61139      2497.1954      16783.267      15065.997      3480.3586      11585.639      1465.811       3772.1887     -4053.308       147.48039     -2575.5569      44844.887     -32015.864     -401.08384      47153.093      36.127402      36.127402      36.127402      1.2696118      2037.3376      3289.9705      2164.278     
    499500   499500         296.62198      771.42592      15556.939      15024.25       3400.2376      11624.012      1541.8458      3785.1773     -4061.1911      139.01956     -2592.6537      44824.955     -32013.14      -399.43099      47348.212      36.177165      36.177165      36.177165      1.2643798      579.79914      679.90543      1054.5732    
    499600   499600         301.06372      1461.8486      16005.763      14992.142      3451.1541      11540.988      1474.6303      3734.8456     -4061.0304      150.61953     -2599.9403      44853.884     -32012.022     -397.78473      47544.167      36.227004      36.227004      36.227004      1.2591686      1877.0545      837.41792      1671.0734    
    499700   499700         293.36113      55.440051      14987.595      14949.069      3362.8579      11586.211      1537.875       3763.3486     -4092.981       135.68899     -2597.257       44845.039     -32005.503     -396.9087       47649.103      36.253636      36.253636      36.253636      1.2563956     -445.59986      171.75566      440.16435    
    499800   499800         301.35126      1558.2257      16057.159      14977.222      3454.4504      11522.771      1539.815       3698.4316     -4166.5731      150.25692     -2529.1931      44844.457     -32014.423     -397.97246      47521.74       36.221306      36.221306      36.221306      1.2597629      634.38152      1748.3589      2291.9367    
    499900   499900         302.25522      2112.8211      16533.352      15073.72       3464.8126      11608.907      1454.5051      3774.0593     -4045.3113      154.01645     -2534.7919      44823.834     -32017.404     -399.2461       47370.139      36.182748      36.182748      36.182748      1.2637945      2717.3983      1114.1252      2506.9399    
    500000   500000         306.45976      1377.8794      16058.394      15106.936      3513.0101      11593.926      1519.7776      3675.195      -4076.622       155.64238     -2524.2355      44850.504     -32006.336     -399.43174      47348.124      36.177142      36.177142      36.177142      1.2643821      1483.9477      572.34423      2077.3464    
Loop time of 2005.12 on 1 procs for 500000 steps with 4520 atoms

Performance: 21.545 ns/day, 1.114 hours/ns, 249.361 timesteps/s, 1.127 Matom-step/s
100.0% CPU use with 1 MPI tasks x 1 OpenMP threads

MPI task timing breakdown:
Section |  min time  |  avg time  |  max time  |%varavg| %total
---------------------------------------------------------------
Pair    | 551.58     | 551.58     | 551.58     |   0.0 | 27.51
Bond    | 303.74     | 303.74     | 303.74     |   0.0 | 15.15
Kspace  | 625.72     | 625.72     | 625.72     |   0.0 | 31.21
Neigh   | 111.32     | 111.32     | 111.32     |   0.0 |  5.55
Comm    | 16.454     | 16.454     | 16.454     |   0.0 |  0.82
Output  | 5.7564     | 5.7564     | 5.7564     |   0.0 |  0.29
Modify  | 274.69     | 274.69     | 274.69     |   0.0 | 13.70
Other   |            | 115.9      |            |       |  5.78

Nlocal:           4520 ave        4520 max        4520 min
Histogram: 1 0 0 0 0 0 0 0 0 0
Nghost:          15362 ave       15362 max       15362 min
Histogram: 1 0 0 0 0 0 0 0 0 0
Neighs:              0 ave           0 max           0 min
Histogram: 1 0 0 0 0 0 0 0 0 0
FullNghs:  2.74588e+06 ave 2.74588e+06 max 2.74588e+06 min
Histogram: 1 0 0 0 0 0 0 0 0 0

Total # of neighbors = 2745884
Ave neighs/atom = 607.49646
Ave special neighs/atom = 5.5353982
Neighbor list builds = 16905
Dangerous builds = 0

# --- Cleanup ---
unfix npt_fix
unfix shake_fix
undump dump_npt

# --- Write Output ---
write_dump all custom /home/arz2/PolyJarvis/data/PLA4/lammps/mechanical/bm_series/bm_P1500/bm_P1500_last.dump id type mol x y z xu yu zu vx vy vz modify sort id
write_data /home/arz2/PolyJarvis/data/PLA4/lammps/mechanical/bm_series/bm_P1500/bm_P1500_out.data
System init for write_data ...
PPPM Kokkos initialization ...
  using 12-bit tables for long-range coulomb
  G vector (1/distance) = 0.33524298
  grid = 40 40 40
  stencil order = 5
  estimated absolute RMS force accuracy = 0.00041019339
  estimated relative force accuracy = 1.2352852e-06
  using double precision cuFFT
  3d grid and FFT values/proc = 103823 64000
Generated 21 of 21 mixed pair_coeff terms from sixthpower/sixthpower mixing rule

print "STAGE COMPLETE: NPT T=300.0->300.0K P=1500.0->1500.0atm steps=500000"
STAGE COMPLETE: NPT T=300.0->300.0K P=1500.0->1500.0atm steps=500000
quit
