LAMMPS data file via write_data, version 22 Jul 2025, timestep = 1000000, units = real

6420 atoms
4 atom types
6810 bonds
8 bond types
12000 angles
15 angle types
19110 dihedrals
24 dihedral types
5600 impropers
14 improper types

4.16493576709064 46.569749262900565 xlo xhi
4.16493576709064 46.569749262900565 ylo yhi
4.16493576709064 46.569749262900565 zlo zhi

Masses

1 12.01115
2 12.01115
3 12.01115
4 1.00797

Pair Coeffs # lj/class2/coul/long/kk

1 0.054 4.01
2 0.054 4.01
3 0.064 4.01
4 0.02 2.995

Bond Coeffs # class2/kk

1 1.53 299.67 -501.77 679.81
2 1.53 299.67 -501.77 679.81
3 1.501 321.902 -521.821 572.163
4 1.101 345 -691.89 844.6
5 1.501 321.902 -521.821 572.163
6 1.101 345 -691.89 844.6
7 1.417 470.836 -627.618 1327.63
8 1.0982 372.825 -803.453 894.317

Angle Coeffs # class2/kk

1 112.67 39.516 -7.443 -9.5583
2 108.4 43.9594 -8.3924 -9.3379
3 110.77 41.453 -10.604 5.129
4 112.67 39.516 -7.443 -9.5583
5 108.4 43.9594 -8.3924 -9.3379
6 110.77 41.453 -10.604 5.129
7 120.05 44.7148 -22.7352 0
8 112.67 39.516 -7.443 -9.5583
9 110.77 41.453 -10.604 5.129
10 120.05 44.7148 -22.7352 0
11 111 44.3234 -9.4454 0
12 111 44.3234 -9.4454 0
13 118.9 61.0226 -34.9931 0
14 117.94 35.1558 -12.4682 0
15 107.66 39.641 -12.921 -2.4318

BondBond Coeffs

1 0 1.53 1.53
2 0 1.53 1.501
3 3.3872 1.53 1.101
4 0 1.53 1.53
5 0 1.53 1.501
6 3.3872 1.53 1.101
7 12.0676 1.501 1.417
8 0 1.53 1.53
9 3.3872 1.53 1.101
10 12.0676 1.501 1.417
11 2.9168 1.501 1.101
12 2.9168 1.501 1.101
13 68.2856 1.417 1.417
14 1.0795 1.417 1.0982
15 5.3316 1.101 1.101

BondAngle Coeffs

1 8.016 8.016 1.53 1.53
2 0 0 1.53 1.501
3 20.754 11.421 1.53 1.101
4 8.016 8.016 1.53 1.53
5 0 0 1.53 1.501
6 20.754 11.421 1.53 1.101
7 47.0579 31.0771 1.501 1.417
8 8.016 8.016 1.53 1.53
9 20.754 11.421 1.53 1.101
10 47.0579 31.0771 1.501 1.417
11 26.4608 11.7717 1.501 1.101
12 26.4608 11.7717 1.501 1.101
13 28.8708 28.8708 1.417 1.417
14 20.0033 24.2183 1.417 1.0982
15 18.103 18.103 1.101 1.101

Dihedral Coeffs # class2/kk

1 0 0 0.0514 0 -0.143 0
2 0 0 0 0 0.158 180
3 0 0 0.0316 0 -0.1681 0
4 -0.2802 0 -0.0678 0 -0.0122 0
5 0 0 0.0514 0 -0.143 0
6 0 0 0.0316 0 -0.1681 0
7 -0.2802 0 -0.0678 0 -0.0122 0
8 0 0 4.4072 0 0 0
9 0 0 1.559 0 0 0
10 0 0 0 0 0.158 180
11 0 0 0.0316 0 -0.1681 0
12 0 0 0 0 0.158 180
13 0 0 0.0316 0 -0.1681 0
14 0 0 4.4072 0 0 0
15 0 0 1.559 0 0 0
16 -0.0228 0 0.028 0 -0.1863 0
17 -0.0228 0 0.028 0 -0.1863 0
18 -0.2801 0 -0.0678 0 -0.0122 0
19 -0.2801 0 -0.0678 0 -0.0122 0
20 8.3667 0 1.1932 0 0 0
21 0 0 3.9661 0 0 0
22 -0.1432 0 0.0617 0 -0.1083 0
23 -0.1432 0 0.0617 0 -0.1083 0
24 0 0 1.8769 0 0 0

AngleAngleTorsion Coeffs

1 -22.045 112.67 112.67
2 0 112.67 108.4
3 -16.164 112.67 110.77
4 0 108.4 120.05
5 -22.045 112.67 112.67
6 -16.164 112.67 110.77
7 0 108.4 120.05
8 -14.4097 120.05 118.9
9 4.4444 120.05 117.94
10 0 112.67 108.4
11 -16.164 112.67 110.77
12 0 112.67 108.4
13 -16.164 112.67 110.77
14 -14.4097 120.05 118.9
15 4.4444 120.05 117.94
16 0 108.4 110.77
17 0 108.4 110.77
18 -5.8888 120.05 111
19 -5.8888 120.05 111
20 0 118.9 118.9
21 -4.8141 118.9 117.94
22 -12.564 110.77 110.77
23 -12.564 110.77 110.77
24 0.3598 117.94 117.94

EndBondTorsion Coeffs

1 -0.0732 0 0 -0.0732 0 0 1.53 1.53
2 0 0 0 0 0 0 1.53 1.501
3 0.2486 0.2422 -0.0925 0.0814 0.0591 0.2219 1.53 1.101
4 0 0 0 0 0 0 1.53 1.417
5 -0.0732 0 0 -0.0732 0 0 1.53 1.53
6 0.2486 0.2422 -0.0925 0.0814 0.0591 0.2219 1.53 1.101
7 0 0 0 0 0 0 1.53 1.417
8 0 0.2421 0 0 -0.6918 0 1.501 1.417
9 0 -1.797 0 0 -0.4879 0 1.501 1.0982
10 0 0 0 0 0 0 1.53 1.501
11 0.2486 0.2422 -0.0925 0.0814 0.0591 0.2219 1.53 1.101
12 0 0 0 0 0 0 1.53 1.501
13 0.2486 0.2422 -0.0925 0.0814 0.0591 0.2219 1.53 1.101
14 0 0.2421 0 0 -0.6918 0 1.501 1.417
15 0 -1.797 0 0 -0.4879 0 1.501 1.0982
16 0 0 0 0 0 0 1.501 1.101
17 0 0 0 0 0 0 1.501 1.101
18 -0.5835 1.122 0.3978 1.3997 0.7756 0 1.417 1.101
19 -0.5835 1.122 0.3978 1.3997 0.7756 0 1.417 1.101
20 -0.1185 6.3204 0 -0.1185 6.3204 0 1.417 1.417
21 0 -6.8958 0 0 -0.4669 0 1.417 1.0982
22 0.213 0.312 0.0777 0.213 0.312 0.0777 1.101 1.101
23 0.213 0.312 0.0777 0.213 0.312 0.0777 1.101 1.101
24 0 -0.689 0 0 -0.689 0 1.0982 1.0982

MiddleBondTorsion Coeffs

1 -17.787 -7.1877 0 1.53
2 0 0 0 1.53
3 -14.879 -3.6581 -0.3138 1.53
4 0 0 0 1.501
5 -17.787 -7.1877 0 1.53
6 -14.879 -3.6581 -0.3138 1.53
7 0 0 0 1.501
8 0 9.1792 0 1.417
9 0 3.9421 0 1.417
10 0 0 0 1.53
11 -14.879 -3.6581 -0.3138 1.53
12 0 0 0 1.53
13 -14.879 -3.6581 -0.3138 1.53
14 0 9.1792 0 1.417
15 0 3.9421 0 1.417
16 0 0 0 1.53
17 0 0 0 1.53
18 -5.5679 1.4083 0.301 1.501
19 -5.5679 1.4083 0.301 1.501
20 27.5989 -2.312 0 1.417
21 0 -1.1521 0 1.417
22 -14.261 -0.5322 -0.4864 1.53
23 -14.261 -0.5322 -0.4864 1.53
24 0 4.8228 0 1.417

BondBond13 Coeffs

1 0 1.53 1.53
2 0 1.53 1.501
3 0 1.53 1.101
4 0 1.53 1.417
5 0 1.53 1.53
6 0 1.53 1.101
7 0 1.53 1.417
8 2.5085 1.501 1.417
9 0.8743 1.501 1.0982
10 0 1.53 1.501
11 0 1.53 1.101
12 0 1.53 1.501
13 0 1.53 1.101
14 2.5085 1.501 1.417
15 0.8743 1.501 1.0982
16 0 1.501 1.101
17 0 1.501 1.101
18 -3.4826 1.417 1.101
19 -3.4826 1.417 1.101
20 53 1.417 1.417
21 -6.2741 1.417 1.0982
22 0 1.101 1.101
23 0 1.101 1.101
24 -1.7077 1.0982 1.0982

AngleTorsion Coeffs

1 0.3886 -0.3139 0.1389 0.3886 -0.3139 0.1389 112.67 112.67
2 0 0 0 0 0 0 112.67 108.4
3 -0.2454 0 -0.1136 0.3113 0.4516 -0.1988 112.67 110.77
4 0 0 0 0 0 0 108.4 120.05
5 0.3886 -0.3139 0.1389 0.3886 -0.3139 0.1389 112.67 112.67
6 -0.2454 0 -0.1136 0.3113 0.4516 -0.1988 112.67 110.77
7 0 0 0 0 0 0 108.4 120.05
8 0 -4.4683 0 0 3.8987 0 120.05 118.9
9 0 -0.1242 0 0 3.4601 0 120.05 117.94
10 0 0 0 0 0 0 112.67 108.4
11 -0.2454 0 -0.1136 0.3113 0.4516 -0.1988 112.67 110.77
12 0 0 0 0 0 0 112.67 108.4
13 -0.2454 0 -0.1136 0.3113 0.4516 -0.1988 112.67 110.77
14 0 -4.4683 0 0 3.8987 0 120.05 118.9
15 0 -0.1242 0 0 3.4601 0 120.05 117.94
16 0 0 0 0 0 0 108.4 110.77
17 0 0 0 0 0 0 108.4 110.77
18 0.2251 0.6548 0.1237 4.6266 0.1632 0.0461 120.05 111
19 0.2251 0.6548 0.1237 4.6266 0.1632 0.0461 120.05 111
20 1.9767 1.0239 0 1.9767 1.0239 0 118.9 118.9
21 0 2.5014 0 0 2.7147 0 118.9 117.94
22 -0.8085 0.5569 -0.2466 -0.8085 0.5569 -0.2466 110.77 110.77
23 -0.8085 0.5569 -0.2466 -0.8085 0.5569 -0.2466 110.77 110.77
24 0 2.4501 0 0 2.4501 0 117.94 117.94

Improper Coeffs # class2/kk

1 0 0
2 0 0
3 0 0
4 0 0
5 0 0
6 0 0
7 0 0
8 0 0
9 0 0
10 0 0
11 0 0
12 7.8153 0
13 7.8153 0
14 4.8912 0

AngleAngle Coeffs

1 2.0403 -1.8202 1.0827 108.4 110.77 111
2 0.1184 -1.3199 -1.3199 110.77 112.67 110.77
3 1.0827 -1.8202 2.0403 110.77 108.4 111
4 0.2738 -0.4825 0.2738 110.77 110.77 107.66
5 -1.3199 -1.3199 0.1184 112.67 110.77 110.77
6 0.2738 -0.4825 0.2738 110.77 110.77 107.66
7 2.3794 3.0118 2.3794 111 111 107.66
8 -0.3157 -0.3157 -0.3157 107.66 107.66 107.66
9 0 0 0 112.67 108.4 108.4
10 -1.3199 -1.3199 0.1184 112.67 110.77 110.77
11 2.0403 -1.8202 1.0827 108.4 110.77 111
12 0 0 0 120.05 120.05 118.9
13 0 0 0 120.05 120.05 118.9
14 0 0 0 118.9 117.94 117.94

Atoms # full/kk

62 1 4 0.1268 6.3531320495277885 5.085217691568728 5.03267618000522 1 0 0
59 1 3 -0.1268 8.408641919500887 4.701130575016303 5.51956791505924 1 0 0
22 1 3 0 5.695416059076483 8.409873957695176 9.343038575500522 1 0 0
51 1 4 0.053 7.071047673740255 9.434206553177496 6.546866846895007 1 0 0
24 1 4 0.1268 4.361457186683253 9.962285713918739 8.746361103858572 1 0 0
23 1 3 -0.1268 4.670793474580834 8.9717907743224 8.557044413232076 1 0 0
63 1 3 -0.1268 7.459899317085602 6.940134521900788 5.067228040390842 1 0 0
61 1 3 -0.1268 7.335607445009504 5.566524195824771 5.212653739148732 1 0 0
64 1 4 0.1268 6.556281873389888 7.618330106613925 5.021853201582705 1 0 0
25 1 3 -0.1268 46.329917640821826 8.057789827140468 7.641070171948873 0 0 0
26 1 4 0.1268 45.46363537160239 8.49190045494683 7.119329049601781 0 0 0
49 1 1 -0.106 8.148777378956382 9.55422901107424 6.7161256455749 1 0 0
54 1 3 0 8.720225095803585 7.532939443345125 5.387104077861779 1 0 0
37 1 4 0.053 8.236692656347712 8.037897336710087 8.494727121327807 1 0 0
36 1 2 -0.053 8.506134292605367 9.050699128354836 8.277449943680077 1 0 0
52 1 2 -0.053 8.821177197635457 9.060000358032305 5.472576281642019 1 0 0
35 1 4 0.053 7.300130724914368 10.872280527517631 8.951870601441213 1 0 0
33 1 1 -0.106 7.672430366015963 9.943243569319268 9.365243231835723 1 0 0
34 1 4 0.053 8.444495396318036 10.164333238893471 10.030844109057407 1 0 0
50 1 4 0.053 8.376936110023024 10.588862349780975 6.859829894741089 1 0 0
55 1 3 -0.1268 9.8115068751683 6.686169639243958 5.570260561090004 1 0 0
57 1 3 -0.1268 9.650275402028246 5.315840955403809 5.571683793043175 1 0 0
66 1 4 0.053 7.222330794478665 9.659275890354639 46.39011100341438 1 0 -1
65 1 1 -0.106 8.355111060345525 9.832849841971566 4.184627994440724 1 0 0
926 2 4 0.1268 15.619696242650726 6.3123081410422985 5.9649169634323815 0 0 1
48 1 4 0.1268 10.087986301745527 10.980519419637655 7.34702254367482 1 0 0
46 1 4 0.1268 12.805359411061511 11.250586492104254 7.753277791852597 1 0 0
47 1 3 -0.1268 10.740048108374726 10.279319308852228 7.96783501603989 1 0 0
45 1 3 -0.1268 12.098128774636592 10.518193048794902 8.232930393924933 1 0 0
53 1 4 0.053 9.906152086858558 9.35243207664002 5.594428222661985 1 0 0
38 1 3 0 10.094278595016828 9.099109537390747 8.456995499803801 1 0 0
40 1 4 0.1268 10.27756300931945 7.38387320465936 9.512468561746953 1 0 0
56 1 4 0.1268 10.937977587732064 6.980448867922165 5.606518991134484 1 0 0
44 1 4 0.1268 13.748333831720204 9.830730815121358 9.304328184090869 1 0 0
43 1 3 -0.1268 12.786834855044134 9.605203354765814 8.985801367744173 1 0 0
39 1 3 -0.1268 10.813556907892105 8.19524084086989 9.155935706691412 1 0 0
42 1 4 0.1268 12.729418596516345 7.8116025070851025 10.090942096666979 1 0 0
41 1 3 -0.1268 12.115182808419117 8.451249519200507 9.38971926734631 1 0 0
928 2 4 0.1268 17.423160319372137 4.883104424924944 6.902734031379593 0 0 1
927 2 3 -0.1268 17.71893405115796 5.722214511171159 6.275347086514171 0 0 1
930 2 4 0.1268 19.875162488147232 5.688097444685928 6.632745841488949 0 0 1
972 2 4 0.1268 17.69702904789163 7.498313435753092 11.996463444850699 0 0 1
970 2 4 0.1268 19.719438023299787 6.434381086498259 10.896737530829318 0 0 1
981 2 4 0.053 22.238905536328666 4.955412298273582 11.162852528732712 0 0 1
924 2 4 0.1268 16.223443704677358 8.580497476206363 4.884277023779723 0 0 1
923 2 3 -0.1268 16.914843890739203 7.744826063947739 5.096800377928135 0 0 1
925 2 3 -0.1268 16.64555498831937 6.595033358122123 5.7874843649566 0 0 1
945 2 3 -0.1268 19.246377489433463 9.1415359180358 8.167341116502 0 0 1
936 2 3 0 20.41748420291287 9.598116161699707 7.610257331005702 0 0 1
933 2 4 0.053 22.491637932561396 8.494919236295727 5.473520939570911 0 0 1
951 2 4 0.053 21.96268921194865 9.131611287153223 9.969886574608227 0 0 1
950 2 2 -0.053 22.813547527565596 8.636768890002909 9.59483200136585 0 0 1
922 2 4 0.1268 18.530566677209713 8.621832733318527 46.40632440674884 0 0 0
921 2 3 -0.1268 18.254420365334163 7.923509155372937 4.735213904123986 0 0 1
946 2 4 0.1268 18.90485828596048 8.050397187946864 8.164594356948365 0 0 1
965 2 4 0.053 21.894453972450357 6.740721378446016 9.351623341806683 0 0 1
932 2 4 0.053 20.892175926566388 9.197443855732775 5.456599543917572 0 0 1
920 2 3 0 19.34082601655438 7.152147817636359 5.206151974387174 0 0 1
929 2 3 -0.1268 19.003147360535014 6.160571966718274 6.0895210349747515 0 0 1
931 2 1 -0.106 21.470913887588107 8.33671516218692 5.704035559203797 0 0 1
934 2 2 -0.053 21.421615352623476 8.480274788917521 7.260043532720167 0 0 1
947 2 1 -0.106 22.775867919593765 8.68623826643165 8.039313377506161 0 0 1
935 2 4 0.053 21.099301799615994 7.573926132174919 7.774236264111123 0 0 1
918 2 2 -0.053 20.898195518039007 7.281485560780298 4.723159313971238 0 0 1
919 2 4 0.053 21.366565249613203 6.284666565078732 4.9463454420478765 0 0 1
963 2 1 -0.106 22.690420726725506 7.153364703024659 10.048368421685241 0 0 1
1182 2 4 0.1268 22.696211576199833 45.487565710715245 8.229773652244283 0 -1 1
892 2 4 0.1268 25.71716706633667 10.397049055392126 4.363284854943548 0 0 1
891 2 3 -0.1268 25.712575915091854 9.170507679975168 4.359843913824242 0 0 1
894 2 4 0.1268 26.79895721823603 8.54426340253275 6.187839964064618 0 0 1
991 2 3 -0.1268 26.136599644917016 45.99799176773313 10.310182328115625 0 -1 1
994 2 4 0.1268 25.085558758284375 5.3709365262703885 10.372066716306025 0 0 1
993 2 3 -0.1268 25.228850098268385 4.47578155764753 10.986913086101726 0 0 1
952 2 3 0 24.02486809412641 9.394461218109203 10.208521454637518 0 0 1
948 2 4 0.053 23.578978236863424 8.021577276339661 7.68468184668715 0 0 1
949 2 4 0.053 23.196861156469218 9.695825863489205 7.853761464620851 0 0 1
898 2 4 0.1268 25.721060946930166 5.197894264580817 46.33588254019648 0 0 0
953 2 3 -0.1268 25.332961057622757 9.270931189367532 9.777347645592902 0 0 1
954 2 4 0.1268 25.460501283994578 8.510425945728368 8.97240521554209 0 0 1
992 2 4 0.1268 26.58808870355646 46.26734836660265 9.332070610304667 0 -1 1
964 2 4 0.053 23.666722886215243 6.743763652966283 9.754847628833366 0 0 1
897 2 3 -0.1268 25.886484494147965 6.312704003836908 46.52173371991434 0 0 0
893 2 3 -0.1268 26.398120377096053 8.284112557832087 5.227042906191621 0 0 1
896 2 4 0.1268 27.229134153002374 6.438071340154396 5.807944595560062 0 0 1
895 2 3 -0.1268 26.512987260865234 6.9205695139842796 5.144546849721407 0 0 1
4423 7 3 -0.1268 29.730107115496548 7.654003787000809 9.195410963719887 0 1 0
4424 7 4 0.1268 29.490840590814845 7.672348400840796 8.07329689471311 0 1 0
6128 10 4 0.1268 32.595516830390395 46.2475419392189 4.565545578190311 0 -1 0
3234 6 4 0.1268 28.904057269928675 10.244685428506106 5.215140942701551 0 0 0
3272 6 4 0.1268 33.44483845040318 12.614845612973609 10.162785495463206 0 0 0
3233 6 3 -0.1268 29.842254082740766 10.251463350927015 5.6585898440988185 0 0 0
3237 6 3 -0.1268 31.925546668054405 9.108618955785708 5.857643635877882 0 0 0
3235 6 3 -0.1268 30.626568909621376 9.100781754199232 5.4250064339756054 0 0 0
3236 6 4 0.1268 30.39934046291894 8.337657342418158 4.6873122654450565 0 0 0
4422 7 4 0.1268 31.869813343716988 7.875454398437402 8.955023852493659 0 1 0
4421 7 3 -0.1268 31.030741650875317 7.779317480457873 9.598621293430293 0 1 0
6047 10 3 -0.1268 36.818975672924736 5.159276747562782 44.65391471035005 0 0 -1
6048 10 4 0.1268 36.8087256034656 46.49458303470241 44.68174883485297 0 -1 -1
6043 10 3 -0.1268 36.680631273542645 7.1511506324377105 45.9430023612934 0 0 -1
6045 10 3 -0.1268 36.6042800739707 5.806401844229679 45.836249182280405 0 0 -1
6046 10 4 0.1268 36.74984497950754 5.350521673644503 4.424001731706508 0 0 0
5964 10 4 0.1268 38.95724669835209 45.38809240361269 6.562103103783466 0 -1 0
5963 10 3 -0.1268 39.733682305455204 46.085102016925575 6.83478888961436 0 -1 0
5962 10 4 0.1268 38.58934954948592 5.502685440796267 6.353185733024071 0 0 0
5961 10 3 -0.1268 39.50607858801226 4.990502315879494 6.685299720178575 0 0 0
5960 10 3 0 40.53978500825046 5.894757689305024 7.06263037366373 0 0 0
5972 10 4 0.053 39.69875119235094 7.07352769825501 4.796493900368633 0 0 0
5978 10 4 0.1268 40.58985576839007 5.46933254201957 45.56256880078208 0 0 -1
5957 10 4 0.053 38.538602832917896 7.829681859790794 7.653782770231002 0 0 0
5965 10 3 -0.1268 40.841762780898996 45.55722144279922 7.35424165248273 0 -1 0
5973 10 4 0.053 39.90118691417254 8.712179979517037 5.204977226157936 0 0 0
5971 10 1 -0.106 40.42576237596119 7.761102608873429 5.317425526767609 0 0 0
5956 10 4 0.053 39.77967982653988 7.772904469130087 8.804185941634447 0 0 0
5955 10 1 -0.106 39.6156347382661 8.087232305360669 7.792141177948797 0 0 0
5968 10 4 0.1268 42.80585108245813 45.97064620162174 8.281300023943748 0 -1 0
6000 10 4 0.1268 45.95514073233155 11.592063107400467 5.537206212345149 0 0 0
5977 10 3 -0.1268 41.446577856836576 5.11971076020552 46.247087225457655 0 0 -1
5967 10 3 -0.1268 41.86260513472216 46.37604697175363 7.933468978497748 0 -1 0
5958 10 2 -0.053 40.5994041534633 7.458446472598087 6.787515990573327 0 0 0
5986 10 4 0.1268 44.05129595329314 6.439905442416709 5.7223247049589725 0 0 0
5974 10 2 -0.053 41.90158862907668 7.6330404560388345 4.53678590747537 0 0 0
5959 10 4 0.053 41.64207416760348 7.738552730320837 7.031783232381675 0 0 0
5985 10 3 -0.1268 43.38438446908961 5.6461388152945045 5.175048058298966 0 0 0
5975 10 4 0.053 42.575351407656335 8.183960692399065 5.181432346385323 0 0 0
5976 10 3 0 42.21428571091645 6.071368820125447 4.561678208593131 0 0 0
5969 10 3 -0.1268 41.660615463996656 5.362572118824476 7.6512910237285485 0 0 0
5970 10 4 0.1268 42.469220034577646 6.063152425497852 7.642531088924222 0 0 0
205 1 3 -0.1268 8.452064543332838 15.077296530864608 7.796916579012138 1 0 0
207 1 3 -0.1268 8.743111047610318 16.39653100736738 7.952084039368907 1 0 0
203 1 3 -0.1268 9.158667886607212 14.040224297880584 8.41050539027931 1 0 0
204 1 4 0.1268 8.818784462061938 12.976941538888807 8.396661784524076 1 0 0
114 1 4 0.053 6.260635200531164 14.029629144154415 46.418096547382824 1 0 -1
117 1 4 0.053 7.081802433095204 16.425375851239718 46.27687417677714 1 0 -1
67 1 4 0.053 8.535268663596007 10.892973589372403 4.381447028370173 1 0 0
118 1 3 0 4.91576803835763 16.079875836004447 4.587530561099167 1 0 0
112 1 4 0.1268 8.244433315334113 14.039291893693328 4.708325701246396 1 0 0
206 1 4 0.1268 7.520603719455357 14.720992922581315 7.263301359010466 1 0 0
110 1 4 0.1268 10.68599525412877 14.320161458000804 5.603775473914734 1 0 0
198 1 3 0 9.878982231724137 16.818199093617466 8.645572577636786 1 0 0
189 1 3 -0.1268 13.911890858143746 15.457482979155397 7.376627701783744 1 0 0
191 1 3 -0.1268 12.7328740409756 16.126343410704607 7.125740837252785 1 0 0
190 1 4 0.1268 13.910544015947682 14.388636412551065 7.52848763395678 1 0 0
192 1 4 0.1268 11.890340858717408 15.3548322273984 7.026819668667253 1 0 0
201 1 3 -0.1268 10.240875868043656 14.485978922386048 9.215686675519887 1 0 0
202 1 4 0.1268 10.934323961468657 13.660214032604092 9.664868555727708 1 0 0
200 1 4 0.1268 11.542779733601346 16.108473087255923 9.858770351788518 1 0 0
199 1 3 -0.1268 10.595903657360012 15.839959311864595 9.248003492494803 1 0 0
80 1 4 0.1268 10.383557234453669 11.82750388829395 46.553019516308716 1 0 -1
944 2 4 0.1268 17.26518237979443 9.819947370746078 8.874942664750527 0 0 1
1901 3 3 -0.1268 20.25891540534578 15.875267965282541 8.90451582635732 0 1 1
1904 3 4 0.1268 18.538614409172403 17.022083452079926 8.569101108104151 0 1 1
1903 3 3 -0.1268 19.461367715455715 16.95132352239803 9.15233660813375 0 1 1
350 1 4 0.1268 21.181138370810096 17.769865106897722 6.719314187415467 1 0 0
1905 3 3 -0.1268 19.641498304006248 17.735121651562203 10.285423843319458 0 1 1
188 1 4 0.1268 15.7918900334875 15.913184510973482 8.214310630813833 1 0 0
942 2 4 0.1268 17.815234387919343 12.163599083139886 8.804108754374743 0 0 1
941 2 3 -0.1268 18.594463852707683 11.446398923324427 8.587993366208707 0 0 1
940 2 4 0.1268 20.11382397705363 12.984775648271345 8.034574302796685 0 0 1
938 2 4 0.1268 21.624089000596985 11.374487597028434 7.086997947726251 0 0 1
939 2 3 -0.1268 19.810298561615987 11.867410325924208 8.050441155123288 0 0 1
937 2 3 -0.1268 20.7799758982854 10.992781805460769 7.644061139170506 0 0 1
1902 3 4 0.1268 20.00584131494996 15.171506125587031 8.017212576436124 0 1 1
943 2 3 -0.1268 18.266203810590355 10.115685034079569 8.59313086443426 0 0 1
187 1 3 -0.1268 14.945267022692825 16.27403046582712 7.697208320829569 1 0 0
3218 6 4 0.1268 26.163006463770156 13.863270482955121 4.339355699862409 0 0 0
3214 6 2 -0.053 28.918461878912225 13.151096569463641 46.28857655556697 0 0 -1
3211 6 1 -0.159 29.571227396342383 14.506876608318585 46.01687043415738 0 0 -1
3212 6 4 0.053 28.876789949960706 15.27314499526038 45.78089334396124 0 0 -1
3258 6 4 0.1268 26.55771103500705 12.067822111255534 9.106470097451574 0 0 0
3254 6 4 0.1268 22.95545864488087 13.758958382323584 7.643924619515316 0 0 0
3251 6 3 -0.1268 24.820604840284933 15.039422149999805 7.329439490694966 0 0 0
3255 6 3 -0.1268 24.71192804340757 12.929456187019374 8.621435328911323 0 0 0
3256 6 4 0.1268 24.00595752298896 12.289839118523572 9.0624411554036 0 0 0
3253 6 3 -0.1268 24.068068806440053 13.91659301558399 7.734460256807669 0 0 0
3257 6 3 -0.1268 26.05138560206345 12.880671592679684 8.622377817986829 0 0 0
3249 6 3 -0.1268 26.17042042061388 15.080405263405625 7.613181560786862 0 0 0
3229 6 4 0.053 28.188853576732555 14.016435702054768 5.669460823314547 0 0 0
3248 6 3 0 26.898160136988402 13.957296456876048 8.117200735748417 0 0 0
3228 6 4 0.053 27.880992347446224 12.270475734201561 5.634236309536446 0 0 0
3250 6 4 0.1268 26.749340185619605 16.018460089774123 7.276642232815346 0 0 0
3227 6 1 -0.106 28.580620803947294 13.074510461889604 5.449982569087499 0 0 0
3245 6 4 0.053 28.39780828126498 12.02411883148937 8.115243652437812 0 0 0
3851 6 4 0.053 30.060212024726003 14.633972717075098 4.619072409312652 0 0 0
3271 6 3 -0.1268 32.84085924695475 13.457741155641871 9.786436479861827 0 0 0
3273 6 3 -0.1268 31.736912885879264 13.929338420531556 10.546432138068115 0 0 0
3268 6 4 0.1268 33.44326495829797 16.512215454367844 8.073960293630185 0 0 0
3266 6 4 0.1268 31.04655702861466 16.92685739687598 8.710852014385445 0 0 0
3269 6 3 -0.1268 33.519724037917555 14.404759275218547 9.004688724929942 0 0 0
3246 6 2 -0.053 28.463658236562672 14.129007623950486 8.475965868708672 0 0 0
3243 6 1 -0.106 29.186643178935704 12.833748401867076 8.049287855284916 0 0 0
3267 6 3 -0.1268 32.88115687957813 15.66377871498196 8.733460805185825 0 0 0
3265 6 3 -0.1268 31.506231212498452 15.93919114130943 9.102092099329914 0 0 0
3230 6 2 -0.053 29.64968821425419 12.73944214926467 6.532489826785649 0 0 0
3231 6 4 0.053 30.417769653108454 13.478735557814186 6.544135754766101 0 0 0
3247 6 4 0.053 28.847568779682703 15.016883385751003 7.936086937295654 0 0 0
3244 6 4 0.053 30.0257083028668 12.456694859160638 8.786356427442703 0 0 0
3242 6 4 0.1268 32.22460881476701 12.184531695965392 6.915493249693989 0 0 0
3232 6 3 0 30.36700045812154 11.380799842439448 6.26203522660561 0 0 0
3241 6 3 -0.1268 31.65084071021325 11.269662286503797 6.654988203787501 0 0 0
3239 6 3 -0.1268 32.47486554154686 10.23949451653473 6.488083953772951 0 0 0
3270 6 4 0.1268 34.55754529677387 14.2361202434606 8.515612924022069 0 0 0
5925 10 4 0.053 37.99306236563626 13.68732086971853 9.867274925225185 0 0 0
5924 10 4 0.053 36.82515522239574 12.636635344892674 9.971238390862826 0 0 0
5923 10 1 -0.106 37.91590593907523 12.638077514166808 9.982975729526384 0 0 0
5940 10 4 0.053 38.78038062612428 10.138597410941115 9.82594759643826 0 0 0
5896 10 3 0 40.612077893927044 14.771356835115702 10.300867240493186 0 0 0
5933 10 3 -0.1268 35.950318888397085 13.493908475753646 5.301632560320227 0 0 0
5931 10 3 -0.1268 36.64648855214342 14.330711417010589 6.190091244595796 0 0 0
5928 10 3 0 37.63303250392179 12.479627255976295 7.347972740610178 0 0 0
5929 10 3 -0.1268 37.39027896313327 13.819728026996172 7.203065274395621 0 0 0
5926 10 2 -0.053 38.52886848780314 12.079129489062758 8.628174956731769 0 0 0
5935 10 3 -0.1268 35.94150086149037 12.10938430017576 5.478789186678344 0 0 0
5937 10 3 -0.1268 36.8941979509823 11.673673322240454 6.480315354277905 0 0 0
5930 10 4 0.1268 37.92380151049211 14.391814844722921 7.939521588714662 0 0 0
5938 10 4 0.1268 37.10094564525396 10.554003542379105 6.498689924777797 0 0 0
5939 10 1 -0.106 38.62774077457185 10.494191618417483 8.636173987992889 0 0 0
5943 10 4 0.053 39.49825700316925 9.976235487658364 6.764827817412343 0 0 0
5936 10 4 0.1268 35.18639034048841 11.394272883078028 5.022691967800106 0 0 0
5927 10 4 0.053 39.6096699532187 12.399902010742517 8.585491686670137 0 0 0
6044 10 4 0.1268 36.79498776771315 7.750023915982659 4.536234654163967 0 0 0
5941 10 4 0.053 37.67218578414049 10.162821826464317 8.388467899935375 0 0 0
5942 10 2 -0.053 39.77153450116009 9.6667427412344 7.7393664287880375 0 0 0
5948 10 4 0.1268 43.3004488856179 9.137992312281861 10.675926159963531 0 0 0
5903 10 3 -0.1268 41.52509850005786 15.131784158031666 8.148605706380874 0 0 0
5904 10 4 0.1268 42.084147173059726 14.747729716356007 7.291258068030964 0 0 0
5954 10 4 0.1268 41.53483588359354 11.553578221656956 6.714870023720289 0 0 0
5952 10 4 0.1268 43.812889621738 12.232737464766378 7.614988727467698 0 0 0
5950 10 4 0.1268 44.626942790624845 11.097031675796526 9.697824558479489 0 0 0
5947 10 3 -0.1268 42.99226483618223 9.712170294595454 9.771382980018588 0 0 0
5905 10 3 -0.1268 41.517410140642404 14.429630318447456 9.317270143162657 0 0 0
5945 10 3 -0.1268 41.82634393952346 9.353646207312497 9.211084107673328 0 0 0
5951 10 3 -0.1268 43.266412620720644 11.344458115513635 8.073319419505227 0 0 0
5949 10 3 -0.1268 43.7437790020466 10.70818162645114 9.21957628801074 0 0 0
5906 10 4 0.1268 42.18055503370754 13.585257877483283 9.52488280412993 0 0 0
5953 10 3 -0.1268 41.982191824617864 11.069041557308186 7.604193219194954 0 0 0
5944 10 3 0 41.1765379800974 10.056062612388892 8.130855881219182 0 0 0
5946 10 4 0.1268 41.33024953428339 8.435413289491684 9.656861015512167 0 0 0
210 1 4 0.053 8.747456142119058 19.452550608015308 9.599446629786222 1 0 0
146 1 4 0.053 6.249388527566108 18.714542380870327 4.596021964252158 1 0 0
151 1 3 -0.1268 7.209562882322981 22.26133397925967 4.964954213556043 1 0 0
161 1 1 -0.106 9.007553304841021 19.063366236339178 4.261489775812758 1 0 0
5628 9 4 0.1268 4.620822621078929 20.54897507432549 5.60185387327187 1 0 0
5625 9 3 -0.1268 45.53495557782839 22.11324877646938 6.27802415702251 0 0 0
5627 9 3 -0.1268 46.06888498272418 20.77699003423787 6.0790238106741 0 0 0
5630 9 4 0.1268 45.476474792170286 18.644002893133887 5.921472785686166 0 0 0
150 1 3 0 7.362972541469476 20.939721062220183 5.0839616879556395 1 0 0
160 1 4 0.1268 7.297803616628368 19.29901776461525 6.477677514925559 1 0 0
163 1 4 0.053 8.839539491797343 18.462975028435533 5.16220405616918 1 0 0
159 1 3 -0.1268 7.237084681064154 20.41500728761155 6.366050438176432 1 0 0
158 1 4 0.1268 6.841526205268734 20.873886330841348 8.46927013903832 1 0 0
157 1 3 -0.1268 6.868548884268034 21.28165351379427 7.448582134962726 1 0 0
208 1 4 0.1268 8.052282837537213 17.208470637226966 7.699023872350113 1 0 0
127 1 3 -0.1268 5.190214618650044 16.47262025441527 5.890552308364802 1 0 0
128 1 4 0.1268 6.183163518725557 16.919489857559338 5.71333472531937 1 0 0
125 1 3 -0.1268 4.279945239087817 16.339620847809705 6.942192314395259 1 0 0
126 1 4 0.1268 4.555972055734037 16.854950703479837 7.802875272374335 1 0 0
223 1 3 -0.1268 10.95995278615364 22.600500881346807 8.889536354743514 1 0 0
224 1 4 0.1268 11.907364921532007 22.263636541990127 8.483253322522996 1 0 0
323 1 4 0.053 15.321724247569739 22.62985854183925 5.425143628958695 1 0 0
184 1 4 0.1268 13.786811068056236 19.422820808613608 6.826171149595201 1 0 0
209 1 1 -0.106 9.745457657265213 19.198875140351944 9.86234770053174 1 0 0
214 1 3 0 10.163083311801783 21.772078704315067 9.633218386418282 1 0 0
195 1 4 0.053 9.545708354581027 19.263056146397112 6.951501255996341 1 0 0
196 1 2 -0.053 10.489078700512202 18.264476055607307 8.740096875440383 1 0 0
183 1 3 -0.1268 13.79820432625031 18.25769879544357 6.918077108709721 1 0 0
212 1 2 -0.053 10.66101466655413 20.450344291771472 10.199280437883242 1 0 0
182 1 3 0 12.658551094060625 17.494460112193025 6.67653485648157 1 0 0
213 1 4 0.053 11.642580912591637 20.23486666709376 9.761588416146699 1 0 0
239 1 3 -0.1268 14.317525023149782 21.003265736707924 10.829163188901711 1 0 0
194 1 4 0.053 11.070128539654558 19.99389674272537 7.422576345238979 1 0 0
180 1 2 -0.053 11.360114966412887 18.247184523406368 6.281280688928494 1 0 0
240 1 4 0.1268 14.000861473659295 21.882134478275027 10.236551920685384 1 0 0
193 1 1 -0.106 10.561567814206459 18.99781981623061 7.358437126560233 1 0 0
165 1 4 0.053 9.833523248142598 20.60678191434863 5.355853532696651 1 0 0
179 1 4 0.053 12.424511233288696 19.807532979274434 4.922420510118829 1 0 0
237 1 3 -0.1268 15.582158587924035 20.39543262699086 10.55455508617262 1 0 0
185 1 3 -0.1268 14.860794134225603 17.61868122595142 7.479062521960647 1 0 0
177 1 1 -0.106 11.530039507274285 19.192812867443863 4.989693417279042 1 0 0
181 1 4 0.053 10.624442343042308 17.478810833959926 5.958214032773553 1 0 0
164 1 2 -0.053 10.292196655559913 19.936610110142205 4.52633093063238 1 0 0
197 1 4 0.053 11.56887166703023 18.12373611995264 8.935061160813216 1 0 0
1906 3 4 0.1268 19.09154063813952 18.6745969034476 10.469374581920846 0 1 1
238 1 4 0.1268 16.293855895597385 20.725258394288836 9.77951393563203 1 0 0
186 1 4 0.1268 15.726683042866192 18.225871570825376 7.985713032734131 1 0 0
322 1 4 0.053 16.438626816523744 22.159080893415474 6.695256379592934 1 0 0
235 1 3 -0.1268 16.034753155960125 19.376769616365603 11.386031788121874 1 0 0
321 1 1 -0.106 16.253360040884896 22.895375876920784 5.892999117280445 1 0 0
339 1 4 0.053 16.721649991084398 20.46675539458309 5.472074383702022 1 0 0
351 1 3 -0.1268 19.65257757368355 18.81470441359798 5.596501323226465 1 0 0
324 1 2 -0.053 17.479895085249456 22.475226661391854 4.917029763518426 1 0 0
325 1 4 0.053 18.441185340281766 22.63765554907229 5.466183290237332 1 0 0
337 1 1 -0.106 17.213965717970147 20.86807754993513 4.570764851758871 1 0 0
236 1 4 0.1268 17.02012569607134 18.82569279789589 11.190399269835487 1 0 0
2228 4 4 0.1268 20.826939491197827 22.118804422906724 7.291599645439899 0 0 1
352 1 4 0.1268 18.826034652375615 18.380123119665445 6.097776393099797 1 0 0
349 1 3 -0.1268 20.92529798661391 18.419790810012362 5.858362433539621 1 0 0
347 1 3 -0.1268 22.034030371281403 18.83769491789227 5.190701131210278 1 0 0
345 1 3 -0.1268 21.88542524398611 19.784518135004085 46.553563790284244 1 0 -1
3252 6 4 0.1268 24.293475294776194 15.874175899574595 6.8109895385140975 0 0 0
2226 4 4 0.1268 20.808752232654882 20.194071733563266 8.903719598706687 0 0 1
2225 4 3 -0.1268 21.729353583780036 20.541899638760455 8.490315138168574 0 0 1