LAMMPS data file via write_data, version 22 Jul 2025, timestep = 1500000, units = real

8040 atoms
3 atom types
8020 bonds
4 bond types
8000 angles
3 angle types
7980 dihedrals
4 dihedral types

4.835385354803837 63.34299219518851 xlo xhi
4.835385354803837 63.34299219518851 ylo yhi
4.835385354803837 63.34299219518851 zlo zhi

Masses

1 13.0189
2 14.0268
3 15.0347

Pair Coeffs # lj/cut

1 0.0934 3.71
2 0.09141 3.95
3 0.19475 3.75

Bond Coeffs # harmonic

1 530 1.33
2 260 1.54
3 260 1.54
4 260 1.54

Angle Coeffs # harmonic

1 69.9695 119.7
2 62.1002 114
3 62.1002 114

Dihedral Coeffs # multi/harmonic

1 1.91086 1.85422 0.43627 -2.24348 0
2 1.91086 1.85422 0.43627 -2.24348 0
3 2.00702 -4.01203 0.27102 6.29006 0
4 25.635 0.9936 -25.635 -0.9936 0

Atoms # full

3742 10 2 0 8.563700513536691 10.955022352356774 10.797892129374686 0 0 1
3743 10 2 0 9.56388617398985 10.245143254102494 9.902392101115778 0 0 1
3744 10 1 0 10.852003777645074 10.933881632939581 10.26798724419407 0 0 1
3745 10 1 0 11.396665662904825 11.575469467065513 9.250540116850608 0 0 1
1595 4 2 0 11.100963146795056 10.268376389296048 15.14696530317555 1 0 0
3746 10 2 0 12.798490638697775 12.298125001397532 9.503774419513109 0 0 1
1598 4 2 0 12.512502208736244 11.885389660812674 13.369016103277477 1 0 0
3747 10 2 0 13.92224505613417 11.71152949638265 8.595728356486031 0 0 1
1596 4 1 0 12.611099203498785 10.33794841029323 15.305159827160956 1 0 0
1597 4 1 0 13.281944879211567 11.009602827366635 14.411974708531407 1 0 0
1592 4 1 0 8.480036309293126 7.7598594768665405 13.84691115472383 1 0 0
3672 10 1 0 8.67794426824162 9.380460060783143 6.520627858115022 0 0 1
3673 10 1 0 8.717812521601463 9.556914678295545 5.215913230464993 0 0 1
1591 4 2 0 6.971455199001269 7.539410259167198 13.658590772282999 1 0 0
78 1 1 0 11.094347684594108 6.616951904153836 10.077459621271473 0 1 1
1590 4 2 0 6.609075760775283 6.949193331700477 12.225677681689671 1 0 0
3671 10 2 0 7.593951107981127 8.486741968007223 7.060614209061333 0 0 1
77 1 2 0 12.474040941927253 6.474255486988367 9.282543630949533 0 1 1
79 1 1 0 10.621665052532663 5.614317287235345 10.80661556832268 0 1 1
1599 4 2 0 12.762763968405428 13.361759071109988 13.549389625082744 1 0 0
76 1 2 0 13.497395487880997 7.589693743141583 9.602042040328508 0 1 1
3741 10 1 0 7.175431001313269 10.365405418337616 10.684758474410296 0 0 1
6274 16 2 0 5.500136852347651 12.040151141220296 14.203967702047828 1 0 0
1588 4 1 0 5.06984400832803 4.929435621204625 11.792144232814211 1 0 0
3751 10 2 0 14.540688935080878 14.197250388821141 5.852310662694221 0 0 1
75 1 1 0 13.69718380872885 7.679486128480068 11.150232557448977 0 1 1
1601 4 1 0 10.784190617146585 14.903320190642713 13.156105001664514 1 0 0
131 1 1 0 21.127680384504934 5.244388444201528 21.818737261694817 0 1 1
1863 5 1 0 33.442958424773515 23.758591541224582 19.16619627075415 1 1 0
751 2 2 0 8.986867420907913 13.056211567029536 5.293180246900086 1 1 1
753 2 1 0 7.6286733226411565 14.06121251788311 7.082560887586085 1 1 1
754 2 2 0 8.914696117982523 14.024871250691014 8.039236088239388 1 1 1
752 2 1 0 7.69597836235882 13.61413708368056 5.845059267286833 1 1 1
3740 10 1 0 6.119488583149362 11.022291526393019 10.119849383842393 0 0 1
2501 7 2 0 24.184484148008977 14.635006967410456 5.063956402866457 0 0 1
1589 4 1 0 6.285163334337406 5.420672126917843 12.114594310426359 1 0 0
3670 10 2 0 8.0137857584656 7.2750199199607755 7.983405886018725 0 0 1
3669 10 1 0 6.8433886962564525 6.385077881827277 8.39572770487146 0 0 1
3748 10 1 0 15.386396974618517 12.22736700188112 8.681975153400657 0 0 1
3750 10 2 0 15.055836925293896 12.818607183663175 6.368642212875034 0 0 1
3749 10 1 0 15.874962413606122 12.7903171972049 7.609154241196151 0 0 1
4343 11 1 0 22.774105892878712 7.183909696481414 6.851183035282819 -1 0 1
4345 11 2 0 21.814547927303217 8.315724031221189 8.966523257013687 -1 0 1
4344 11 2 0 21.535587056101484 7.411155704138894 7.714240415834286 -1 0 1
4347 11 1 0 19.567650358090198 9.346633442559671 9.399788237140662 -1 0 1
4346 11 1 0 20.45663907204577 8.43830765393633 9.781277862192072 -1 0 1
4355 11 1 0 19.70742784802235 14.059705006215925 12.940486899320506 -1 0 1
4360 11 2 0 22.532077593273435 12.290022334677298 8.66112622555987 -1 0 1
4349 11 2 0 18.02733756477634 10.177746615498297 11.365196970192482 -1 0 1
4359 11 1 0 22.64754662347716 13.259418312656278 9.8324381596586 -1 0 1
4358 11 1 0 22.13335556668219 12.924325422509158 10.990262946485135 -1 0 1
4351 11 1 0 15.925314222431485 11.148558452208274 12.447701515191273 -1 0 1
4350 11 1 0 16.61979496812647 10.025253194806911 12.098303180898993 -1 0 1
4352 11 2 0 16.55698479441743 12.47987451159375 11.97352263280586 -1 0 1
4348 11 2 0 18.159697840135927 9.461658011139928 10.001638929737354 -1 0 1
4361 11 2 0 21.630187767783294 12.645543172240057 7.3793297803231805 -1 0 1
3295 9 1 0 21.377953590788113 6.88567099437403 13.160261201059477 1 0 1
4362 11 1 0 20.233856973969164 12.807156595081402 7.797300446902804 -1 0 1
4353 11 2 0 17.220089810263833 13.417176198063107 13.07586193077519 -1 0 1
4363 11 1 0 19.454999304033933 13.753926035690348 7.277832943519908 -1 0 1
74 1 1 0 14.85653049348546 7.264582613708203 11.695232761069146 0 1 1
16 1 2 0 17.432273058055582 6.680793904333901 6.685069836978704 0 1 1
4354 11 1 0 18.430580274793797 14.276244224292737 12.444295197645797 -1 0 1
4398 11 1 0 29.383229694271787 33.82846949599357 23.315291542737487 -1 0 1
4364 11 2 0 19.931854365531983 14.753354006423697 6.188304985581682 -1 0 1
73 1 2 0 15.879636549666554 6.783041371451013 10.708001672869996 0 1 1
1827 5 1 0 33.70532292656742 27.558109334992675 27.427982790455786 1 1 0
123 1 1 0 17.30340393026761 8.086609994635579 15.185430890997914 0 1 1
3294 9 1 0 22.283706518017414 7.697481804228087 13.687107648405979 1 0 1
3293 9 2 0 21.909627579087786 9.175387478901294 14.007833281043482 1 0 1
3292 9 2 0 22.142717210951364 9.568481054566858 15.42936250458924 1 0 1
124 1 2 0 17.700035029016554 6.6353960695191105 15.268455235144716 0 1 1
116 1 2 0 9.526538119120008 5.168414787184711 16.65583401889837 0 1 1
4357 11 2 0 22.253049099915724 13.940878531102623 12.072353661645916 -1 0 1
4356 11 2 0 21.000036243527347 14.784329745679553 12.39482050270059 -1 0 1
4230 11 1 0 32.89882895172607 33.98653894622886 13.777483156068135 -1 0 1
13 1 2 0 14.951672347617949 8.148508721175789 6.480695003788983 0 1 1
15 1 1 0 17.331320550624774 8.163532813410491 6.157568883447552 0 1 1
17 1 2 0 18.491571894578023 5.769718346218383 6.089347907075638 0 1 1
5565 14 1 0 6.983650644608582 31.74305429692449 5.018405672574791 1 1 0
2503 7 1 0 25.447211439054065 12.466399485435579 5.806278820240298 0 0 1
2507 7 1 0 28.162103989408603 8.695556305510072 7.635757666224858 0 0 1
2504 7 2 0 25.82572112139645 11.393523207997834 6.8134593033624435 0 0 1
2288 6 1 0 30.80628400058099 12.547072141279727 9.594989973299594 0 0 1
2505 7 2 0 27.271925200167217 11.001848179884668 6.848787095193714 0 0 1
2506 7 1 0 27.525419738325628 9.87797129452461 7.851077935635304 0 0 1
2289 6 1 0 31.341932559275023 11.486659890098958 9.07253936539496 0 0 1
2799 7 1 0 24.75500243721006 8.96796022836261 11.076656530396379 1 0 1
2800 7 2 0 25.82429057071089 7.997863916690028 11.651198426983054 1 0 1
2798 7 1 0 24.637066926463426 10.258470016466461 11.394655122408482 1 0 1
2508 7 2 0 28.68221209599821 8.611494721105279 6.150807964633457 0 0 1
2797 7 2 0 25.661165450017332 10.88420591023404 12.380581268356948 1 0 1
2796 7 2 0 26.245163343746498 12.28558176122841 12.008215233073578 1 0 1
2290 6 2 0 32.261456043283005 10.672271408121162 9.994794873880252 0 0 1
2801 7 2 0 26.89209126536858 7.625841793153631 10.599775704812547 1 0 1
2509 7 2 0 29.764038784950365 7.554050495836702 5.804493958028495 0 0 1
2795 7 1 0 27.45228552153716 12.766057739201099 12.830585262109611 1 0 1
2802 7 1 0 27.772276962962405 6.467223670002627 11.092016672281506 1 0 1
2287 6 2 0 29.762874583061823 13.4678852220741 8.857121206609964 0 0 1
2286 6 2 0 28.832186379141838 14.123589665182916 9.801873471850579 0 0 1
2502 7 1 0 24.88821951563757 13.657177960549976 6.137132805888302 0 0 1
4231 11 1 0 32.230988908074906 34.04112952728186 14.93370134721125 -1 0 1
2285 6 1 0 27.819876638217135 15.173870081664225 9.265694033831478 0 0 1
2284 6 1 0 26.535498205225906 15.224699105119557 9.740898281525903 0 0 1
2283 6 2 0 25.596554283272987 16.241468818107432 9.119758777706206 0 0 1
72 1 2 0 16.527818074252423 5.516666960677843 11.321245191633231 0 1 1
7942 20 2 0 30.571268604436305 8.643201699881498 14.328537096347574 1 0 1
6841 18 1 0 23.902055117216946 22.669950207886473 5.6314239090902625 1 0 1
128 1 2 0 19.81813154173284 5.5769498872727 18.593918249768418 0 1 1
4163 11 1 0 33.07774719533326 28.70574089802427 11.09439949999345 -1 0 1
1837 5 2 0 32.80773639679271 21.05177092079454 27.423833531006288 1 1 0
1275 4 2 0 33.76418205751648 6.524492431936515 30.25179006022669 0 0 0
1600 4 1 0 11.837919967880847 14.271805164349201 12.60666783321503 1 0 0
1602 4 2 0 9.829879689034222 15.72464789539649 12.22860168319247 1 0 0
1191 3 1 0 4.917264530068982 21.658555870216254 17.442778710335624 0 1 1
4399 11 1 0 28.15488297091102 33.99446146604885 23.91033937797043 -1 0 1
759 2 2 0 11.041376588175504 18.196431133411373 5.930261000596799 1 1 1
755 2 2 0 9.840626983398188 15.247010086812281 8.133956971061904 1 1 1
1603 4 2 0 8.350859904351797 15.837796925383442 12.7838456382427 1 0 0
1605 4 1 0 7.080761415600405 17.731942084195197 11.897138604668418 1 0 0
758 2 2 0 9.878131488705124 17.284491045531702 6.346917719485297 1 1 1
757 2 1 0 9.170704150103148 17.551556147671683 7.7240746547610275 1 1 1
756 2 1 0 9.134971110956485 16.516185414827106 8.518615044894755 1 1 1
1604 4 1 0 7.484186619933931 16.478668542180927 11.713626071138998 1 0 0
1183 3 1 0 11.25900346791398 19.568555367620355 11.930947174205054 0 1 1
1184 3 2 0 10.14306614105728 20.692482158927746 12.00400169914236 0 1 1
1182 3 1 0 11.738986385896133 19.174287021322634 10.750513592265406 0 1 1
1608 4 3 0 6.812670860718441 19.52603099258668 10.15482917123175 1 0 0
1606 4 2 0 6.243385196177051 18.292656090153542 10.7638228970002 1 0 0
1181 3 2 0 12.891552219592107 18.21138072401132 10.607614114359006 0 1 1
5575 14 2 0 9.338535719459136 23.628263670482987 9.689876175004661 1 1 0
5574 14 2 0 7.955645160677252 23.516729740059656 9.002363757143744 1 1 0
7436 19 2 0 34.03906902586078 14.44986387872901 6.747077528913088 0 0 0
1905 5 2 0 15.168082054147531 34.06003158575926 17.030439455778293 1 1 0
3775 10 2 0 9.241924766296044 22.383887931249372 5.540134335700685 0 0 1
2831 8 2 0 12.918687274055175 23.820445507796773 12.758985332538918 1 0 0
1186 3 1 0 7.989312941859184 21.7289031983779 13.240882300789716 0 1 1
1185 3 2 0 9.081110040552375 20.610381750591813 13.115435279292718 0 1 1
2830 8 2 0 13.275195278017728 22.37711492657166 12.323436780284371 1 0 0
5576 14 1 0 9.943430014084502 25.015288550356317 9.841595684095036 1 1 0
1187 3 1 0 6.739153189843372 21.318278333526216 13.515923831091907 0 1 1
1188 3 2 0 5.569894079359385 22.211319134509434 13.919843920681947 0 1 1
1829 5 2 0 32.955276983783435 26.16076401245431 25.401220743686356 1 1 0
1572 4 1 0 5.202467708591468 8.293938965984745 23.792376868616344 1 0 0
7439 19 1 0 33.09353207002917 11.436433871629895 5.745087891193166 0 0 0
1051 3 1 0 33.86105002021157 13.424387445925056 20.82778756977254 0 1 1
1180 3 2 0 13.884217206659558 17.851953421242428 11.850629426945353 0 1 1
1179 3 1 0 14.835440670574418 16.661797212080103 11.527408489744357 0 1 1
2828 8 1 0 13.055799367908591 22.28366284290726 9.892362516068754 1 0 0
3759 10 2 0 17.692686922938083 20.888402528952955 5.0610593624364775 0 0 1
4365 11 2 0 20.056996687795063 16.215068202284108 6.6203609972347115 -1 0 1
3753 10 1 0 16.18087627085604 16.145970284699175 5.984465972206663 0 0 1
3755 10 2 0 15.050132815605512 18.177677990562607 7.003733185438033 0 0 1
2829 8 1 0 13.886236752795877 22.377923103551954 10.9317401001943 1 0 0
4366 11 1 0 21.317227634479302 16.523069924670942 7.416715034958773 -1 0 1
4367 11 1 0 21.08384195915045 17.167450783488803 8.53924690925391 -1 0 1
1178 3 1 0 16.153525582822503 16.853539448066623 11.485408419234268 0 1 1
1177 3 2 0 16.647629769655175 18.24829000832611 11.586909845781527 0 1 1
1176 3 2 0 17.875629025103354 18.446120207539053 10.709938927161634 0 1 1
1175 3 1 0 18.284634582047584 19.899731951144858 10.89284289329883 0 1 1
1174 3 1 0 17.318876173072642 20.84086910221518 10.922322102809229 0 1 1
1173 3 2 0 17.57643638818506 22.24154026765848 11.452393142102919 0 1 1
4368 11 2 0 22.27993710462374 17.333158177334784 9.50995775185703 -1 0 1
4370 11 1 0 23.19663061955868 18.41063866481951 11.670019512988656 -1 0 1
4369 11 2 0 22.102225606027126 18.438451078914078 10.55528572786782 -1 0 1
6843 18 2 0 22.105343143566504 23.87219787310888 7.054138038834749 1 0 1
1172 3 2 0 17.24681633512006 22.432463423022494 12.94385712543173 0 1 1
3756 10 1 0 16.03480130236864 19.041119751329305 6.281755171512959 0 0 1
3754 10 2 0 15.50782263455752 16.767791352759886 7.237898322534951 0 0 1
3757 10 1 0 17.147993916043486 19.372187274786434 6.9629834173563365 0 0 1
1171 3 1 0 17.3944200241556 23.905298419139093 13.480679302919658 0 1 1
3758 10 2 0 18.196077021662127 20.19315023579245 6.317517583586591 0 0 1
6844 18 1 0 22.585371026834256 25.332255507896765 6.759738501018203 1 0 1
4371 11 1 0 24.027074217315477 19.411125615383174 11.74266571922926 -1 0 1
4372 11 2 0 23.836841104161852 20.661947985465282 10.770541785400662 -1 0 1
1874 5 1 0 25.325202393217268 22.25747404381532 14.314374911280408 1 1 0
1875 5 1 0 23.955654877734382 22.366671734058585 14.363901100713111 1 1 0
2279 6 2 0 24.97716433106038 19.351158147596735 5.114216915522872 0 0 1
1873 5 2 0 26.079729898986187 21.21434131482761 15.147475744985021 1 1 0
2827 8 2 0 13.834940392093229 22.207050199146014 8.568594730715839 1 0 0
6842 18 2 0 22.463015410940056 22.849322209611948 5.983328381498742 1 0 1
1828 5 2 0 33.447619002112305 26.190795539508105 26.83950232516903 1 1 0
2826 8 2 0 13.918192134931967 23.539407268057552 7.825894259837666 1 0 0
2825 8 1 0 15.330791502118032 23.67845195162532 7.181426216427434 1 0 0
6792 17 2 0 15.577174043690276 12.42678065750861 33.73971670985594 0 1 0
3106 8 2 0 5.5673505954034095 32.919741762652535 28.126274961988187 1 0 0
2282 6 2 0 26.34946888243936 17.212097069061734 8.17953393282078 0 0 1
4373 11 2 0 25.183514745118092 21.410920243678845 10.57211700496094 -1 0 1
2281 6 1 0 25.552380425934796 18.248443447675108 7.2893689819213545 0 0 1
7427 19 1 0 30.325869204069768 18.013132884948682 9.938780584754632 0 0 0
4209 11 2 0 33.02556324383565 23.291486028772773 9.245060085577364 -1 0 1
4205 11 2 0 29.57789351604266 23.58942082069908 7.42980748372514 -1 0 1
4374 11 1 0 26.14072258352254 20.70871480946044 9.686999908569664 -1 0 1
4375 11 1 0 27.381670508704275 20.500082858017148 10.047288771130187 -1 0 1
4376 11 2 0 27.896271121608624 20.995328540906957 11.382120390608389 -1 0 1
4379 11 1 0 28.66327806993818 23.692872805877737 13.28996908882793 -1 0 1
4377 11 2 0 28.943337736066987 22.140852716211164 11.292182201176866 -1 0 1
4378 11 1 0 29.179723033561974 22.592796069218643 12.754761589457104 -1 0 1
4206 11 1 0 30.48535242703914 22.525611198915296 6.718162517008346 -1 0 1
4208 11 2 0 32.350262175736404 23.641763902920786 7.933225861624094 -1 0 1
4207 11 1 0 31.827412716697097 22.58900376901671 6.9192746518841215 -1 0 1
4204 11 2 0 28.20011398410635 23.126939024587085 7.717244081781722 -1 0 1
3276 9 2 0 27.279644443676162 17.949420517980762 13.693034840034803 1 0 1
7426 19 1 0 30.68638968883712 18.548773771289948 8.788123195644964 0 0 0
4203 11 1 0 27.27239273104614 24.28711452193492 7.698115680208055 -1 0 1
2280 6 1 0 25.663673393703718 18.234364087895088 5.9655737204799095 0 0 1
3275 9 1 0 28.768034639597342 18.091678302542864 14.159324028288816 1 0 1
3278 9 1 0 25.3610688179309 16.274244817688796 13.431315277100133 1 0 1
3277 9 2 0 26.9108477033113 16.425069419645382 13.389903566585161 1 0 1
7424 19 2 0 32.86763473834168 18.362078357618895 7.3887559520940655 0 0 0
7425 19 2 0 32.199964718619604 18.954076786163533 8.629531651322742 0 0 0
4380 11 2 0 27.69845924532499 24.6414243951013 12.45467286791978 -1 0 1
14 1 1 0 16.216481304588047 8.866532388300348 6.07916641613516 0 1 1
7429 19 2 0 31.095799741746557 16.504250102347704 11.895086830119634 0 0 0
6435 17 1 0 29.242506343629167 18.485498526995897 4.983399758537349 0 1 1
7428 19 2 0 31.263938295701685 17.767156546625287 11.10146507870518 0 0 0
10 1 1 0 11.709193661330286 7.4903668638935565 4.88128230606961 0 1 1
3270 9 1 0 32.78268707132546 20.903260471140218 14.117562489542516 1 0 1
12 1 2 0 14.01387933594354 7.918191602606697 5.333705764411646 0 1 1
3319 9 1 0 33.321156315786 9.567799904769556 24.900397545043713 1 0 1
2834 8 2 0 11.130070558211866 25.768808638008 13.539885516208937 1 0 0
3776 10 1 0 9.920575646936722 23.79241847880523 5.237136565067185 0 0 1
5573 14 1 0 6.929072521820374 24.433751175882954 9.668544266893491 1 1 0
5572 14 1 0 6.467508541389274 25.56747716165931 9.095153612243292 1 1 0
5580 14 1 0 11.882081957597437 28.70163073780824 10.559097996530188 1 1 0
5579 14 2 0 11.009649032671147 27.57290449768498 9.96500296211961 1 1 0
5581 14 1 0 11.660708147090425 30.016517640505985 10.452628496555668 1 1 0
5566 14 2 0 6.470350285950211 30.99206964005281 6.196709066507245 1 1 0
5583 14 2 0 9.878661690566233 31.75677956651063 10.325814414545329 1 1 0
5582 14 2 0 10.433248111667286 30.477365992044206 9.647188746468505 1 1 0
5584 14 1 0 8.438521050458663 32.22006572044253 9.815997319905414 1 1 0
5585 14 1 0 7.3345979475443155 31.86605244878086 10.479701208064862 1 1 0
5586 14 2 0 7.461527961107995 30.953847210655958 11.740753398264488 1 1 0
5567 14 2 0 6.48191344250681 29.497371327883645 5.950687441628344 1 1 0
1926 5 1 0 12.498285116022789 29.479928291581913 6.644306752256625 1 1 0
1924 5 2 0 11.79970297382638 31.93344972682529 6.169493134999999 1 1 0
1925 5 2 0 11.349907187283497 30.48215006339639 6.314941138958755 1 1 0
5568 14 1 0 7.929057966026913 28.99014487887012 5.872628521467855 1 1 0
5569 14 1 0 8.329678607631434 28.03533328772531 6.694917667452574 1 1 0
5570 14 2 0 7.583013557045559 27.570008535655063 7.866006963207601 1 1 0
5571 14 2 0 6.895794684195462 26.200897222884098 7.800253882721853 1 1 0
1927 5 1 0 12.607278200765485 28.352247006097816 5.961587436496268 1 1 0
1928 5 2 0 13.900213733531912 27.506785861152927 6.037837314767112 1 1 0
5577 14 1 0 11.123980532335983 25.16808117482109 9.17505673591915 1 1 0
5578 14 2 0 11.849012572059243 26.54208198781853 9.230629473249978 1 1 0
1923 5 1 0 10.779166053058564 33.00590018438231 5.976316067816416 1 1 0
1899 5 1 0 11.293572099483534 33.08644689694039 13.870700107555724 1 1 0
1896 5 2 0 14.672096504440788 33.122658293066465 12.154534876022181 1 1 0
1897 5 2 0 13.124482916515197 32.82049746748376 12.36112839754868 1 1 0
1894 5 1 0 14.49146692799545 32.1055846113016 9.871264486447071 1 1 0
2835 8 2 0 9.634754578783422 25.56448586870227 13.154076736410945 1 0 0
2836 8 1 0 8.538157540729484 26.088916157047475 14.051252341571077 1 0 0
2838 8 2 0 6.535403996279507 27.48242992107797 14.461832544414191 1 0 0
2837 8 1 0 7.740656342289231 27.028042698760395 13.604132183996558 1 0 0
3215 8 3 0 15.609655640486702 29.808227436943575 15.291457416923604 1 0 0
3296 9 2 0 21.84505655152291 5.403741500542901 12.84413477439436 1 0 1
1261 4 1 0 33.33617053823557 19.45108542534212 32.21519866471472 0 0 0
4419 11 1 0 15.63122059507137 34.06390946972091 30.78365849800476 -1 0 1
5587 14 2 0 7.374936266800809 31.73733657866964 13.050672988519574 1 1 0
1771 5 1 0 5.262562180884288 5.455105463326065 16.646854121682225 2 1 0
1264 4 1 0 33.21096539367964 15.527771294352808 31.93074196125757 0 0 0
6846 18 2 0 20.840805102727412 25.792807016141044 5.070250887159839 1 0 1
1448 4 1 0 5.227015286482758 12.476099095243 28.59704378321948 1 0 0
4404 11 2 0 22.453772548150845 33.975141520646574 21.403879014391833 -1 0 1
1259 4 2 0 32.82788562515905 21.528403723871122 33.52836510075888 0 0 0
1929 5 2 0 14.882942526098937 28.306968111601883 5.140337231192396 1 1 0
1895 5 1 0 15.21939508518344 32.45613849360552 10.923928726688032 1 1 0
2788 7 2 0 33.791112170012326 14.089361868912812 16.039120162271583 1 0 1
1876 5 2 0 23.17672654630735 23.30077895459063 13.539890520915293 1 1 0
1877 5 2 0 23.97960213392832 24.412899838098816 12.9528955442194 1 1 0
1893 5 2 0 15.137336489354611 31.308846736154152 8.68362873334955 1 1 0
2824 8 1 0 16.231858445730047 24.551738810130455 7.506829925609669 1 0 0
2823 8 2 0 15.90309977049769 25.57783498557376 8.601537009803298 1 0 0
2820 8 1 0 18.755665226459165 26.302798634923736 10.581965923274973 1 0 0
2821 8 1 0 18.08815638054287 25.444287228861043 9.804060003294794 1 0 0
2822 8 2 0 16.526787187783675 25.312580868105922 9.9385392114429 1 0 0
1886 5 1 0 22.2111505054808 32.365959172859306 8.759078070784525 1 1 0
1888 5 2 0 20.32243891677738 30.799186866150723 8.789277885365845 1 1 0
1892 5 2 0 16.477053618728323 30.754716703882735 9.064614744307327 1 1 0
1889 5 2 0 19.05778758978925 31.191641212492147 7.909512249731606 1 1 0
1887 5 1 0 21.05578769176135 32.037661753464995 9.300599324866498 1 1 0
1890 5 1 0 18.21894418835868 29.895102017799896 7.556644993284705 1 1 0
1891 5 1 0 17.050463414535905 29.734279378949985 8.042343975821908 1 1 0
1885 5 2 0 22.934573532576607 31.70801856966682 7.561552461555747 1 1 0
2819 8 2 0 17.969438797219382 26.97015907079905 11.763380354818224 1 0 0
2818 8 2 0 17.78023985815707 28.508428504070544 11.85928598366301 1 0 0
6847 18 2 0 19.843630503929276 26.86652360208945 5.310504109515284 1 0 1
3252 9 2 0 21.174291378809507 29.080164828049313 14.192976007541601 1 0 1
3251 9 1 0 21.339802539776404 30.448423942237476 13.614822376282772 1 0 1
1878 5 1 0 23.58223842014485 25.188174001714117 11.787695585741034 1 1 0
1879 5 1 0 23.774577398007597 26.524783976773396 11.947099244617874 1 1 0
1880 5 2 0 23.288341860953487 27.487045641048294 10.899269088330575 1 1 0
2817 8 1 0 16.923566898470824 28.82261111927978 13.147330318514133 1 0 0
2816 8 1 0 15.597081564339936 29.048751794260887 12.908445865439662 1 0 0
6848 18 1 0 20.32621595036628 28.29386426686553 4.943279806030816 1 0 1
1759 5 1 0 8.405755033993218 5.725696284701492 24.831737016095317 2 1 0
6845 18 1 0 22.009507170875796 26.21623259447764 5.997468422927819 1 0 1
3250 9 1 0 22.55093609461661 30.795018141055856 13.129981842762279 1 0 1
3249 9 2 0 22.740617276442364 32.16907714217578 12.485615979393032 1 0 1
5898 15 1 0 27.58228454680077 20.24313907376002 33.92785585610238 0 1 0
117 1 2 0 10.825352389421163 5.664510966441219 17.397301377601345 0 1 1
3253 9 2 0 22.467972101298113 28.36873674535506 14.679717513201892 1 0 1
1262 4 2 0 33.17901471589839 18.084990567940288 31.507158068350968 0 0 0
4201 11 2 0 26.02769763439538 25.872851686792828 6.317431142600142 -1 0 1
4202 11 1 0 26.87552987325108 24.66547904829695 6.520946781653031 -1 0 1
3265 9 2 0 31.916059241307853 24.997626270293072 14.122140107500085 1 0 1
3264 9 2 0 31.587143788198098 26.47960482412511 14.443515312605625 1 0 1
4246 11 1 0 27.33017237322531 31.80671724944648 6.087387799274611 -1 0 1
4229 11 2 0 32.70531390445787 32.78510497019347 12.788613013336466 -1 0 1
6392 16 1 0 15.634023470597638 32.53768797087501 5.280836320092708 1 0 0
1769 5 2 0 4.8765178478918045 7.854246051834737 17.315034597687138 2 1 0
3248 9 2 0 24.085248176320167 32.95315509946118 12.809185335623587 1 0 1
4245 11 2 0 28.347287908476897 31.275376292565767 7.10539201662752 -1 0 1
1881 5 2 0 24.408398082156737 28.228122886210496 10.02987107808067 1 1 0
1882 5 1 0 23.94622697578124 29.310877254333004 9.061141584684988 1 1 0
1883 5 1 0 24.686932346554723 30.42539617918188 8.960374468491572 1 1 0
1884 5 2 0 24.397137753796127 31.555122710881705 7.914191523110016 1 1 0
4157 11 2 0 31.63374768273745 27.620758189921542 6.527351983647151 -1 0 1
4381 11 2 0 28.294848166173107 25.956505493665656 12.075975159880901 -1 0 1
4382 11 1 0 27.43326465656275 26.777454040698863 11.158184675617656 -1 0 1
4383 11 1 0 27.216825907605752 28.10698641168137 11.307713910382516 -1 0 1
4162 11 1 0 31.69861415554169 28.761553906682234 10.99122970030836 -1 0 1
4384 11 2 0 27.85695204637727 28.81654028514228 12.49820642812672 -1 0 1
4158 11 1 0 30.22808395638768 27.10078764934825 6.7826600692564165 -1 0 1
4159 11 1 0 29.730676728369062 27.3494571620705 7.9869700714280425 -1 0 1
4385 11 2 0 27.269045250391063 30.187231705410124 12.888994395512992 -1 0 1
4242 11 1 0 29.773868846846597 32.25470747516508 10.32771761270515 -1 0 1
4243 11 1 0 29.80672955060938 31.895472291951595 9.07885206092688 -1 0 1
4160 11 2 0 30.59388664841002 28.24860502944843 8.898859244260779 -1 0 1
4161 11 2 0 30.94710518585931 27.696043928355337 10.243057719248363 -1 0 1
4386 11 1 0 27.696171113180448 30.61049447112822 14.325492856468056 -1 0 1
4387 11 1 0 28.950607029136023 30.9944324848073 14.49168227296673 -1 0 1
4244 11 2 0 28.815271675792488 32.4147203874239 8.007535692755235 -1 0 1
4241 11 2 0 28.631041742057022 33.2736770164767 10.754266165682845 -1 0 1
5931 15 1 0 32.93483160761667 32.589273538355386 25.233288199508824 0 1 0
2291 6 2 0 33.493785444194366 10.270359096420286 9.135439646832427 0 0 1
4342 11 1 0 22.839263552488504 7.475576135576153 5.573776871589463 -1 0 1
3263 9 1 0 30.34888634799253 26.549321996083552 15.355028028193672 1 0 1
3262 9 1 0 30.485181434845117 26.165040288259824 16.620198100478433 1 0 1
1594 4 2 0 10.486489010084112 8.95784657008036 14.539042220204532 1 0 0
1593 4 1 0 9.000658451206775 8.837912393291578 14.473429828848149 1 0 0
6749 17 2 0 21.11689361242204 13.043344685539736 33.774813669490335 0 1 0
5297 14 1 0 31.92711034619487 30.409005707137776 28.16470681804232 0 1 0
5788 15 2 0 5.125367615432249 6.8138307444712884 33.376046001215784 1 1 0
6433 17 2 0 29.222751147902855 16.22079383615614 5.778436544367415 0 1 1
5291 14 2 0 26.27415842442 29.613169353451834 26.624347784497665 0 1 0
1761 5 2 0 10.00729298364119 6.541991191748346 22.993881928510373 2 1 0
6273 16 1 0 6.271129663842116 12.596238616622028 15.37791661646657 1 0 0
6272 16 1 0 7.580820048494958 12.67950289445134 15.43420801019505 1 0 0
1768 5 2 0 6.144249112781868 8.309437130631384 18.106484461729096 2 1 0
1766 5 1 0 6.877672240782322 9.44591355472156 20.131373281254643 2 1 0
1765 5 2 0 7.705247556398563 8.177004319092891 20.34273796703426 2 1 0
1764 5 2 0 9.293190100743928 8.390210823960196 20.61153397652299 2 1 0
119 1 1 0 12.985008317912643 6.1362061295338 16.22137825133268 0 1 1
6268 16 1 0 8.837467279375275 12.440172531503041 19.91115784864118 1 0 0
6271 16 2 0 8.331739742849079 13.347348037961686 16.568661388607556 1 0 0
1762 5 1 0 10.386530838197514 6.365722464885995 21.53187938853255 2 1 0
1763 5 1 0 10.15663020979438 7.1471872098591 20.4801701495025 2 1 0
118 1 1 0 11.754719740802066 6.516016545457719 16.504798187382974 0 1 1
6548 17 2 0 13.238425781400894 10.038107588566564 19.622923975709835 0 1 0
6546 17 1 0 13.025815009936727 8.754412495557261 21.594531994898208 0 1 0
1571 4 2 0 6.010862309737754 9.527536087533447 24.194030068272653 1 0 0
6544 17 2 0 12.33711863283538 9.107096694097198 24.02189853579606 0 1 0
6545 17 2 0 13.400721583053722 8.475144601036925 23.075241670588913 0 1 0
1767 5 1 0 6.051436899761644 9.48777171535659 19.11163712751091 2 1 0
6269 16 1 0 9.474042265564162 12.687891330274265 18.806903086301567 1 0 0
6270 16 2 0 8.961234327731555 12.259333729261495 17.423934593275952 1 0 0
6267 16 2 0 9.437215156453389 12.821751695816651 21.23832920060075 1 0 0
120 1 2 0 13.94606007679215 6.992622489527847 15.4110191678338 0 1 1
1570 4 2 0 7.515763261556922 9.319875236737275 24.579319593920868 1 0 0
2686 7 1 0 24.126461349041776 31.10471365469995 33.75105957305682 1 -1 0
6547 17 1 0 13.575598365374427 9.769049002714262 21.024746232671067 0 1 0
6550 17 1 0 15.181813856877596 11.597389565665864 19.477234870730644 0 1 0
6549 17 2 0 14.524922222958468 10.410560621084855 18.751580276444862 0 1 0
6265 16 1 0 11.760607528766245 12.982382018442612 22.350950014415144 1 0 0
6264 16 1 0 12.245317866237968 14.060905551671684 22.966911621437884 1 0 0
6266 16 2 0 10.943526520018565 13.189475132020078 21.07675996215143 1 0 0
1569 4 1 0 8.469945169682067 10.486316235968687 24.810522270035637 1 0 0
5907 15 1 0 31.61973584569561 25.68353320004815 31.162972432200764 0 1 0
3291 9 1 0 21.320189883248343 10.72676103439194 15.979665413127757 1 0 1
3266 9 1 0 33.235657032098885 24.850557189570587 13.306295975265899 1 0 1
6551 17 1 0 15.195642079621992 12.77273839292546 18.88347970888255 0 1 0
6552 17 2 0 14.341497124840473 12.91263806376802 17.65242157482887 0 1 0
122 1 1 0 16.11663866916313 8.3978098829986 15.651562594844844 0 1 1
121 1 2 0 15.270597345608277 7.205815181512254 16.203045481459363 0 1 1
130 1 1 0 21.087004048309183 5.968099762676845 20.69844206929629 0 1 1
6773 17 2 0 16.47315158477058 7.0590484497923285 20.345754588404894 0 1 0
6772 17 2 0 17.894411731821556 7.691086799844882 20.387696687528965 0 1 0
6771 17 1 0 18.131625032147532 9.089518729163675 20.964312859707007 0 1 0
6770 17 1 0 18.448099475588993 9.256537296179815 22.215733817386838 0 1 0
6769 17 2 0 18.663560113512325 8.100436305101692 23.16928403943012 0 1 0
3290 9 1 0 20.01870446198115 10.839254488246814 15.642051056052194 1 0 1
3289 9 2 0 19.083330100360627 11.965296835847747 16.191882518015213 1 0 1
6768 17 2 0 17.480317954750447 7.773103685678869 24.051645318716243 0 1 0
3288 9 2 0 19.811734781729527 12.524240371960722 17.464878632782277 1 0 1
7886 20 2 0 23.00868775398793 10.299750908014762 20.350890648144755 1 0 1
7885 20 1 0 23.100180871594457 9.959976340525056 21.894897233893847 1 0 1
7888 20 1 0 23.36487942962708 12.332254828697915 18.708371018244385 1 0 1
7887 20 2 0 23.230096124922667 11.747412511339519 20.095573890182845 1 0 1
7884 20 1 0 22.008103280692954 9.775031174526259 22.619326265722997 1 0 1
3287 9 1 0 18.95072575607618 13.442609347701715 18.400404288573434 1 0 1