units real
atom_style full
boundary p p p

# --- Force Field Styles ---
pair_style lj/class2/coul/long 9.5 9.5
kspace_style pppm 1e-4
dielectric 1.000000
bond_style class2
angle_style class2
dihedral_style class2
improper_style class2
special_bonds lj/coul 0 0 1
pair_modify mix sixthpower tail yes
neighbor 2.0 bin
neigh_modify delay 0 every 1 check yes
neigh_modify one 4000
package gpu 1 neigh no

read_data /home/arz2/PolyJarvis/data/PMMA1/lammps/npt_compress/npt_compress_out.data
Reading data file ...
  orthogonal box = (6.1601974 6.1601974 6.1601974) to (41.882785 41.882785 41.882785)
  2 by 2 by 2 MPI processor grid
  reading atoms ...
  6020 atoms
  reading velocities ...
  6020 velocities
  scanning bonds ...
  4 = max bonds/atom
  scanning angles ...
  6 = max angles/atom
  scanning dihedrals ...
  32 = max dihedrals/atom
  scanning impropers ...
  4 = max impropers/atom
  orthogonal box = (6.1601974 6.1601974 6.1601974) to (41.882785 41.882785 41.882785)
  2 by 2 by 2 MPI processor grid
  reading bonds ...
  6010 bonds
  reading angles ...
  11200 angles
  reading dihedrals ...
  15110 dihedrals
  reading impropers ...
  6800 impropers
Finding 1-2 1-3 1-4 neighbors ...
  special bond factors lj:    0        0        1       
  special bond factors coul:  0        0        1       
     4 = max # of 1-2 neighbors
    11 = max # of 1-3 neighbors
    15 = max # of special neighbors
  special bonds CPU = 0.001 seconds
  read_data CPU = 0.315 seconds
include /home/arz2/PolyJarvis/data/PMMA1/lammps/emc_build.params
# LAMMPS parameters created by EMC v9.4.4, build Jul 31 2025 20:33:44

# Variables

variable	seed		index	-1
variable	ntotal		index	6020
variable	fshape		index	1
variable	o
CITE-CITE-CITE-CITE-CITE-CITE-CITE-CITE-CITE-CITE-CITE-CITE-CITE

Your simulation uses code contributions which should be cited:
- GPU package (short-range, long-range and three-body potentials): doi:10.1016/j.cpc.2010.12.021, doi:10.1016/j.cpc.2011.10.012, doi:10.1016/j.cpc.2013.08.002, doi:10.1016/j.commatsci.2014.10.068, doi:10.1016/j.cpc.2016.10.020, doi:10.3233/APC200086
The log file lists these citations in BibTeX format.

CITE-CITE-CITE-CITE-CITE-CITE-CITE-CITE-CITE-CITE-CITE-CITE-CITE

PPPM initialization ...
  using 12-bit tables for long-range coulomb
  G vector (1/distance) = 0.25370022
  grid = 15 15 15
  stencil order = 5
  estimated absolute RMS force accuracy = 0.021980789
  estimated relative force accuracy = 6.6194494e-05
  using double precision KISS FFT
  3d grid and FFT values/proc = 2197 512

--------------------------------------------------------------------------
- Using acceleration for pppm:
-  with 8 proc(s) per device.
-  with 1 thread(s) per proc.
-  Horizontal vector operations: ENABLED
-  Shared memory system: No
--------------------------------------------------------------------------
Device 0: Quadro RTX 6000, 72 CUs, 16/24 GB, 1.8 GHZ (Mixed Precision)
--------------------------------------------------------------------------

Initializing Device and compiling on process 0...Done.
Initializing Device 0 on core 0...Done.
Initializing Device 0 on core 1...Done.
Initializing Device 0 on core 2...Done.
Initializing Device 0 on core 3...Done.
Initializing Device 0 on core 4...Done.
Initializing Device 0 on core 5...Done.
Initializing Device 0 on core 6...Done.
Initializing Device 0 on core 7...Done.


--------------------------------------------------------------------------
- Using acceleration for lj/class2/coul/long:
-  with 8 proc(s) per device.
-  with 1 thread(s) per proc.
-  Horizontal vector operations: ENABLED
-  Shared memory system: No
--------------------------------------------------------------------------
Device 0: Quadro RTX 6000, 72 CUs, 16/24 GB, 1.8 GHZ (Mixed Precision)
--------------------------------------------------------------------------

Initializing Device and compiling on process 0...Done.
Initializing Device 0 on core 0...Done.
Initializing Device 0 on core 1...Done.
Initializing Device 0 on core 2...Done.
Initializing Device 0 on core 3...Done.
Initializing Device 0 on core 4...Done.
Initializing Device 0 on core 5...Done.
Initializing Device 0 on core 6...Done.
Initializing Device 0 on core 7...Done.

Generated 15 of 15 mixed pair_coeff terms from sixthpower/sixthpower mixing rule
Neighbor list info ...
  update: every = 1 steps, delay = 0 steps, check = yes
  max neighbors/atom: 4000, page size: 100000
  master list distance cutoff = 11.5
  ghost atom cutoff = 11.5
  binsize = 5.75, bins = 7 7 7
  1 neighbor lists, perpetual/occasional/extra = 1 0 0
  (1) pair lj/class2/coul/long/gpu, perpetual
      attributes: full, newton on
      pair build: full/bin
      stencil: full/bin/3d
      bin: standard
Setting up Verlet run ...
  Unit style    : real
  Current step  : 0
  Time step     : 1
Per MPI rank memory allocation (min/avg/max) = 24.69 | 24.7 | 24.71 Mbytes
   Step          Time           Temp          Press         Enthalpy        TotEng         KinEng         PotEng         E_bond        E_angle        E_dihed        E_impro         E_vdwl         E_coul         E_long         E_tail         Volume           Lx             Ly             Lz          Density          Pxx            Pyy            Pzz      
         0   0              623.2113       47230.126      67071.293      35671.721      11181.343      24490.378      4918.7401      7617.427      -770.57699      292.62949      2598.6432      28666.656     -18833.141     -551.32351      45585.711      35.722588      35.722588      35.722588      1.4595279      49774.261      45883.825      46032.293    
      1000   1000           632.25206      51675.829      70311.613      36000.817      11343.548      24657.269      4680.7631      7817.1047     -769.49164      292.93259      2773.485       28701.709     -18839.234     -552.03649      45526.835      35.707202      35.707202      35.707202      1.4614154      54970.154      45261.021      54796.312    
      2000   2000           618.75229      53204.871      70868.784      35636.282      11101.341      24534.941      4580.5005      7586.9815     -706.31947      308.10377      2884.5371      28720.846     -18839.708     -553.50181      45406.309      35.675664      35.675664      35.675664      1.4652945      53950.201      52162.025      53502.386    
      3000   3000           628.33971      44808.516      65679.477      35799.135      11273.354      24525.781      4888.3982      7785.3002     -701.02927      276.75627      2418.3581      28691.651     -18833.654     -549.64989      45724.515      35.758808      35.758808      35.758808      1.4550973      41729.316      41297.73       51398.504    
      4000   4000           622.81566      49770.859      68829.019      35741.666      11174.245      24567.422      4762.6065      7686.9342     -736.37754      319.10495      2674.467       28696.794     -18836.108     -551.34602      45583.85       35.722102      35.722102      35.722102      1.4595875      51547.6        46539.499      51225.477    
      5000   5000           623.84926      50697.124      69419.956      35657.902      11192.789      24465.113      4671.5912      7764.0552     -727.53239      298.63346      2617.0782      28674.608     -18833.321     -550.38374      45663.548      35.742908      35.742908      35.742908      1.45704        49607.487      51456.877      51027.007    
      6000   6000           632.66554      50456.423      69403.086      35894.781      11350.966      24543.814      4702.8734      7789.6621     -814.51119      266.67979      2758.0122      28679.806     -18838.708     -551.91873      45536.549      35.709741      35.709741      35.709741      1.4611036      52119.756      45464.325      53785.188    
      7000   7000           637.8442       50996.244      69966.077      36126.457      11443.879      24682.578      4817.7073      7761.0725     -747.54561      309.04682      2687.2085      28694.574     -18839.486     -552.36206      45500.001      35.700185      35.700185      35.700185      1.4622772      52061.724      50302.486      50624.521    
      8000   8000           637.33769      48721.559      68350.446      35954.031      11434.791      24519.24       4804.7501      7762.952      -760.99507      291.18735      2570.1391      28683.369     -18832.163     -551.2332       45593.18       35.724539      35.724539      35.724539      1.4592888      49750.955      48386.465      48027.258    
      9000   9000           629.17359      48016.596      67821.854      35829.956      11288.315      24541.641      4861.1467      7760.7929     -761.4856       288.14959      2510.0482      28713.551     -18830.562     -550.12641      45684.908      35.74848       35.74848       35.74848       1.4563588      49908.352      46840.722      47300.715    
     10000   10000          617.41156      46975.646      66920.535      35658.146      11077.287      24580.859      4798.1678      7705.4861     -646.44942      298.41608      2551.9195      28701.809     -18828.49      -550.75916      45632.422      35.734785      35.734785      35.734785      1.4580339      47713.142      46981.407      46232.389    
     11000   11000          628.44425      47111.996      67252.891      35869.277      11275.23       24594.048      4757.2371      7933.6359     -771.13044      288.14222      2513.158       28700.75      -18827.745     -550.2242       45676.788      35.746362      35.746362      35.746362      1.4566177      43746.007      45973.892      51616.091    
     12000   12000          618.87093      50920.358      69544.027      35748.344      11103.47       24644.874      4708.6898      7696.1362     -696.45234      294.95882      2756.3442      28715.835     -18830.638     -552.25717      45508.642      35.702445      35.702445      35.702445      1.4619996      50989.484      49300.627      52470.964    
     13000   13000          639.78739      50239.638      69352.407      35904.523      11478.743      24425.781      4697.6031      7768.4476     -714.46898      298.97548      2506.2237      28701.354     -18832.354     -550.54014      45650.575      35.739523      35.739523      35.739523      1.457454       51097.052      49007.265      50614.597    
     14000   14000          626.72062      48764.495      68176.635      35616.482      11244.305      24372.177      4820.4199      7675.7788     -791.62907      283.10643      2510.9065      28709.545     -18835.951     -548.94449      45783.27       35.774118      35.774118      35.774118      1.4532299      50833.814      46940.892      48518.78     
     15000   15000          633.88899      48302.341      68197.717      36058.997      11372.917      24686.081      4768.6717      7867.2258     -779.36251      294.91892      2683.4248      28685.014     -18833.812     -550.87206      45623.07       35.732344      35.732344      35.732344      1.4583327      50004.022      47081.699      47821.302    
     16000   16000          637.43728      50304.711      69481.074      35954.357      11436.578      24517.779      4843.9336      7606.8541     -708.77509      300.78037      2607.9937      28705.289     -18838.297     -549.95705      45698.977      35.75215       35.75215       35.75215       1.4559104      51781.545      47494.91       51637.679    
     17000   17000          632.7147       50361.371      69458.97       35921.051      11351.848      24569.203      4650.1722      7791.908      -595.30599      279.37049      2579.8841      28698.464     -18835.29      -550.39258      45662.814      35.742717      35.742717      35.742717      1.4570634      50661.157      48832.501      51590.456    
     18000   18000          629.7322       49753.224      68723.248      35522.925      11298.338      24224.588      4777.1765      7575.3747     -771.34549      284.29861      2487.2505      28700.605     -18828.772     -549.27528      45755.699      35.766936      35.766936      35.766936      1.4541055      52345.159      47764.27       49150.241    
     19000   19000          623.22293      47100.976      67293.839      35824.578      11181.551      24643.026      4821.1401      7914.151      -686.26082      326.04112      2409.0286      28690.689     -18831.763     -548.59834      45812.159      35.781641      35.781641      35.781641      1.4523135      46456.832      47219.586      47626.51     
     20000   20000          630.92256      49196.083      68699.799      35941.516      11319.694      24621.821      4809.1575      7815.4703     -799.11667      303.70647      2607.0098      28719.069     -18833.476     -550.45335      45657.773      35.741401      35.741401      35.741401      1.4572243      47594.912      50624.295      49369.042    
     21000   21000          623.68266      46957.505      67050.841      35708.678      11189.8        24518.879      4773.4925      7788.3844     -772.36198      298.58619      2591.0166      28670.246     -18830.485     -549.14519      45766.538      35.76976       35.76976       35.76976       1.4537612      47308.531      43846.231      49717.752    
     22000   22000          643.50474      48035.736      68278.26       36223.883      11545.438      24678.445      4853.7451      7886.6022     -653.81752      295.33245      2457.4091      28673.718     -18834.544     -549.27299      45755.89       35.766985      35.766985      35.766985      1.4540995      50923.897      42578.253      50605.057    
     23000   23000          628.73992      43411.753      64747.244      35719.677      11280.535      24439.142      4654.7133      7910.3201     -704.7916       285.16882      2433.0283      28696.619     -18835.916     -548.16061      45848.742      35.791163      35.791163      35.791163      1.4511547      43474.717      42006.291      44754.251    
     24000   24000          632.75888      45198.416      66233.096      35952.322      11352.641      24599.681      4828.5223      7799.1945     -649.28069      317.84281      2431.8781      28707.247     -18835.723     -547.10084      45937.554      35.814258      35.814258      35.814258      1.4483491      45710.108      45035.984      44849.158    
     25000   25000          626.11101      47582.356      67485.145      35646.999      11233.368      24413.632      4674.4671      7865.4549     -759.6314       294.9988       2448.9903      28722.653     -18833.302     -547.78397      45880.266      35.799364      35.799364      35.799364      1.4501576      47671.445      45391.733      49683.89     
     26000   26000          633.84367      44382.131      65479.118      35663.271      11372.104      24291.167      4725.2727      7790.3095     -755.89897      309.51995      2369.5279      28684.669     -18832.233     -545.5972       46064.156      35.847128      35.847128      35.847128      1.4443685      44963.978      44767.042      43415.373    
     27000   27000          624.29645      47036.245      66989.619      35565.489      11200.812      24364.677      4727.5712      7713.3454     -778.6966       285.47492      2533.7829      28714.889     -18831.689     -548.63122      45809.413      35.780926      35.780926      35.780926      1.4524005      48567.765      44304.345      48236.626    
     28000   28000          640.85279      44892.27       66019.146      36026.955      11497.858      24529.098      4764.4099      7774.6959     -665.74766      303.88672      2477.7119      28704.288     -18830.147     -548.62365      45810.046      35.781091      35.781091      35.781091      1.4523805      41728.576      44243.125      48705.11     
     29000   29000          626.36452      47398.775      67399.602      35784.653      11237.916      24546.737      4762.286       7740.947      -722.01527      302.92691      2571.5244      28723.921     -18832.853     -549.52286      45735.084      35.761563      35.761563      35.761563      1.454761       46135.536      46669.838      49390.952    
     30000   30000          619.22159      46524.206      66750.062      35582.254      11109.762      24472.493      4860.3122      7794.8587     -713.38113      286.99844      2384.1772      28695.17      -18835.643     -547.12159      45935.812      35.813805      35.813805      35.813805      1.448404       48225.782      45199.562      46147.274    
     31000   31000          630.74785      47219.345      67190.582      35513.64       11316.56       24197.08       4741.9567      7686.4836     -765.24932      295.70256      2400.028       28670.524     -18832.366     -546.37125      45998.896      35.830192      35.830192      35.830192      1.4464177      44764.222      46919.14       49974.674    
     32000   32000          633.72739      45190.852      65994.549      35745.202      11370.017      24375.185      4822.6439      7800.1855     -754.99136      301.5945       2343.5671      28696.811     -18834.626     -547.57759      45897.558      35.803861      35.803861      35.803861      1.4496112      47936.514      40932.721      46703.322    
     33000   33000          631.8888       44489.234      65491.4        35680.103      11337.03       24343.072      4746.8486      7869.9423     -772.3484       293.68294      2368.076       28675.13      -18838.259     -546.99731      45946.249      35.816517      35.816517      35.816517      1.448075       46279.144      41544.809      45643.75     
     34000   34000          619.36651      45888.066      66123.185      35373.686      11112.362      24261.324      4687.8831      7746.0123     -733.81626      314.62495      2383.1634      28697.177     -18833.721     -546.98177      45947.554      35.816856      35.816856      35.816856      1.4480339      48468.5        42732.055      46463.644    
     35000   35000          624.14389      40880.962      63010.243      35589.572      11198.075      24391.497      4866.9734      7647.8154     -688.08068      301.57469      2399.1859      28697.626     -18833.598     -546.4547       45991.871      35.828368      35.828368      35.828368      1.4466386      41938.335      38449.628      42254.923    
     36000   36000          626.59891      47246.213      67242.975      35709.085      11242.122      24466.963      4954.4726      7769.2566     -719.87746      277.48744      2350.1057      28668.755     -18833.237     -549.16215      45765.125      35.769391      35.769391      35.769391      1.4538061      48320.579      44849.92       48568.139    
     37000   37000          631.21522      43681.279      65108.152      35847.175      11324.945      24522.23       4819.377       7891.7212     -715.45904      289.99799      2357.919       28711.307     -18832.633     -547.16418      45932.236      35.812876      35.812876      35.812876      1.4485168      44961.482      43960.44       42121.916    
     38000   38000          615.85126      47232.155      67105.794      35610.523      11049.293      24561.23       4749.3035      7942.8164     -746.56092      308.0217       2479.8234      28660.839     -18833.013     -549.67191      45722.682      35.75833       35.75833       35.75833       1.4551556      45735.203      49066.203      46895.059    
     39000   39000          627.56269      43381.828      64854.642      35675.237      11259.413      24415.823      4766.4802      7821.1575     -754.55386      307.78263      2413.485       28691.804     -18830.332     -544.93229      46120.361      35.861702      35.861702      35.861702      1.4426083      44602.054      41951.256      43592.174    
     40000   40000          617.02441      48502.645      68110.502      35697.917      11070.341      24627.576      4852.9632      7876.2469     -756.86668      299.69093      2507.2332      28683.126     -18834.817     -548.48265      45821.822      35.784157      35.784157      35.784157      1.4520072      49012.983      43883.802      52611.151    
     41000   41000          628.66042      44451.409      65631.07       35788.383      11279.108      24509.274      4746.7029      7905.342      -722.57897      312.57228      2401.9685      28695.957     -18830.689     -545.95737      46033.767      35.839244      35.839244      35.839244      1.445322       45686.06       42631.802      45036.365    
     42000   42000          639.34934      48395.411      68184.879      35982.139      11470.883      24511.255      4703.095       7873.5566     -757.70379      279.16479      2527.4299      28716.201     -18830.488     -550.83622      45626.038      35.733118      35.733118      35.733118      1.4582379      48416.4        45946.19       50823.643    
     43000   43000          628.99279      44250.076      65199.598      35567.794      11285.071      24282.722      4811.2609      7763.6432     -822.42552      315.02527      2339.9247      28709.263     -18833.969     -547.35243      45916.438      35.80877       35.80877       35.80877       1.4490152      48116.142      41634.911      42999.173    
     44000   44000          619.70462      43123.232      64441.716      35513.641      11118.428      24395.213      4744.3624      7696.5499     -690.45603      300.25191      2469.7838      28706.449     -18831.728     -546.3902       45997.301      35.829778      35.829778      35.829778      1.4464678      41288.017      45208.28       42873.399    
     45000   45000          627.54419      45396.114      66138.798      35782.686      11259.081      24523.605      4703.6492      7829.5403     -704.62862      330.51429      2467.1107      28727.615     -18830.197     -548.13011      45851.293      35.791827      35.791827      35.791827      1.4510739      44832.007      43313.354      48042.98     
     46000   46000          624.92491      46048.164      66434.564      35440.013      11212.088      24227.925      4878.8959      7765.2599     -752.09242      298.50086      2183.3071      28687.976     -18833.922     -544.55043      46152.703      35.870083      35.870083      35.870083      1.4415974      44701.795      44375.733      49066.965    
     47000   47000          623.59383      48123.126      67588.782      35264.421      11188.206      24076.215      4744.1466      7535.9092     -770.56314      299.40101      2386.7585      28715.365     -18834.802     -545.6762       46057.487      35.845398      35.845398      35.845398      1.4445776      49925.334      46084.067      48359.977    
     48000   48000          629.04028      43434.926      64720.56       35553.307      11285.923      24267.383      4706.2053      7788.5128     -764.79288      310.74752      2356.5922      28703.184     -18833.066     -545.82659      46044.797      35.842106      35.842106      35.842106      1.4449758      43561.543      39057.045      47686.189    
     49000   49000          615.82596      44148.433      65090.48       35507.141      11048.839      24458.302      4872.0093      7709.8123     -768.74324      314.89183      2447.8812      28713.642     -18831.192     -546.98981      45946.879      35.816681      35.816681      35.816681      1.4480552      43159.549      44083.023      45202.728    
     50000   50000          625.71975      41956.365      63912.184      35662.259      11226.348      24435.911      4859.7867      7861.8291     -768.07274      294.1413       2315.0549      28704.913     -18831.741     -544.36688      46168.265      35.874114      35.874114      35.874114      1.4411115      40913.686      43088.301      41867.108    
     51000   51000          624.68704      43136.894      64532.761      35528.763      11207.82       24320.943      4826.3996      7807.569      -734.00514      282.88948      2276.9843      28697.502     -18836.396     -545.13259      46103.416      35.85731       35.85731       35.85731       1.4431385      43152.518      42459.897      43798.268    
     52000   52000          628.70414      44437.877      65416.74       35506.496      11279.893      24226.604      4637.1625      7815.9757     -732.55313      335.10882      2296.9164      28707.919     -18833.926     -544.55842      46152.026      35.869907      35.869907      35.869907      1.4416185      44936.184      41164.276      47213.171    
     53000   53000          629.94292      45768.946      66406.612      35707.444      11302.118      24405.325      4938.2556      7671.3868     -702.28831      281.93911      2334.559       28714.646     -18833.172     -546.4563       45991.737      35.828333      35.828333      35.828333      1.4466428      45375.905      42385.914      49545.018    
     54000   54000          628.5495       46230.279      66645.711      35609.038      11277.118      24331.92       4813.9667      7668.1847     -701.91063      299.86068      2374.2691      28713.029     -18835.48      -545.96208      46033.369      35.839141      35.839141      35.839141      1.4453345      49370.548      42029.993      47290.295    
     55000   55000          627.11815      46134.055      66677.698      35617.702      11251.438      24366.265      4860.0863      7738.0538     -727.22777      297.65509      2310.7279      28721.938     -18834.969     -544.41663      46164.046      35.873021      35.873021      35.873021      1.4412432      49435.141      42802.854      46164.171    
     56000   56000          629.00593      45163.031      65817.425      35395.889      11285.307      24110.582      4751.349       7681.9136     -782.22044      302.68331      2256.7155      28736.24      -18836.099     -544.14304      46187.256      35.879032      35.879032      35.879032      1.4405189      45748.779      41644.262      48096.053    
     57000   57000          629.94493      40812.132      63100.632      35510.997      11302.154      24208.842      4885.2054      7809.6457     -742.33951      295.78474      2105.8856      28691.678     -18837.018     -542.1937       46353.313      35.921979      35.921979      35.921979      1.4353584      41323.505      40809.12       40303.772    
     58000   58000          635.40364      45456.344      66262.254      35750.733      11400.092      24350.642      4943.9733      7649.3826     -737.01897      320.21423      2312.5841      28691.916     -18830.41      -546.06179      46024.964      35.836959      35.836959      35.836959      1.4455984      44975.58       43003.152      48390.3      
     59000   59000          632.59154      42752.85       64307.32       35514.021      11349.638      24164.383      4815.4849      7878.3599     -846.08383      279.99213      2201.2895      28670.715     -18835.375     -544.2329       46179.631      35.877058      35.877058      35.877058      1.4407568      41626.912      43973.862      42657.777    
     60000   60000          624.34775      43902.752      65057.18       35542.199      11201.732      24340.466      4767.7863      7899.4969     -742.42145      280.59486      2274.8894      28695.59      -18835.469     -545.20567      46097.236      35.855707      35.855707      35.855707      1.443332       40851.079      45300.927      45556.249    
     61000   61000          644.06805      43588.059      65083.883      35734.233      11555.544      24178.689      4758.5449      7632.9444     -709.8228       325.23609      2321.8025      28684.768     -18834.784     -544.34687      46169.962      35.874553      35.874553      35.874553      1.4410585      44548.414      40177.01       46038.752    
     62000   62000          623.36928      44096.391      65244.076      35420.409      11184.177      24236.232      4819.881       7767.5229     -701.15886      299.30568      2197.8454      28686.605     -18833.769     -541.94242      46374.805      35.927531      35.927531      35.927531      1.4346931      42677.611      44356.482      45255.081    
     63000   63000          635.51986      43539.68       64765.971      35620.057      11402.177      24217.88       4750.6096      7665.1564     -738.76142      303.80205      2426.4449      28651.109     -18840.48      -547.54358      45900.409      35.804602      35.804602      35.804602      1.4495212      45539.355      41162.18       43917.506    
     64000   64000          641.22542      43876.634      65294.331      35724.604      11504.543      24220.061      4786.0474      7740.2425     -724.91418      305.5088       2258.2473      28689.103     -18834.173     -543.87253      46210.229      35.88498       35.88498       35.88498       1.4398028      41808.678      45220.498      44600.726    
     65000   65000          626.69809      44682.413      65522.897      35418.178      11243.901      24174.277      4812.614       7616.6391     -712.90216      286.5888       2301.0723      28701.219     -18830.955     -544.01787      46197.883      35.881784      35.881784      35.881784      1.4401875      45216.425      41725.942      47104.872    
     66000   66000          630.42752      42298.885      64095.915      35582.963      11310.813      24272.151      4756.3689      7779.9362     -708.48605      288.3786       2301.7548      28692.272     -18838.074     -543.74826      46220.79       35.887713      35.887713      35.887713      1.4394738      42650.176      41986.608      42259.871    
     67000   67000          624.95508      43574.21       64508.081      35069.293      11212.629      23856.664      4625.8202      7747.9619     -817.16272      288.41861      2157.318       28689.592     -18835.283     -542.52624      46324.901      35.914639      35.914639      35.914639      1.4362387      44339.753      39426.086      46956.791    
     68000   68000          631.40943      39495.435      62129.783      35426.131      11328.43       24097.702      4881.6243      7708.9954     -726.38525      280.66294      2091.7946      28695.156     -18834.146     -542.10997      46360.473      35.923829      35.923829      35.923829      1.4351367      37627.88       38178.72       42679.706    
     69000   69000          641.38382      43387.997      65156.906      35788.866      11507.385      24281.481      4843.566       7898.9256     -752.13862      296.18472      2134.479       28693.728     -18833.263     -541.50912      46411.913      35.937111      35.937111      35.937111      1.4335461      43325.269      39379.173      47459.548    
     70000   70000          626.49713      42983.97       64367.889      35353.483      11240.296      24113.187      4668.9475      7769.6227     -795.81643      289.39057      2340.1503      28680.923     -18840.03      -543.00518      46284.041      35.904076      35.904076      35.904076      1.4375066      42499.373      41967.456      44485.081    
     71000   71000          638.30893      41923.2        63914.939      35545.621      11452.217      24093.404      4824.6736      7700.489      -819.41106      296.52044      2236.6473      28689.23      -18834.745     -541.6474       46400.065      35.934052      35.934052      35.934052      1.4339121      41709.779      41530.856      42528.964    
     72000   72000          636.07346      43538.625      65145.676      35860.749      11412.109      24448.64       4893.5233      7823.3869     -740.06082      318.75235      2279.5078      28708.633     -18835.102     -544.93124      46120.451      35.861725      35.861725      35.861725      1.4426055      42683.259      42432.999      45499.618    
     73000   73000          630.23105      39540.23       62127.662      35308.593      11307.288      24001.306      4769.3251      7820.9028     -791.3412       303.27867      2017.6441      28709.839     -18828.343     -540.38917      46508.101      35.96192       35.96192       35.96192       1.4305812      40206.645      37377.652      41036.394    
     74000   74000          629.161        44768.09       65564.635      35244.69       11288.089      23956.601      4729.2649      7712.7394     -781.72322      284.01842      2163.3964      28681.942     -18833.037     -541.19191      46439.117      35.944131      35.944131      35.944131      1.4327063      44063.004      45351.098      44890.168    
     75000   75000          630.29893      40367.364      62679.289      35350.414      11308.506      24041.909      4716.187       7802.695      -738.69222      284.9555       2132.0408      28682.398     -18837.676     -541.40191      46421.104      35.939483      35.939483      35.939483      1.4332622      39702.932      39491.75       41907.41     
     76000   76000          628.33244      41067.552      63369.665      35573.293      11273.224      24300.069      4833.4051      7813.1198     -717.10605      324.59821      2202.6663      28682.947     -18839.561     -541.52916      46410.196      35.936667      35.936667      35.936667      1.4335991      42093.331      38780.486      42328.84     
     77000   77000          616.46632      42847.844      64275.595      35159.261      11060.328      24098.934      4786.309       7770.8542     -828.6363       297.73588      2234.3407      28678.431     -18840.1       -539.39065      46594.197      35.984097      35.984097      35.984097      1.4279378      41997.917      43835.422      42710.191    
     78000   78000          633.35244      39552.769      62418.976      35552.932      11363.29       24189.642      4808.999       7767.4839     -743.02271      329.17006      2170.818       28690.327     -18834.133     -539.61536      46574.794      35.979102      35.979102      35.979102      1.4285327      37901.739      37244.599      43511.97     
     79000   79000          623.4594       40942.456      63042.404      35404.031      11185.794      24218.236      4873.2348      7835.2786     -818.52288      300.5749       2187.8809      28675.618     -18835.828     -542.96589      46287.39       35.904942      35.904942      35.904942      1.4374026      40422.768      41876.767      40527.833    
     80000   80000          632.81312      39738.453      62429.255      35407.137      11353.614      24053.524      4848.7224      7821.0908     -780.60367      300.84637      2021.7532      28681.405     -18839.69      -539.01731      46626.47       35.992403      35.992403      35.992403      1.4269495      39168.099      37937.729      42109.531    
     81000   81000          630.91095      41599.798      63364.514      35180.88       11319.486      23861.394      4624.9513      7722.1487     -759.60932      298.45728      2080.7903      28726.964     -18832.308     -541.0101       46454.723      35.948157      35.948157      35.948157      1.432225       40604.379      42467.406      41727.611    
     82000   82000          624.0455       41926.858      63809.109      35475.435      11196.31       24279.126      4844.0069      7934.4638     -825.90722      326.16032      2158.6172      28682.404     -18840.619     -542.37613      46337.722      35.917951      35.917951      35.917951      1.4358413      41272.352      40735.457      43772.767    
     83000   83000          633.72928      40708.701      63124.557      35572.373      11370.051      24202.322      4799.1707      7872.4478     -748.17857      326.82078      2132.0225      28659.518     -18839.479     -541.55474      46408.004      35.936102      35.936102      35.936102      1.4336668      42048.206      40725.098      39352.801    
     84000   84000          623.36554      42431.905      64076.867      35359.552      11184.11       24175.442      4853.6196      7694.6418     -748.47989      301.60139      2203.0949      28710.222     -18839.257     -541.57654      46406.135      35.935619      35.935619      35.935619      1.4337246      43303.391      38070.096      45922.229    
     85000   85000          633.67241      39294.206      62091.413      35316.021      11369.031      23946.99       4694.1357      7733.7727     -843.14847      294.06152      2202.9051      28704.068     -18838.804     -537.90282      46723.076      36.017244      36.017244      36.017244      1.423999       39382.947      36093.217      42406.454    
     86000   86000          636.00201      41065.952      63534.63       35711.037      11410.827      24300.21       4978.7596      7851.1746     -793.43719      281.48213      2148.2677      28674.194     -18840.232     -540.97826      46457.457      35.948862      35.948862      35.948862      1.4321407      40483.475      38751.738      43962.642    
     87000   87000          632.73224      41877.989      63937.139      35514.275      11352.163      24162.113      4845.3309      7704.8863     -675.84226      317.00751      2117.833       28689.414     -18836.516     -540.04397      46537.83       35.969581      35.969581      35.969581      1.4296674      38376.021      44700.484      42557.464    
     88000   88000          625.86906      42828.709      64257.914      35179.667      11229.027      23950.64       4811.9378      7680.2779     -801.17276      298.38463      2123.7699      28675.494     -18838.052     -539.85594      46554.038      35.973756      35.973756      35.973756      1.4291696      42162.157      41964.096      44359.873    
     89000   89000          634.09721      40919.801      63147.438      35399.207      11376.652      24022.554      4686.8103      7774.6416     -773.90398      288.57374      2226.5878      28658.816     -18838.971     -540.51698      46497.104      35.959085      35.959085      35.959085      1.4309196      41148.999      39682.902      41927.502    
     90000   90000          632.33641      45373.842      66185.668      35544.052      11345.061      24198.991      4796.035       7818.1301     -804.89668      305.25318      2195.9104      28726.502     -18837.944     -542.7565       46305.248      35.909559      35.909559      35.909559      1.4368483      44630.302      41884.466      49606.759    
     91000   91000          642.92997      43446.902      65054.372      35563.433      11535.125      24028.307      4854.4212      7692.9863     -759.47992      307.91428      2081.4686      28687.779     -18836.782     -539.98456      46542.95       35.9709        35.9709        35.9709        1.4295101      45534.068      40995.502      43811.135    
     92000   92000          638.00774      42046.527      64012.818      35497.462      11446.813      24050.649      4851.2971      7681.3057     -750.74568      281.38407      2096.1057      28726.026     -18834.724     -540.45863      46502.124      35.960379      35.960379      35.960379      1.4307651      44734.967      40237.325      41167.288    
     93000   93000          620.61053      40727.744      63156.128      35382.957      11134.681      24248.276      5032.9975      7827.1608     -810.43377      301.3495       2053.1641      28681.979     -18837.942     -537.49696      46758.356      36.026307      36.026307      36.026307      1.4229246      39833.528      43403.684      38946.021    
     94000   94000          639.97259      39513.804      62591.572      35729.069      11482.066      24247.004      5000.3906      7871.4409     -780.82427      319.34636      1982.7481      28689.831     -18835.929     -539.15485      46614.575      35.989342      35.989342      35.989342      1.4273136      37035.401      41458.212      40047.8      
     95000   95000          635.26742      42000.181      63905.498      35413.734      11397.648      24016.087      4739.1863      7807.2603     -788.55366      312.61954      2066.9395      28712.621     -18833.986     -540.30996      46514.92       35.963677      35.963677      35.963677      1.4303715      40575.574      41070.934      44354.035    
     96000   96000          632.2942       35596.838      59526.49       35241.028      11344.304      23896.724      4760.5909      7711.7606     -677.51964      312.79589      1948.1635      28673.208     -18832.275     -537.24971      46779.875      36.031833      36.031833      36.031833      1.4222701      35953.114      35083.603      35753.795    
     97000   97000          634.68773      41481.28       63570.078      35429.697      11387.247      24042.45       4786.6265      7834.8257     -759.11341      311.71045      2025.4866      28677.177     -18834.264     -540.29793      46515.955      35.963944      35.963944      35.963944      1.4303397      42229.318      42060.349      40154.174    
     98000   98000          625.46924      38064.926      61425.165      35473.279      11221.854      24251.425      4936.66        7803.9761     -688.17374      309.2041       2017.4539      28708.544     -18836.239     -537.60983      46748.539      36.023786      36.023786      36.023786      1.4232234      35726.257      38725.928      39742.592    
     99000   99000          630.90621      38628.434      61747.888      35392.688      11319.401      24073.287      4919.8762      7881.0166     -802.76643      283.46888      1945.9943      28675.394     -18829.697     -537.21969      46782.489      36.032504      36.032504      36.032504      1.4221906      37633.743      36512.649      41738.911    
    100000   100000         629.29771      41103.104      63374.915      35410.635      11290.542      24120.093      5000.8626      7678.3535     -730.42467      253.99532      2063.1753      28688.724     -18834.593     -538.74358      46650.16       35.998498      35.998498      35.998498      1.4262248      39557.365      39665.916      44086.03     
    101000   101000         642.13824      39871.536      62692.457      35461.802      11520.92       23940.882      4805.4209      7774.2065     -771.29268      275.09071      1996.7677      28698.865     -18838.177     -536.68075      46829.468      36.044561      36.044561      36.044561      1.4207638      38926.195      37467.116      43221.297    
    102000   102000         635.00619      42210.224      64062.22       35306.732      11392.961      23913.771      4851.8889      7645.3243     -812.88481      304.1125       2071.4401      28690.101     -18836.21      -538.03194      46711.863      36.014362      36.014362      36.014362      1.4243409      40775.586      42731.651      43123.436    
    103000   103000         629.79311      40335.57       62832.888      35294.332      11299.43       23994.901      4855.8343      7718.0309     -762.25351      290.59144      2029.2574      28706.558     -18843.117     -536.85643      46814.144      36.040629      36.040629      36.040629      1.4212289      38446.069      40202.915      42357.725    
    104000   104000         623.66436      39089.166      61728.964      35127.51       11189.472      23938.038      4778.5224      7620.2765     -715.94689      297.0169       2118.9294      28673.285     -18834.045     -538.59481      46663.046      36.001812      36.001812      36.001812      1.425831       35704.605      38214.013      43348.879    
    105000   105000         624.98819      39104.388      62254.746      35522.69       11213.223      24309.467      5033.3399      7937.3869     -797.24428      275.19995      2008.9623      28691.528     -18839.706     -536.17215      46873.889      36.055955      36.055955      36.055955      1.4194174      37578.692      39688.121      40046.35     
    106000   106000         632.05885      40102.554      62559.184      35156.132      11340.081      23816.051      4773.2973      7714.1251     -786.52759      330.68035      1925.9124      28697.498     -18838.935     -536.39441      46854.467      36.050974      36.050974      36.050974      1.4200058      40136.203      38114.41       42057.05     
    107000   107000         638.34639      38293.451      61747.577      35698.045      11452.889      24245.156      4825.9865      7765.7118     -704.76665      318.01055      2168.8106      28709.952     -18838.548     -538.81009      46644.402      35.997017      35.997017      35.997017      1.4264009      36248.128      37205.575      41426.649    
    108000   108000         628.85626      39426.993      62322.635      35404.641      11282.622      24122.019      5014.8534      7767.8209     -746.8105       298.74788      1952.9406      28669.406     -18834.939     -536.8613       46813.719      36.04052       36.04052       36.04052       1.4212418      37828.296      41813.528      38639.155    
    109000   109000         617.08045      37502.604      60526.327      34879.115      11071.346      23807.769      4801.2906      7781.2385     -742.0772       295.55734      1807.6588      28695.384     -18831.284     -535.96002      46892.442      36.060711      36.060711      36.060711      1.4188559      38571.419      37292.124      36644.269    
    110000   110000         631.88871      40754.033      63079.316      35254.034      11337.028      23917.005      4795.3817      7775.523      -789.51611      319.57428      1941.1723      28708.505     -18833.635     -536.83663      46815.871      36.041072      36.041072      36.041072      1.4211765      42103.637      38184.846      41973.615    
    111000   111000         629.22006      42326.185      64369.184      35481.319      11289.149      24192.17       4853.2413      7902.9279     -803.12426      307.27648      2032.8823      28734.18      -18835.214     -537.03775      46798.338      36.036572      36.036572      36.036572      1.4217089      41239.865      42491.966      43246.722    
    112000   112000         618.86038      37441.148      60484.881      34854.516      11103.281      23751.235      4786.8691      7732.6584     -822.01655      284.4133       1895.5188      28708.826     -18835.034     -535.43345      46938.559      36.072528      36.072528      36.072528      1.4174618      37671.96       34066.817      40584.667    
    113000   113000         640.12565      38481.107      61722.427      35361.745      11484.812      23876.933      4829.5716      7709.705      -735.45908      282.63062      1945.1149      28676.823     -18831.453     -535.05945      46971.368      36.080931      36.080931      36.080931      1.4164718      37688.069      39299.14       38456.11     
    114000   114000         630.18016      41151.157      63459.358      35299.244      11306.375      23992.869      4848.5569      7689.0135     -774.38351      298.14259      2069.5254      28697.565     -18835.55      -535.62245      46921.995      36.068285      36.068285      36.068285      1.4179622      41692.179      39262.121      42499.169    
    115000   115000         627.80687      37787.451      61315.168      35362.87       11263.794      24099.076      5014.0789      7821.6978     -750.1552       306.33377      1846.4028      28694.87      -18834.152     -533.68244      47092.563      36.111936      36.111936      36.111936      1.4128264      39647.99       36205.709      37508.653    
    116000   116000         625.19537      40008.617      62379.713      34991.511      11216.94       23774.571      4818.6133      7636.3622     -742.00313      289.61923      1866.3318      28735.823     -18830.176     -535.4281       46939.028      36.072648      36.072648      36.072648      1.4174477      37361.632      40845.48       41818.738    
    117000   117000         620.28702      36300.715      60129.519      35285.513      11128.877      24156.636      5039.0242      7872.3066     -755.85837      271.20751      1896.4843      28667.538     -18834.066     -535.55575      46927.839      36.069782      36.069782      36.069782      1.4177856      34655.126      36183.062      38063.957    
    118000   118000         637.11485      39159.94       62186.534      35501.828      11430.793      24071.034      4831.5         7744.3145     -774.01626      282.0015       2133.2957      28687.962     -18834.023     -537.88661      46724.484      36.017605      36.017605      36.017605      1.4239561      35982.541      39288.871      42208.409    
    119000   119000         630.81299      37253.751      60758.021      35127.922      11317.728      23810.194      4772.7029      7805.1269     -735.92794      322.3991       1790.9339      28689.348     -18834.39      -532.75908      47174.183      36.132787      36.132787      36.132787      1.4103819      37126.439      36982.749      37652.064    
    120000   120000         616.84718      39298.572      61956.629      35156.069      11067.161      24088.909      4836.9167      7871.2176     -762.81349      295.78029      1987.581       28694.201     -18833.975     -537.45741      46761.797      36.027191      36.027191      36.027191      1.4228199      37410.267      39542.299      40943.15     
    121000   121000         621.25245      37882.208      61131.221      35144.882      11146.198      23998.684      4944.7918      7835.0473     -776.40606      284.22573      1898.1631      28650.875     -18838.012     -534.31989      47036.382      36.09757       36.09757       36.09757       1.4145139      38889.765      37601.681      37155.18     
    122000   122000         628.43868      37984.958      61373.487      35346.731      11275.13       24071.601      4923.3654      7927.5984     -780.43708      280.71253      1867.2079      28687.187     -18834.034     -534.93712      46982.11       36.083681      36.083681      36.083681      1.4161479      37806.042      37553.447      38595.385    
    123000   123000         619.02704      35197.157      59125.804      35025.02       11106.271      23918.749      4825.1463      7763.9238     -744.08116      290.88493      1927.1983      28688.841     -18833.164     -535.28804      46951.309      36.075794      36.075794      36.075794      1.4170769      34718.361      33233.394      37639.715    
    124000   124000         626.32501      34626.656      59030.055      35172.232      11237.207      23935.024      4988.033       7757.3572     -762.02005      329.9796       1771.4599      28687.804     -18837.59      -531.97457      47243.751      36.15054       36.15054       36.15054       1.4083051      31882.136      35118.434      36879.397    
    125000   125000         629.00049      36424.834      60236.267      35289.922      11285.21       24004.712      4822.3929      7855.4085     -814.29731      315.44547      1962.3798      28699.651     -18836.268     -535.18235      46960.581      36.078169      36.078169      36.078169      1.4167971      39213.283      33336.495      36724.723    
    126000   126000         635.84854      38557.13       61603.432      35338.097      11408.074      23930.023      4651.5695      7944.4171     -815.12329      303.78695      1987.3196      28691.014     -18832.961     -538.06271      46709.191      36.013676      36.013676      36.013676      1.4244223      38369.098      36796.499      40505.794    
    127000   127000         623.24538      35917.229      59778.503      35149.38       11181.954      23967.426      4881.0584      7741.9058     -726.69058      299.74552      1889.3562      28716.538     -18834.488     -534.52128      47018.66       36.093036      36.093036      36.093036      1.4150471      34884.662      35616.447      37250.576    
    128000   128000         629.04027      35146.79       59272.592      35123.924      11285.923      23838.001      4981.7042      7641.1113     -754.23947      315.91688      1780.2175      28708.505     -18835.214     -533.46215      47112.01       36.116906      36.116906      36.116906      1.4122432      34406.627      32091.818      38941.924    
    129000   129000         628.05002      37165.172      60761.591      35259.102      11268.157      23990.945      4916.9836      7838.0732     -791.61665      321.10365      1847.5694      28692.428     -18833.596     -534.15182      47051.182      36.101356      36.101356      36.101356      1.414069       37114.466      36812.987      37568.062    
    130000   130000         630.08541      35433.798      59484.99       35163.875      11304.675      23859.2        5021.5047      7746.0431     -852.18115      264.00249      1809.8971      28698.412     -18828.478     -534.00504      47064.114      36.104663      36.104663      36.104663      1.4136804      34688.221      35268.859      36344.314    
    131000   131000         639.48042      35312.894      59570.231      35313.201      11473.235      23839.966      4808.2597      7941.8941     -752.51113      257.81194      1697.3676      28718.936     -18831.792     -533.58893      47100.816      36.114046      36.114046      36.114046      1.4125788      37808.816      37436.4        30693.465    
    132000   132000         611.01447      34718.697      58726.263      34816.72       10962.513      23854.206      4829.0062      7841.0103     -808.08987      300.46341      1848.2508      28679.299     -18835.734     -532.2348       47220.652      36.144648      36.144648      36.144648      1.408994       34559.73       34880.464      34715.896    
    133000   133000         629.84179      39050.1        62011.779      35255.03       11300.304      23954.726      4980.2798      7761.8042     -760.44933      272.09867      1849.6536      28686.019     -18834.679     -534.93368      46982.412      36.083759      36.083759      36.083759      1.4161388      38338.582      36192.476      42619.242    
    134000   134000         627.21328      37159.16       60643.012      35082.569      11253.144      23829.425      5039.2037      7616.8219     -801.05607      313.31829      1799.0702      28695.111     -18833.045     -532.85451      47165.734      36.13063       36.13063       36.13063       1.4106346      36712.063      35178.195      39587.22     
    135000   135000         628.6382       35798.002      60001.534      35298.815      11278.71       24020.105      4886.2923      7956.1997     -759.80245      313.95135      1768.2717      28690.474     -18835.281     -531.15976      47316.224      36.169016      36.169016      36.169016      1.406148       35804.077      37490.094      34099.835    
    136000   136000         629.96428      36606.858      60369.29       35249.826      11302.501      23947.325      4811.679       7843.7263     -730.74173      310.27625      1833.3466      28710.516     -18831.477     -534.15         47051.342      36.101397      36.101397      36.101397      1.4140641      38548.172      32369.199      38903.202    
    137000   137000         624.44802      35593.951      59665.766      35063.644      11203.532      23860.113      4982.3539      7732.4651     -775.46724      292.61834      1770.477       28691.567     -18833.902     -530.29163      47393.684      36.188742      36.188742      36.188742      1.4038498      33644.906      36324.498      36812.449    
    138000   138000         626.95736      36239.825      60183.962      35267.866      11248.553      24019.313      4950.7931      7728.565      -728.24257      322.519        1868.1018      28707.989     -18830.412     -533.11048      47143.088      36.124846      36.124846      36.124846      1.4113122      37315.645      36075.701      35328.129    
    139000   139000         633.19591      38869.315      62181.707      35411.807      11360.482      24051.325      4981.9221      7861.7713     -825.80914      350.57329      1827.2431      28688.706     -18833.081     -532.19559      47224.131      36.145535      36.145535      36.145535      1.4088902      40161.628      37486.981      38959.335    
    140000   140000         631.52222      34585.191      59053.985      35333.387      11330.453      24002.934      4925.7714      7725.6469     -711.23537      316.74081      1890.7259      28683.315     -18828.031     -534.41136      47028.331      36.09551       36.09551       36.09551       1.4147561      36693.103      31867.885      35194.584    
    141000   141000         623.16961      34736.425      58855.865      34753.59       11180.595      23572.995      4806.8094      7819.3386     -807.24561      275.1857       1590.6443      28717.521     -18829.259     -528.24843      47576.997      36.23534       36.23534       36.23534       1.3984408      34303.198      33557.328      36348.748    
    142000   142000         631.32721      38262.705      61609.375      35267.236      11326.954      23940.282      4928.8716      7871.8019     -826.18311      259.12885      1842.8259      28696.111     -18832.274     -532.39721      47206.247      36.140972      36.140972      36.140972      1.409424       32668.029      40977.316      41142.77     
    143000   143000         637.0377       34632.689      59155.894      35325.85       11429.409      23896.441      4901.6795      7786.9649     -779.39763      325.83797      1823.2417      28671.462     -18833.347     -532.68751      47180.521      36.134405      36.134405      36.134405      1.4101925      36254.507      33966.826      33676.733    
    144000   144000         625.05903      35107.432      59317.437      35121.808      11214.494      23907.314      4912.7662      7874.6783     -811.4901       320.52453      1794.1367      28653.639     -18836.941     -531.83054      47256.546      36.153803      36.153803      36.153803      1.4079238      37217.553      33026.686      35078.056    
    145000   145000         628.34923      35328.433      59448.288      34943.43       11273.525      23669.905      4875.508       7701.5457     -784.78599      286.49844      1738.8017      28688.513     -18836.176     -528.42495      47561.105      36.231305      36.231305      36.231305      1.3989081      36934.671      33111.949      35938.678    
    146000   146000         632.93831      35266.897      59601.726      35259.179      11355.86       23903.319      4979.4368      7827.0955     -718.84932      297.24829      1660.0187      28693.547     -18835.178     -531.02182      47328.515      36.172147      36.172147      36.172147      1.4057829      33640.555      35459.68       36700.455    
    147000   147000         616.65248      37335.057      60560.686      34798.296      11063.668      23734.628      4855.8964      7719.4149     -781.02368      313.27166      1779.4621      28681.341     -18833.734     -531.18012      47314.41       36.168554      36.168554      36.168554      1.4062019      37748.656      36290.248      37966.267    
    148000   148000         637.64108      35105.249      59466.843      35153.518      11440.235      23713.283      4780.397       7694.0177     -747.82273      305.20629      1831.8247      28685.886     -18836.226     -529.22316      47489.369      36.21308       36.21308       36.21308       1.4010213      35857.778      34445.177      35012.792    
    149000   149000         623.9343       38157.951      61382.765      35101.013      11194.314      23906.699      4720.6291      7949.7019     -817.91843      324.60305      1857.1431      28702.815     -18830.275     -532.15957      47227.327      36.146351      36.146351      36.146351      1.4087948      40565.168      38348.818      35559.868    
    150000   150000         618.25474      33837.175      58252.785      34784.13       11092.415      23691.716      4943.318       7720.4507     -753.54468      299.5237       1619.6201      28693.741     -18831.393     -528.46599      47557.411      36.230367      36.230367      36.230367      1.3990168      35244.006      30893.275      35374.244    
    151000   151000         626.70243      35502.705      59819.159      35304.237      11243.979      24060.258      4991.8984      7800.8316     -784.53996      311.45582      1874.6558      28699.288     -18833.332     -530.81363      47347.078      36.176876      36.176876      36.176876      1.4052317      35695.287      34396.188      36416.641    
    152000   152000         630.42803      35779.314      59826.101      35123.87       11310.822      23813.048      4972.3178      7832.2023     -755.16196      296.81483      1655.2003      28649.918     -18838.242     -530.89296      47340.002      36.175074      36.175074      36.175074      1.4054417      36313.43       34684.192      36340.32     
    153000   153000         631.27181      33744.857      58460.73       35166.293      11325.961      23840.332      4838.3225      7851.7589     -797.23744      292.57401      1816.3999      28674.074     -18835.559     -530.96575      47333.513      36.173421      36.173421      36.173421      1.4056344      35417.956      32600.867      33215.749    
    154000   154000         627.36998      35053.666      59301.242      35048.066      11255.956      23792.111      4952.6408      7840.7558     -855.73277      283.90381      1711.7232      28690.452     -18831.633     -529.75612      47441.593      36.200932      36.200932      36.200932      1.4024321      36350.135      29802.941      39007.922    
    155000   155000         638.86779      34445.337      59216.456      35326.305      11462.244      23864.061      5024.9328      7793.5166     -823.21304      327.98412      1674.6101      28697.904     -18831.673     -528.47283      47556.795      36.230211      36.230211      36.230211      1.3990349      33558.323      31916.669      37861.018    
    156000   156000         630.09298      35294.955      59694.292      35219.355      11304.81       23914.544      4954.4547      7854.503      -786.33827      305.25222      1704.484       28713.142     -18830.953     -528.5696       47548.089      36.228         36.228         36.228         1.3992911      32101.983      35931.584      37851.296    
    157000   157000         637.76531      33698.991      58595.59       35245.534      11442.464      23803.071      4973.1686      7638.4678     -736.91557      314.51927      1776.124       28677.513     -18839.806     -528.98105      47511.105      36.218604      36.218604      36.218604      1.4003803      34424.052      31209.299      35463.623    
    158000   158000         621.59639      35213.493      59206.894      34860.286      11152.369      23707.917      4803.7889      7758.5341     -803.59107      290.38363      1807.7319      28689.104     -18838.034     -530.12926      47408.201      36.192437      36.192437      36.192437      1.40342        34399.514      34564.604      36676.36     
    159000   159000         624.59139      33621.738      58361.126      35061.626      11206.104      23855.523      4977.3213      7849.5121     -806.58742      308.58698      1703.5912      28656.252     -18833.153     -528.91355      47517.168      36.220145      36.220145      36.220145      1.4002016      35753.182      32544.652      32567.38     
    160000   160000         623.41426      32463.295      57657.282      35149.153      11184.984      23964.169      5065.7882      7863.329      -780.79206      298.75574      1667.0155      28677.472     -18827.399     -528.64525      47541.284      36.226271      36.226271      36.226271      1.3994913      34152.384      31340.447      31897.053    
    161000   161000         635.91537      32589.909      57743.853      35153.027      11409.273      23743.755      4888.2151      7876.8403     -810.7042       292.67099      1658.0517      28671.31      -18832.63      -528.76438      47530.574      36.223551      36.223551      36.223551      1.3998067      33751.487      29962.94       34055.301    
    162000   162000         637.24924      33621.262      58417.074      35053.283      11433.205      23620.078      4903.8753      7817.0064     -807.13543      318.24758      1567.3321      28656.52      -18835.767     -527.45065      47648.959      36.2536        36.2536        36.2536        1.3963288      31363.481      32437.792      37062.513    
    163000   163000         631.3011       35546.504      59689.864      35080.992      11326.486      23754.506      4860.2797      7678.5294     -780.11673      315.91375      1837.9179      28678.415     -18836.432     -529.4395       47469.965      36.208147      36.208147      36.208147      1.401594       36273.855      34672.075      35693.582    
    164000   164000         634.33772      36215.957      60228.676      35001.332      11380.968      23620.365      4996.0114      7749.9905     -822.64226      276.23612      1557.8425      28698.431     -18835.505     -526.18634      47763.448      36.282613      36.282613      36.282613      1.3929818      39673.335      35736.598      33237.937    
    165000   165000         624.77304      34086.146      58716.089      34985.543      11209.363      23776.18       4952.8711      7870.5089     -842.37783      329.51082      1615.3313      28691.288     -18840.953     -526.4793       47736.871      36.275882      36.275882      36.275882      1.3937574      32645.802      35350.682      34261.953    
    166000   166000         622.78619      32345.52       57351.057      34852.837      11173.716      23679.122      4974.3301      7665.5284     -774.98548      286.93489      1694.9281      28664.502     -18832.116     -526.95936      47693.383      36.264863      36.264863      36.264863      1.3950282      33776.249      28784.152      34476.159    
    167000   167000         629.54355      35649.92       59891.293      35115.467      11294.953      23820.514      4902.7005      7801.5342     -789.02181      308.06635      1727.0302      28703.618     -18833.413     -527.40174      47653.378      36.254721      36.254721      36.254721      1.3961994      37292.865      33950.132      35706.763    
    168000   168000         619.89711      33003.951      57811.895      34826.201      11121.881      23704.32       4917.7279      7755.3073     -815.25453      317.33414      1655.1268      28705.191     -18831.112     -526.28314      47754.663      36.280388      36.280388      36.280388      1.3932381      34060.35       31391.85       33559.652    
    169000   169000         622.4068       30558.762      56333.626      35088.289      11166.909      23921.38       5136.2681      7888.0647     -842.46229      319.51386      1607.8719      28648.112     -18835.988     -527.20955      47670.749      36.259126      36.259126      36.259126      1.3956906      29995.505      30443.825      31236.958    
    170000   170000         634.31202      30220.223      56203.755      35203.175      11380.506      23822.669      5030.8576      7803.5161     -772.31705      308.08516      1636.6898      28653.264     -18837.427     -527.44542      47649.431      36.25372       36.25372       36.25372       1.396315       30963.026      28733.957      30963.686    
    171000   171000         627.44085      32612.422      57733.714      34985.345      11257.227      23728.118      4839.7512      7918.3806     -764.32277      298.85914      1593.654       28685.478     -18843.683     -525.46516      47829.002      36.299204      36.299204      36.299204      1.3910726      33750.289      31287.526      32799.451    
    172000   172000         627.73281      32558.151      57596.132      34927.753      11262.466      23665.288      4884.5151      7789.5971     -775.72466      270.41176      1647.1512      28680.45      -18831.113     -526.44187      47740.265      36.276742      36.276742      36.276742      1.3936583      32193.79       32929.678      32550.986    
    173000   173000         622.87754      32815.307      57753.705      34942.866      11175.355      23767.511      4899.8061      7768.4606     -753.35614      325.91474      1661.3716      28699.969     -18834.655     -527.28611      47663.827      36.25737       36.25737       36.25737       1.3958933      33637.346      30900.259      33908.316    
    174000   174000         639.83337      30485.964      56426.336      35144.066      11479.568      23664.499      4947.5223      7835.391      -805.77838      295.1121       1567.7179      28657.664     -18833.13      -525.04088      47867.652      36.308979      36.308979      36.308979      1.3899494      31029.775      29695.256      30732.863    
    175000   175000         635.78544      32265.308      57378.116      35016.336      11406.942      23609.394      4831.9855      7686.5555     -746.14258      305.61795      1704.3682      28660.404     -18833.394     -528.85982      47521.996      36.221372      36.221372      36.221372      1.4000594      29992.299      32771.295      34032.329    
    176000   176000         627.0946       31524.312      56908.144      34872.36       11251.015      23621.345      5011.071       7743.3559     -836.26855      305.7349       1549.8558      28678.937     -18831.341     -524.35842      47929.953      36.324725      36.324725      36.324725      1.3881427      34286.069      28794.778      31492.089    
    177000   177000         638.03646      31417.679      56950.397      35024.767      11447.328      23577.439      4894.9673      7808.5108     -821.49786      317.64724      1471.1715      28735.614     -18828.974     -525.21021      47852.219      36.305077      36.305077      36.305077      1.3903977      33105.997      32416.655      28730.386    
    178000   178000         626.02243      33947.118      58580.867      34937.917      11231.779      23706.138      4968.3803      7724.219      -798.78258      298.45473      1691.0383      28659.812     -18836.984     -526.27457      47755.442      36.280586      36.280586      36.280586      1.3932154      35018.96       31126.273      35696.121    
    179000   179000         633.74263      33636.808      58612.84       35086.404      11370.291      23716.113      4961.1111      7752.9731     -807.9757       304.92438      1642.9582      28697.704     -18835.582     -524.04644      47958.487      36.331932      36.331932      36.331932      1.3873168      33657.477      32407.944      34845.003    
    180000   180000         624.1015       32463.079      57588.705      34963.356      11197.314      23766.041      4917.9386      7895.5247     -796.3265       332.95188      1559.2106      28682.171     -18825.429     -525.90289      47789.192      36.289131      36.289131      36.289131      1.3922314      33452.276      31165.313      32771.649    
    181000   181000         638.03137      32607.482      57940.661      35093.426      11447.237      23646.189      5043.7493      7683.2563     -777.13284      283.85975      1515.3335      28724.53      -18827.407     -523.11209      48044.148      36.35355       36.35355       36.35355       1.3848433      31204.064      35448.182      31170.198    
    182000   182000         618.26791      35342.832      59622.147      35033.116      11092.651      23940.465      5008.8349      7978.739      -797.77166      331.04845      1592.0804      28662.86      -18835.326     -526.8307       47705.03       36.267815      36.267815      36.267815      1.3946876      34833.718      34748.663      36446.115    
    183000   183000         627.34709      31006.908      56664.545      34974.717      11255.545      23719.171      5060.8862      7835.4854     -822.36402      306.54435      1475.4898      28698.932     -18835.803     -523.97851      47964.704      36.333502      36.333502      36.333502      1.387137       33005.224      29107.373      30908.128    
    184000   184000         631.57305      30214.128      56081.056      34898.767      11331.365      23567.402      5016.9353      7746.7361     -796.92359      290.17213      1461.9929      28678.997     -18830.508     -522.81533      48071.418      36.360427      36.360427      36.360427      1.3840577      29626.289      29431.951      31584.146    
    185000   185000         628.64533      32072.917      57446.472      35046.585      11278.838      23767.747      4949.3158      7895.4044     -825.76718      330.3164       1542.0822      28705.807     -18829.411     -524.812        47888.528      36.314257      36.314257      36.314257      1.3893435      33343.409      29678.493      33196.849    
    186000   186000         635.38923      32775.556      57860.286      34860.216      11399.833      23460.383      4881.1086      7750.0693     -828.68071      288.00736      1481.0407      28723.898     -18835.06      -522.31445      48117.516      36.372046      36.372046      36.372046      1.3827317      33978.418      33310.178      31038.071    
    187000   187000         636.05764      33731.059      58503.219      34910.106      11411.825      23498.281      4909.3945      7635.3733     -851.60441      280.45312      1677.6287      28682.879     -18835.843     -524.02966      47960.022      36.33232       36.33232       36.33232       1.3872724      37037.484      29657.459      34498.235    
    188000   188000         636.96624      32454.082      57754.64       35091.76       11428.127      23663.633      5003.5296      7681.6857     -813.76902      267.47343      1686.6496      28670.668     -18832.604     -524.88646      47881.734      36.31254       36.31254       36.31254       1.3895406      34236.806      31826.172      31299.267    
    189000   189000         622.16378      28956.224      54896.95       34566.997      11162.549      23404.448      4992.7856      7564.4561     -769.12746      281.27136      1489.9468      28681.387     -18836.271     -522.0555       48141.384      36.378059      36.378059      36.378059      1.3820462      31101.633      28436.962      27330.076    
    190000   190000         627.23521      33212.195      58042.498      34877.816      11253.538      23624.278      4908.1695      7808.0617     -813.8746       310.23564      1563.5722      28683.652     -18835.539     -525.51168      47824.768      36.298133      36.298133      36.298133      1.3911958      34718.448      30486.941      34431.196    
    191000   191000         628.66739      32188.427      57326.718      34777.743      11279.233      23498.51       4899.1387      7618.5516     -818.97179      330.0954       1631.8662      28672.091     -18834.262     -523.2197       48034.266      36.351058      36.351058      36.351058      1.3851282      31889.934      34863.949      29811.399    
    192000   192000         630.98689      31184.16       56854.606      34927.421      11320.849      23606.573      5149.166       7596.433      -733.27735      301.86769      1458.7405      28671.236     -18837.594     -521.26948      48213.976      36.396335      36.396335      36.396335      1.3799653      29031.953      32020.448      32500.079    
    193000   193000         630.55316      33163.508      58287.096      35097.943      11313.067      23784.876      5043.7839      7829.0474     -818.0714       308.90606      1579.5696      28674.731     -18833.091     -524.18755      47945.576      36.328671      36.328671      36.328671      1.3876904      32507.554      32501.011      34481.958    
    194000   194000         622.40754      30998.277      56641.785      34895.304      11166.922      23728.381      5031.9198      7736.1978     -771.92073      313.70798      1551.2024      28701.467     -18834.192     -522.468        48103.375      36.368483      36.368483      36.368483      1.3831382      28680.855      35222.215      29091.762    
    195000   195000         628.98275      29324.519      55651.161      34963.801      11284.891      23678.91       5249.6097      7734.4291     -833.55617      313.65525      1429.6256      28623.393     -18838.247     -519.5615       48372.472      36.436174      36.436174      36.436174      1.3754438      27708.353      31092.578      29172.625    
    196000   196000         624.07198      29827.536      55589.6        34644.616      11196.785      23447.831      5045.2619      7754.8169     -829.11787      269.91552      1354.1153      28689.382     -18836.542     -521.97355      48148.942      36.379963      36.379963      36.379963      1.3818292      28520.431      31023.5        29938.677    
    197000   197000         629.5845       32334.269      57600.744      34874.621      11295.688      23578.933      5029.8227      7785.9859     -872.00593      296.62791      1517.3501      28659.92      -18838.768     -521.49341      48193.273      36.391124      36.391124      36.391124      1.3805581      34180.75       30925.895      31896.161    
    198000   198000         642.41453      31670.031      57404.365      35141.976      11525.877      23616.099      4974.1891      7946.4712     -769.86808      273.67368      1329.4705      28692.171     -18830.008     -521.42022      48200.038      36.392827      36.392827      36.392827      1.3803644      29698.857      34337.215      30974.02     
    199000   199000         636.10797      28828.292      55188.151      34866.681      11412.728      23453.952      5043.3904      7839.5387     -865.32353      259.84959      1350.5104      28662.974     -18836.987     -519.96597      48334.844      36.426723      36.426723      36.426723      1.3765145      28385.188      26623.266      31476.421    
    200000   200000         625.87095      28678.068      54923.958      34724.608      11229.061      23495.547      4882.2694      7693.5009     -705.74668      323.68307      1408.3838      28721.402     -18827.945     -520.38365      48296.049      36.416975      36.416975      36.416975      1.3776203      28645.326      29000.607      28388.271    
    201000   201000         635.91236      30017.988      56004.721      34952.576      11409.219      23543.357      4992.7037      7785.5536     -888.61968      313.67561      1485.6303      28692.778     -18838.365     -522.63244      48088.24       36.364668      36.364668      36.364668      1.3835735      28966.762      32055.77       29031.433    
    202000   202000         627.34206      29400.228      55430.511      34693.485      11255.455      23438.03       4887.3751      7848.5689     -831.60708      297.02228      1383.4417      28686.605     -18833.376     -519.6553       48363.741      36.433981      36.433981      36.433981      1.3756921      30275.577      27572.695      30352.412    
    203000   203000         623.90038      32745.84       57818.512      34845.488      11193.706      23651.782      5031.3439      7768.2365     -912.52298      263.39173      1634.2895      28697.391     -18830.348     -522.45525      48104.549      36.368779      36.368779      36.368779      1.3831045      33052.2        32352.458      32832.863    
    204000   204000         617.65863      30321.219      56226.276      34879.123      11081.72       23797.403      5118.3606      7801.3817     -804.78824      295.98447      1531.882       28687.663     -18833.08      -520.61638      48274.459      36.411548      36.411548      36.411548      1.3782364      29565.442      30077.596      31320.618    
    205000   205000         633.52191      33354.456      58421.973      34929.26       11366.331      23562.929      5105.2649      7680.7822     -851.33198      306.68133      1475.2325      28686.255     -18839.955     -520.39345      48295.14       36.416746      36.416746      36.416746      1.3776462      31915.614      32054.888      36092.865    
    206000   206000         629.05824      30529.463      56664.761      35150.254      11286.246      23864.008      5165.5324      7973.6572     -860.77768      305.26892      1451.1758      28673.333     -18844.181     -520.11442      48321.048      36.423257      36.423257      36.423257      1.3769075      30567.586      28665.88       32354.921    
    207000   207000         625.34556      31590.115      56905.617      34648.704      11219.635      23429.069      4831.2563      7735.1836     -791.24979      316.35109      1521.4861      28657.464     -18841.422     -520.23241      48310.09       36.420504      36.420504      36.420504      1.3772199      33790.702      31751.682      29227.96     
    208000   208000         614.67197      27752.558      54213.464      34620.924      11028.134      23592.789      5087.7911      7835.0939     -867.32099      315.79342      1396.3954      28660.554     -18835.518     -519.18651      48407.41       36.444943      36.444943      36.444943      1.3744511      25493.94       28054.37       29709.363    
[...]
    452000   452000         626.8264       7833.8113      40609.333      34135.859      11246.203      22889.656      5416.18        7876.7148     -995.52788      299.76036      431.97086      28691.869     -18831.312     -443.55435      56661.544      38.408688      38.408688      38.408688      1.1742288      7344.4358      10134.17       6022.8277    
    453000   453000         629.49099      3775.1569      37068.772      33900.029      11294.01       22606.019      5284.6871      7799.1912     -930.9381       265.76646      351.88846      28670.185     -18834.762     -436.67577      57554.085      38.609311      38.609311      38.609311      1.156019       4603.9725      1992.2023      4729.2959    
    454000   454000         627.59577      5266.2686      38775.644      34369.249      11260.007      23109.242      5625.9667      7895.6976     -1002.9623      276.36568      474.75708      28668.339     -18828.922     -438.05703      57372.609      38.568688      38.568688      38.568688      1.1596756      3805.3296      3320.3849      8673.0912    
    455000   455000         619.71079      5054.3655      38313.171      34069.381      11118.539      22950.843      5351.0079      7948.7678     -935.41725      325.53122      417.03666      28681.658     -18837.742     -436.53985      57572.005      38.613318      38.613318      38.613318      1.1556592      2953.0242      6064.0455      6146.0267    
    456000   456000         632.27759      4532.3141      38206.799      34373.648      11344.006      23029.642      5514.0058      7889.7576     -1015.3462      305.81224      493.94834      28677.692     -18836.227     -433.38634      57990.924      38.706747      38.706747      38.706747      1.1473108      4676.8276      4328.3775      4591.7373    
    457000   457000         617.43502      3620.783       36888.079      33844.905      11077.708      22767.197      5428.2564      7688.6215     -917.18594      344.90508      395.2663       28655.943     -18828.609     -436.10079      57629.967      38.626272      38.626272      38.626272      1.1544969      5242.8324      3158.4177      2461.0989    
    458000   458000         637.32798      5200.5811      38708.677      34337.058      11434.617      22902.441      5405.818       7864.0343     -947.03098      283.31137      442.97791      28683.38      -18830.05      -436.03438      57638.745      38.628233      38.628233      38.628233      1.154321       4950.67        5099.373       5551.7003    
    459000   459000         632.08106      5464.8903      38733.922      34110.006      11340.48       22769.526      5351.8335      7840.333      -1017.5071      301.93384      452.30466      28679.64      -18839.012     -433.19425      58016.639      38.712468      38.712468      38.712468      1.1468023      7487.0961      3637.7814      5269.7935    
    460000   460000         631.45791      2472.4255      36289.399      34192.509      11329.299      22863.21       5575.3207      7870.7853     -1042.1383      272.50541      343.49724      28681.949     -18838.71      -432.17418      58153.577      38.742902      38.742902      38.742902      1.1441019      952.54413      1735.9932      4728.7391    
    461000   461000         621.03594      5211.3463      38416.549      34000.913      11142.314      22858.599      5433.2409      7850.3124     -978.21925      277.74231      434.14459      28677.255     -18835.876     -432.58139      58098.833      38.730741      38.730741      38.730741      1.1451799      5970.5722      3008.6062      6654.8605    
    462000   462000         631.70072      3032.6087      36810.409      34261.246      11333.656      22927.591      5511.157       7791.4333     -913.53776      307.80401      411.77906      28662.675     -18843.72      -436.0436       57637.526      38.62796       38.62796       38.62796       1.1543454      5451.2568      899.07306      2747.4963    
    463000   463000         626.8405       3299.5671      36987.68       34184.45       11246.456      22937.994      5471.4241      7858.4558     -978.61444      290.3869       427.73519      28707.603     -18838.997     -431.42904      58254.016      38.765193      38.765193      38.765193      1.1421293      5197.0383      3732.7984      968.86456    
    464000   464000         626.37951      4664.1237      37969.547      34015.884      11238.185      22777.699      5445.9376      7793.2879     -959.25544      259.24625      427.17081      28652.042     -18840.731     -432.39588      58123.76       38.736279      38.736279      38.736279      1.1446888      7021.485       2475.2172      4495.669     
    465000   465000         628.53754      5792.2467      39161.597      34259.312      11276.904      22982.409      5298.1778      8019.1228     -975.69549      306.46758      491.74544      28682.274     -18839.683     -433.07154      58033.078      38.716124      38.716124      38.716124      1.1464775      5060.8452      7459.0185      4856.8763    
    466000   466000         630.85181      3767.7253      37706.024      34465.772      11318.425      23147.347      5585.0627      8049.7844     -975.78443      273.1666       385.42179      28666.646     -18836.95      -426.19818      58968.986      38.923142      38.923142      38.923142      1.1282815      5794.3973      2475.324       3033.4546    
    467000   467000         631.53677      2692.5242      36464          34170.935      11330.714      22840.221      5578.7109      7794.4894     -1034.4018      300.75106      404.28084      28633.874     -18837.484     -430.38229      58395.698      38.796596      38.796596      38.796596      1.1393582      3332.8429      1679.3853      3065.3445    
    468000   468000         635.49094      3534.3289      37571.534      34547.48       11401.658      23145.822      5477.4912      8110.085      -995.32321      301.56477      432.63449      28662.095     -18842.725     -428.37944      58668.722      38.856965      38.856965      38.856965      1.134056       3671.4955      1510.8765      5420.6148    
    469000   469000         623.04732      2837.273       36569.196      34140.367      11178.401      22961.966      5523.8458      7906.8371     -988.52574      287.26175      408.49684      28657.992     -18833.942     -428.1691       58697.544      38.863327      38.863327      38.863327      1.1334991      2909.3995      3105.4731      2496.9462    
    470000   470000         634.30741      3384.1618      37165.258      34255.386      11380.424      22874.962      5402.7465      7846.5353     -1018.5187      311.01947      506.76617      28663.62      -18837.206     -426.27352      58958.563      38.920848      38.920848      38.920848      1.128481       4600.8563      4386.2686      1165.3606    
    471000   471000         640.00586      2918.2382      36803.525      34296.749      11482.662      22814.086      5517.9836      7806.7149     -1016.5672      272.25658      371.19201      28698.533     -18836.027     -426.69366      58900.51       38.90807       38.90807       38.90807       1.1295932      2904.6127      1379.8527      4470.2491    
    472000   472000         624.33714      734.27043      34695.673      34061.346      11201.542      22859.803      5580.4632      7796.4462     -950.50881      260.26112      373.81167      28638.489     -18839.159     -424.28099      59235.447      38.98168       38.98168       38.98168       1.1232061      3608.3579     -917.90495     -487.64162    
    473000   473000         641.91776      1466.1626      35658.45       34380.519      11516.965      22863.555      5450.9248      7789.6927     -994.11797      284.0365       512.45456      28652.238     -18831.675     -420.51929      59765.33       39.097571      39.097571      39.097571      1.1132477      404.19648      862.92017      3131.3712    
    474000   474000         615.43676      2894.8414      36528.327      34010.566      11041.856      22968.71       5486.6956      8028.8085     -1043.9723      275.57664      427.45796      28633.204     -18839.06      -421.42611      59636.727      39.069507      39.069507      39.069507      1.1156483      2962.6428      2240.5361      3481.3453    
    475000   475000         627.88321      2801.7064      36728.235      34289.316      11265.164      23024.152      5409.0793      7891.6917     -970.19329      321.35391      537.45702      28669.526     -18834.763     -421.05262      59689.627      39.081056      39.081056      39.081056      1.1146596      4414.9937      1871.9232      2118.2025    
    476000   476000         630.3604       2738.4357      36627.793      34218.333      11309.608      22908.725      5509.8686      7780.8578     -996.21706      302.90183      488.38784      28657.383     -18834.457     -416.57576      60331.101      39.220556      39.220556      39.220556      1.1028079      2683.8762      642.65252      4888.7785    
    477000   477000         631.35457      4096.1002      37731.85       34173.039      11327.445      22845.594      5442.3452      7773.5077     -1004.7219      293.65349      488.52267      28686.938     -18834.651     -421.86824      59574.227      39.055854      39.055854      39.055854      1.1168188      5635.4269      3862.9644      2789.9093    
    478000   478000         635.13991      1115.4223      35093.282      34120.837      11395.36       22725.477      5460.1649      7821.0397     -1031.6364      275.149        370.47058      28672.224     -18841.935     -420.42219      59779.134      39.100581      39.100581      39.100581      1.1129906      830.77569      804.00558      1711.4855    
    479000   479000         630.11682      2611.664       36621.759      34301.764      11305.238      22996.526      5510.308       7868.1496     -1018.5755      276.45454      549.98657      28647.418     -18837.215     -412.61148      60910.748      39.345764      39.345764      39.345764      1.0923132      3330.7341      1727.3925      2776.8655    
    480000   480000         625.11419      2703.914       36575.254      34200.569      11215.484      22985.086      5546.3717      7731.3804     -933.38108      293.26916      506.61353      28681.479     -18840.647     -417.34766      60219.517      39.196362      39.196362      39.196362      1.1048514      1375.2567      3099.2158      3637.2695    
    481000   481000         625.0946       2899.6755      36970.269      34394.835      11215.132      23179.703      5557.7721      8081.1035     -1068.0682      323.89346      422.76373      28702.049     -18839.811     -412.67699      60901.08       39.343682      39.343682      39.343682      1.0924866      3768.3816      3432.6591      1497.9857    
    482000   482000         621.44324      667.94513      34705.263      34113.394      11149.621      22963.772      5503.1834      7831.1607     -969.5277       325.38532      466.59887      28652.137     -18845.165     -413.64322      60758.821      39.313024      39.313024      39.313024      1.0950445      908.16766      1146.5449     -50.877152    
    483000   483000         631.41926      2395.0604      36477.025      34340.387      11328.606      23011.781      5437.2188      7791.3641     -1012.2741      314.04958      615.85756      28705.512     -18839.947     -410.86267      61170.011      39.401509      39.401509      39.401509      1.0876836      1900.2319      2194.2203      3090.7291    
    484000   484000         633.85476     -246.95851      34276.153      34496.526      11372.303      23124.223      5679.9262      7877.7015     -1020.8129      305.25509      424.37311      28691.837     -18834.056     -410.74978      61186.823      39.405118      39.405118      39.405118      1.0873847     -2006.1498      581.65803      683.61626    
    485000   485000         629.82476      1166.6701      35274.453      34230.057      11299.998      22930.059      5615.3885      7782.4601     -1038.7323      313.74616      408.38044      28686.492     -18837.676     -409.44367      61382.007      39.446974      39.446974      39.446974      1.083927       581.37846      267.41938      2651.2125    
    486000   486000         634.72426      226.51865      34637.238      34434.826      11387.903      23046.923      5551.221       7840.0576     -986.55602      301.53843      522.3652       28653.472     -18835.175     -410.18248      61271.448      39.423276      39.423276      39.423276      1.0858829      915.62684      355.5206      -591.5915     
    487000   487000         629.91343     -385.0698       34174.239      34522.533      11301.589      23220.944      5639.5525      7859.5188     -922.28515      306.92061      475.56709      28702.28      -18840.609     -405.23255      62019.881      39.583146      39.583146      39.583146      1.0727788     -751.81141     -1805.3048      1401.9068    
    488000   488000         627.16047      1319.3243      35463.911      34266.924      11252.197      23014.727      5383.862       7842.3363     -931.96367      282.37731      576.10706      28704.044     -18842.036     -403.99244      62210.259      39.623607      39.623607      39.623607      1.0694959      3486.315      -859.72062      1331.3787    
    489000   489000         627.43646      2904.8477      36777.756      34163.218      11257.148      22906.069      5431.8122      7722.2243     -966.27941      287.10166      561.50622      28708.157     -18838.453     -407.22979      61715.707      39.518329      39.518329      39.518329      1.0780662      431.31246      1490.7133      6792.5175    
    490000   490000         634.15481      894.83233      35299.677      34484.733      11377.686      23107.047      5474.1474      7836.8665     -979.99229      294.63037      591.14296      28726.466     -18836.214     -402.46204      62446.819      39.673767      39.673767      39.673767      1.0654444      1615.9203      1400.099      -331.5223     
    491000   491000         632.2857       1156.8319      35560.564      34492.56       11344.151      23148.409      5749.7112      7764.0619     -1052.9119      271.55398      567.95115      28682.383     -18834.341     -397.01629      63303.384      39.854342      39.854342      39.854342      1.0510278      923.64086      2639.3104     -92.455614    
    492000   492000         628.89775      941.65899      35149.023      34290.156      11283.366      23006.79       5550.1606      7725.3483     -1009.6925      297.38074      587.19523      28696.25      -18839.852     -401.86392      62539.763      39.693441      39.693441      39.693441      1.063861       675.02474      169.7313       1980.2209    
    493000   493000         645.04951     -250.90193      34456.295      34688.552      11573.153      23115.399      5605.5696      7842.266      -1033.9899      299.91593      531.67082      28709.415     -18839.448     -395.95546      63472.984      39.889902      39.889902      39.889902      1.0482194      1011.3458     -1439.2483     -324.80323    
    494000   494000         637.97503     -1171.7458      33332.65       34415.508      11446.226      22969.281      5605.9429      7769.9195     -1060.5886      313.2741       492.90169      28690.735     -18842.903     -396.6187       63366.841      39.867654      39.867654      39.867654      1.0499753      72.882226     -2104.5171     -1483.6026    
    495000   495000         631.40434     -679.29126      33641.774      34277.74       11328.338      22949.401      5570.14        7712.3061     -988.31442      294.70904      528.46153      28670.736     -18838.637     -391.50145      64195.099      40.040604      40.040604      40.040604      1.0364283      935.83383     -2030.6043     -943.10337    
    496000   496000         623.34883     -948.2463       33274.479      34150.704      11183.81       22966.893      5514.3389      7883.1008     -996.03153      309.08826      429.66918      28666.842     -18840.115     -396.65836      63360.506      39.866326      39.866326      39.866326      1.0500803      580.58249     -2242.4019     -1182.9195    
    497000   497000         621.50803     -435.34108      33888.724      34299.018      11150.784      23148.235      5514.4257      7807.4457     -969.90431      286.40801      664.3369       28685.491     -18839.968     -388.90677      64623.391      40.129454      40.129454      40.129454      1.0295593     -796.5589      -243.14916     -266.31517    
    498000   498000         624.74671     -1268.124       33252.931      34446.372      11208.89       23237.481      5574.4309      8016.2616     -1038.7586      272.43786      552.99841      28694.354     -18834.243     -389.46799      64530.269      40.110169      40.110169      40.110169      1.0310451     -2013.5569     -436.51205     -1354.303     
    499000   499000         633.4152       1390.6636      35534.752      34228.532      11364.416      22864.116      5461.8108      7710.5069     -1039.9552      273.77551      618.46595      28683.733     -18844.221     -390.22677      64404.792      40.084155      40.084155      40.084155      1.0330538      1767.9567      1535.8722      868.16199    
    500000   500000         622.86806      94.625508      34371.252      34282.361      11175.185      23107.176      5651.3499      7848.3979     -1037.3863      287.80482      511.0167       28682.895     -18836.902     -390.17519      64413.308      40.085921      40.085921      40.085921      1.0329172      455.37715     -1003.7933      832.29271    
Loop time of 3766.52 on 8 procs for 500000 steps with 6020 atoms

Performance: 11.469 ns/day, 2.093 hours/ns, 132.749 timesteps/s, 799.146 katom-step/s
97.6% CPU use with 8 MPI tasks x 1 OpenMP threads

MPI task timing breakdown:
Section |  min time  |  avg time  |  max time  |%varavg| %total
---------------------------------------------------------------
Pair    | 1261.8     | 1307.7     | 1359.1     |  78.1 | 34.72
Bond    | 733.54     | 805.83     | 906.45     | 206.7 | 21.39
Kspace  | 357.11     | 458.96     | 532.36     | 279.2 | 12.19
Neigh   | 651.48     | 690.06     | 714.93     |  82.4 | 18.32
Comm    | 145.77     | 147.46     | 148.58     |   8.4 |  3.92
Output  | 1.9604     | 2.0673     | 2.1652     |   4.7 |  0.05
Modify  | 293.67     | 328.85     | 379.99     | 152.9 |  8.73
Other   |            | 25.64      |            |       |  0.68

Nlocal:          752.5 ave         801 max         698 min
Histogram: 2 0 0 1 1 0 1 1 0 2
Nghost:         6707.5 ave        6773 max        6660 min
Histogram: 3 0 0 1 2 0 0 0 0 2
Neighs:              0 ave           0 max           0 min
Histogram: 8 0 0 0 0 0 0 0 0 0
FullNghs:       448218 ave      481408 max      405819 min
Histogram: 1 1 0 0 1 1 2 0 0 2

Total # of neighbors = 3585742
Ave neighs/atom = 595.63821
Ave special neighs/atom = 5.717608
Neighbor list builds = 28924
Dangerous builds = 0

# --- Cleanup ---
unfix npt_fix

undump dump_npt

# --- Write Output ---
write_dump all custom npt_pppm_last.dump id type mol x y z xu yu zu vx vy vz modify sort id
write_data /home/arz2/PolyJarvis/data/PMMA1/lammps/npt_pppm/npt_pppm_out.data
System init for write_data ...
PPPM initialization ...
  using 12-bit tables for long-range coulomb
  G vector (1/distance) = 0.24258478
  grid = 15 15 15
  stencil order = 5
  estimated absolute RMS force accuracy = 0.030418222
  estimated relative force accuracy = 9.1603571e-05
  using double precision KISS FFT
  3d grid and FFT values/proc = 2197 512
Generated 15 of 15 mixed pair_coeff terms from sixthpower/sixthpower mixing rule

print "STAGE COMPLETE: NPT T=630.0->630.0K P=50000.0->1.0atm steps=500000"
STAGE COMPLETE: NPT T=630.0->630.0K P=50000.0->1.0atm steps=500000
quit
