units real
atom_style full
boundary p p p

# --- Force Field Styles ---
pair_style lj/class2/coul/long 9.5 9.5
kspace_style pppm 1e-6
dielectric 1.000000
bond_style class2
angle_style class2
dihedral_style class2
improper_style class2
special_bonds lj/coul 0 0 1
pair_modify mix sixthpower tail yes
neighbor 2.0 bin
neigh_modify delay 0 every 1 check yes
neigh_modify one 4000

read_data /home/arz2/PolyJarvis/data/PSU1/lammps/npt_production/npt_production_out.data
Reading data file ...
  orthogonal box = (4.5891084 4.5891084 4.5891084) to (52.867803 52.867803 52.867803)
  1 by 1 by 1 MPI processor grid
  reading atoms ...
  8656 atoms
  reading velocities ...
  8656 velocities
  scanning bonds ...
  4 = max bonds/atom
  scanning angles ...
  6 = max angles/atom
  scanning dihedrals ...
  30 = max dihedrals/atom
  scanning impropers ...
  4 = max impropers/atom
  orthogonal box = (4.5891084 4.5891084 4.5891084) to (52.867803 52.867803 52.867803)
  1 by 1 by 1 MPI processor grid
  reading bonds ...
  9288 bonds
  reading angles ...
  15680 angles
  reading dihedrals ...
  23344 dihedrals
  reading impropers ...
  6400 impropers
Finding 1-2 1-3 1-4 neighbors ...
  special bond factors lj:    0        0        1       
  special bond factors coul:  0        0        1       
     4 = max # of 1-2 neighbors
    10 = max # of 1-3 neighbors
    14 = max # of special neighbors
  special bonds CPU = 0.003 seconds
  read_data CPU = 0.199 seconds
include /home/arz2/PolyJarvis/data/PSU1/lammps/cell/emc_build.params
# LAMMPS parameters created by EMC v9.4.4, build Jul 31 2025 20:33:44

# Variables

variable	seed		index	-1
variable	ntotal		index	8656
variable	fshape		index	1
variable	output		index	emc_build
variable	field		index	pcff/pcff
variable	location1	index	/home/arz2/emc/field/
variable	nav		index	0.6022141179
variable	temperature	index	300
variable	radius		index	5
variable	nrelax		index	100
variable	weight_nonbond	index	0.0001
variable	weight_bond	index	0.0001
variable	weight_focus	index	1
variable	cutoff		index	9.5
variable	charge_cutoff	index	9.5
variable	kappa		index	4
variable	density1	index	0.62
variable	lprevious	index	0
variable	lphase		index	57.4569112838
variable	f_poly		index	8
variable	chem_repeat	index	*Oc1ccc(C(C)(C)c2ccc(Oc3ccc(S(=O)(=O)c4ccc(*)cc4)cc3)cc2)cc1
variable	chem_cap	index	*[H]
variable	lg_repeat	index	54
variable	lg_cap		index	1
variable	norm_poly	index	100
variable	l_poly		index	1082
variable	mg_repeat	index	414.52744
variable	mg_cap		index	0
variable	m_poly		index	8290.5488
variable	n_poly		index	8
variable	mtotal		index	70822.20592
variable	nphase1		index	8656
variable	mphase1		index	70822.20592
variable	vphase1		index	189682.308986
variable	lbox		index	57.4569112838
variable	lphase1		index	57.4569112838
variable	lxx		index	57.4569112838
variable	lyy		index	57.4569112838
variable	lzz		index	57.4569112838
variable	lzy		index	0
variable	lzx		index	0
variable	lyx		index	0
variable	vtotal		index	189682.308986
variable	nl_poly		index	8

# Types

variable	type_c		index	1
variable	type_cp		index	2
variable	type_hc		index	3
variable	type_ho		index	4
variable	type_oe		index	5
variable	type_oc		index	6
variable	type_oh		index	7
variable	type_sf		index	8

variable	type_bond_c_c	index	1
variable	type_bond_c_cp	index	2
variable	type_bond_c_hc	index	3
variable	type_bond_cp_cp	index	4
variable	type_bond_cp_hc	index	5
variable	type_bond_cp_oc	index	6
variable	type_bond_cp_oh	index	7
variable	type_bond_cp_sf	index	8
variable	type_bond_ho_oh	index	9
variable	type_bond_oe_sf	index	10

variable	type_angle_c_c_c index	1
variable	type_angle_c_c_cp index	2
variable	type_angle_c_c_hc index	3
variable	type_angle_c_cp_cp index	4
variable	type_angle_cp_c_cp index	5
variable	type_angle_cp_cp_cp index	6
variable	type_angle_cp_cp_hc index	7
variable	type_angle_cp_cp_oc index	8
variable	type_angle_cp_cp_oh index	9
variable	type_angle_cp_cp_sf index	10
variable	type_angle_cp_oc_cp index	11
variable	type_angle_cp_oh_ho index	12
variable	type_angle_cp_sf_cp index	13
variable	type_angle_cp_sf_oe index	14
variable	type_angle_hc_c_hc index	15
variable	type_angle_oe_sf_oe index	16

# Clusters

variable	n0_poly		index	1
variable	n1_poly		index	8
variable	nl_poly		index	8

# Flags

variable	flag_charged	index	1

# Masses

mass		1    12.01115  # c
mass		2    12.01115  # cp
mass		3     1.00797  # hc
mass		4     1.00797  # ho
mass		5    15.99940  # o=
mass		6    15.99940  # oc
mass		7    15.99940  # oh
mass		8    32.06400  # sf

# Potentials

pair_modify	mix sixthpower tail yes
special_bonds	lj/coul 0 0 1

# Pair Coeffs

pair_coeff	 1  1    0.05400    4.01000  # c,c
pair_coeff	 2  2    0.06400    4.01000  # cp,cp
pair_coeff	 3  3    0.02000    2.99500  # hc,hc
pair_coeff	 4  4    0.01300    1.09800  # ho,ho
pair_coeff	 5  5    0.06000    3.53500  # o=,o=
pair_coeff	 6  6    0.24000    3.53500  # oc,oc
pair_coeff	 7  7    0.24000    3.53500  # oh,oh
pair_coeff	 8  8    0.25000    4.02700  # sf,sf

# Bond Coeffs

bond_coeff	 1    1.53000  299.67000 -501.77000  679.81000  # c,c
bond_coeff	 2    1.50100  321.90210 -521.82080  572.16280  # c,cp
bond_coeff	 3    1.10100  345.00000 -691.89000  844.60000  # c,hc
bond_coeff	 4    1.41700  470.83610 -627.61790 1327.63450  # cp,cp
bond_coeff	 5    1.09820  372.82510 -803.45260  894.31730  # cp,hc
bond_coeff	 6    1.37680  428.87980 -738.23510 1114.96550  # cp,oc
bond_coeff	 7    1.37680  428.87980 -738.23510 1114.96550  # cp,oh
bond_coeff	 8    1.72000  239.80240    0.00000    0.00000  # cp,sf
bond_coeff	 9    0.96500  532.50620 -1282.90500 2004.76580  # ho,oh
bond_coeff	10    1.43080  743.76000    0.00000    0.00000  # o=,sf

# Angle Coeffs

angle_coeff	 1  112.67000   39.51600   -7.44300   -9.55830  # c,c,c
angle_coeff	 2  108.40000   43.95940   -8.39240   -9.33790  # c,c,cp
angle_coeff	 3  110.77000   41.45300  -10.60400    5.12900  # c,c,hc
angle_coeff	 4  120.05000   44.71480  -22.73520    0.00000  # c,cp,cp
angle_coeff	 5  111.00000   44.32340   -9.44540    0.00000  # cp,c,cp
angle_coeff	 6  118.90000   61.02260  -34.99310    0.00000  # cp,cp,cp
angle_coeff	 7  117.94000   35.15580  -12.46820    0.00000  # cp,cp,hc
angle_coeff	 8  123.42000   73.67810  -21.67870    0.00000  # cp,cp,oc
angle_coeff	 9  123.42000   73.67810  -21.67870    0.00000  # cp,cp,oh
angle_coeff	10  120.00000   60.00000    0.00000    0.00000  # cp,cp,sf
angle_coeff	11  109.50000   60.00000    0.00000    0.00000  # cp,oc,cp
angle_coeff	12  108.19000   53.12500   -8.50160    0.00000  # cp,oh,ho
angle_coeff	13  102.00000   58.00000    0.00000    0.00000  # cp,sf,cp
angle_coeff	14  113.10000   42.30000    0.00000    0.00000  # cp,sf,o=
angle_coeff	15  107.66000   39.64100  -12.92100   -2.43180  # hc,c,hc
angle_coeff	16  119.32900  135.00000    0.00000    0.00000  # o=,sf,o=

# BondBond Coeffs

angle_coeff	 1 bb    0.00000    1.53000    1.53000  # c,c,c
angle_coeff	 2 bb    0.00000    1.53000    1.50100  # c,c,cp
angle_coeff	 3 bb    3.38720    1.53000    1.10100  # c,c,hc
angle_coeff	 4 bb   12.06760    1.50100    1.41700  # c,cp,cp
angle_coeff	 5 bb    0.00000    1.50100    1.50100  # cp,c,cp
angle_coeff	 6 bb   68.28560    1.41700    1.41700  # cp,cp,cp
angle_coeff	 7 bb    1.07950    1.41700    1.09820  # cp,cp,hc
angle_coeff	 8 bb   48.47540    1.41700    1.37680  # cp,cp,oc
angle_coeff	 9 bb   48.47540    1.41700    1.37680  # cp,cp,oh
angle_coeff	10 bb    0.00000    1.41700    1.72000  # cp,cp,sf
angle_coeff	11 bb    0.00000    1.37680    1.37680  # cp,oc,cp
angle_coeff	12 bb   20.65770    1.37680    0.96500  # cp,oh,ho
angle_coeff	13 bb    0.00000    1.72000    1.72000  # cp,sf,cp
angle_coeff	14 bb    0.00000    1.72000    1.43080  # cp,sf,o=
angle_coeff	15 bb    5.33160    1.10100    1.10100  # hc,c,hc
angle_coeff	16 bb   40.00000    1.43080    1.43080  # o=,sf,o=

# BondAngle Coeffs

angle_coeff	 1 ba    8.01600    8.01600    1.53000    1.53000  # c,c,c
angle_coeff	 2 ba    0.00000    0.00000    1.53000    1.50100  # c,c,cp
angle_coeff	 3 ba   20.75400   11.42100    1.53000    1.10100  # c,c,hc
angle_coeff	 4 ba   47.05790   31.07710    1.50100    1.41700  # c,cp,cp
angle_coeff	 5 ba    0.00000    0.00000    1.50100    1.50100  # cp,c,cp
angle_coeff	 6 ba   28.87080   28.87080    1.41700    1.41700  # cp,cp,cp
angle_coeff	 7 ba   20.00330   24.21830    1.41700    1.09820  # cp,cp,hc
angle_coeff	 8 ba   58.47900  107.68060    1.41700    1.37680  # cp,cp,oc
angle_coeff	 9 ba   58.47900  107.68060    1.41700    1.37680  # cp,cp,oh
angle_coeff	10 ba    0.00000    0.00000    1.41700    1.72000  # cp,cp,sf
angle_coeff	11 ba    0.00000    0.00000    1.37680    1.37680  # cp,oc,cp
angle_coeff	12 ba   53.86140   23.92240    1.37680    0.96500  # cp,oh,ho
angle_coeff	13 ba    0.00000    0.00000    1.72000    1.72000  # cp,sf,cp
angle_coeff	14 ba    0.00000    0.00000    1.72000    1.43080  # cp,sf,o=
angle_coeff	15 ba   18.10300   18.10300    1.10100    1.10100  # hc,c,hc
angle_coeff	16 ba    0.00000    0.00000    1.43080    1.43080  # o=,sf,o=

# Dihedral Coeffs

dihedral_coeff	 1    0.00000    0.00000    0.03160    0.00000   -0.16810    0.00000  # c,c,c,hc
dihedral_coeff	 2   -0.28020    0.00000   -0.06780    0.00000   -0.01220    0.00000  # c,c,cp,cp
dihedral_coeff	 3    0.00000    0.00000    4.40720    0.00000    0.00000    0.00000  # c,cp,cp,cp
dihedral_coeff	 4    0.00000    0.00000    1.55900    0.00000    0.00000    0.00000  # c,cp,cp,hc
dihedral_coeff	 5   -0.02280    0.00000    0.02800    0.00000   -0.18630    0.00000  # cp,c,c,hc
dihedral_coeff	 6   -0.28020    0.00000   -0.06780    0.00000   -0.01220    0.00000  # cp,c,cp,cp
dihedral_coeff	 7    8.36670    0.00000    1.19320    0.00000    0.00000    0.00000  # cp,cp,cp,cp
dihedral_coeff	 8    0.00000    0.00000    3.96610    0.00000    0.00000    0.00000  # cp,cp,cp,hc
dihedral_coeff	 9    0.00000    0.00000    4.84980    0.00000    0.00000    0.00000  # cp,cp,cp,oc
dihedral_coeff	10    0.00000    0.00000    4.84980    0.00000    0.00000    0.00000  # cp,cp,cp,oh
dihedral_coeff	11    0.00000    0.00000    3.00000    0.00000    0.00000    0.00000  # cp,cp,cp,sf
dihedral_coeff	12    0.00000    0.00000    1.80000    0.00000    0.00000    0.00000  # cp,cp,oc,cp
dihedral_coeff	13   -0.69000    0.00000    0.50970    0.00000    0.00950    0.00000  # cp,cp,oh,ho
dihedral_coeff	14    0.00000    0.00000    1.50000    0.00000    0.00000    0.00000  # cp,cp,sf,cp
dihedral_coeff	15    0.00000    0.00000    1.50000    0.00000    0.00000    0.00000  # cp,cp,sf,o=
dihedral_coeff	16    0.00000    0.00000    1.87690    0.00000    0.00000    0.00000  # hc,cp,cp,hc
dihedral_coeff	17    0.00000    0.00000    1.72340    0.00000    0.00000    0.00000  # hc,cp,cp,oc
dihedral_coeff	18    0.00000    0.00000    1.72340    0.00000    0.00000    0.00000  # hc,cp,cp,oh
dihedral_coeff	19    0.00000    0.00000    3.00000    0.00000    0.00000    0.00000  # hc,cp,cp,sf

# MiddleBondTorsion Coeffs

dihedral_coeff	 1 mbt  -14.87900   -3.65810   -0.31380    1.53000  # c,c,c,hc
dihedral_coeff	 2 mbt    0.00000    0.00000    0.00000    1.50100  # c,c,cp,cp
dihedral_coeff	 3 mbt    0.00000    9.17920    0.00000    1.41700  # c,cp,cp,cp
dihedral_coeff	 4 mbt    0.00000    3.94210    0.00000    1.41700  # c,cp,cp,hc
dihedral_coeff	 5 mbt    0.00000    0.00000    0.00000    1.53000  # cp,c,c,hc
dihedral_coeff	 6 mbt    0.00000    0.00000    0.00000    1.50100  # cp,c,cp,cp
dihedral_coeff	 7 mbt   27.59890   -2.31200    0.00000    1.41700  # cp,cp,cp,cp
dihedral_coeff	 8 mbt    0.00000   -1.15210    0.00000    1.41700  # cp,cp,cp,hc
dihedral_coeff	 9 mbt    0.00000    4.82550    0.00000    1.41700  # cp,cp,cp,oc
dihedral_coeff	10 mbt    0.00000    4.82550    0.00000    1.41700  # cp,cp,cp,oh
dihedral_coeff	11 mbt    0.00000    0.00000    0.00000    1.41700  # cp,cp,cp,sf
dihedral_coeff	12 mbt    0.00000    0.00000    0.00000    1.37680  # cp,cp,oc,cp
dihedral_coeff	13 mbt    1.15800    3.26970    3.51320    1.37680  # cp,cp,oh,ho
dihedral_coeff	14 mbt    0.00000    0.00000    0.00000    1.72000  # cp,cp,sf,cp
dihedral_coeff	15 mbt    0.00000    0.00000    0.00000    1.72000  # cp,cp,sf,o=
dihedral_coeff	16 mbt    0.00000    4.82280    0.00000    1.41700  # hc,cp,cp,hc
dihedral_coeff	17 mbt    0.00000    5.54320    0.00000    1.41700  # hc,cp,cp,oc
dihedral_coeff	18 mbt    0.00000    5.54320    0.00000    1.41700  # hc,cp,cp,oh
dihedral_coeff	19 mbt    0.00000    0.00000    0.00000    1.41700  # hc,cp,cp,sf

# EndBondTorsion Coeffs

dihedral_coeff	 1 ebt    0.24860    0.24220   -0.09250    0.08140    0.05910    0.22190    1.53000    1.10100  # c,c,c,hc
dihedral_coeff	 2 ebt    0.00000    0.00000    0.00000    0.00000    0.00000    0.00000    1.53000    1.41700  # c,c,cp,cp
dihedral_coeff	 3 ebt    0.00000    0.24210    0.00000    0.00000   -0.69180    0.00000    1.50100    1.41700  # c,cp,cp,cp
dihedral_coeff	 4 ebt    0.00000   -1.79700    0.00000    0.00000   -0.48790    0.00000    1.50100    1.09820  # c,cp,cp,hc
dihedral_coeff	 5 ebt    0.00000    0.00000    0.00000    0.00000    0.00000    0.00000    1.50100    1.10100  # cp,c,c,hc
dihedral_coeff	 6 ebt    0.00000    0.00000    0.00000    0.00000    0.00000    0.00000    1.50100    1.41700  # cp,c,cp,cp
dihedral_coeff	 7 ebt   -0.11850    6.32040    0.00000   -0.11850    6.32040    0.00000    1.41700    1.41700  # cp,cp,cp,cp
dihedral_coeff	 8 ebt    0.00000   -6.89580    0.00000    0.00000   -0.46690    0.00000    1.41700    1.09820  # cp,cp,cp,hc
dihedral_coeff	 9 ebt    0.00000    0.26550    0.00000    0.00000    4.89050    0.00000    1.41700    1.37680  # cp,cp,cp,oc
dihedral_coeff	10 ebt    0.00000    0.26550    0.00000    0.00000    4.89050    0.00000    1.41700    1.37680  # cp,cp,cp,oh
dihedral_coeff	11 ebt    0.00000    0.00000    0.00000    0.00000    0.00000    0.00000    1.41700    1.72000  # cp,cp,cp,sf
dihedral_coeff	12 ebt    0.00000    0.00000    0.00000    0.00000    0.00000    0.00000    1.41700    1.37680  # cp,cp,oc,cp
dihedral_coeff	13 ebt    0.90000   -1.34560    1.19000    3.41320    0.58730   -0.13230    1.41700    0.96500  # cp,cp,oh,ho
dihedral_coeff	14 ebt    0.00000    0.00000    0.00000    0.00000    0.00000    0.00000    1.41700    1.72000  # cp,cp,sf,cp
dihedral_coeff	15 ebt    0.00000    0.00000    0.00000    0.00000    0.00000    0.00000    1.41700    1.43080  # cp,cp,sf,o=
dihedral_coeff	16 ebt    0.00000   -0.68900    0.00000    0.00000   -0.68900    0.00000    1.09820    1.09820  # hc,cp,cp,hc
dihedral_coeff	17 ebt    0.00000   -1.58670    0.00000    0.00000    4.26410    0.00000    1.09820    1.37680  # hc,cp,cp,oc
dihedral_coeff	18 ebt    0.00000   -1.58670    0.00000    0.00000    4.26410    0.00000    1.09820    1.37680  # hc,cp,cp,oh
dihedral_coeff	19 ebt    0.00000    0.00000    0.00000    0.00000    0.00000    0.00000    1.09820    1.72000  # hc,cp,cp,sf

# AngleTorsion Coeffs

dihedral_coeff	 1 at   -0.24540    0.00000   -0.11360    0.31130    0.45160   -0.19880  112.67000  110.77000  # c,c,c,hc
dihedral_coeff	 2 at    0.00000    0.00000    0.00000    0.00000    0.00000    0.00000  108.40000  120.05000  # c,c,cp,cp
dihedral_coeff	 3 at    0.00000   -4.46830    0.00000    0.00000    3.89870    0.00000  120.05000  118.90000  # c,cp,cp,cp
dihedral_coeff	 4 at    0.00000   -0.12420    0.00000    0.00000    3.46010    0.00000  120.05000  117.94000  # c,cp,cp,hc
dihedral_coeff	 5 at    0.00000    0.00000    0.00000    0.00000    0.00000    0.00000  108.40000  110.77000  # cp,c,c,hc
dihedral_coeff	 6 at    0.00000    0.00000    0.00000    0.00000    0.00000    0.00000  111.00000  120.05000  # cp,c,cp,cp
dihedral_coeff	 7 at    1.97670    1.02390    0.00000    1.97670    1.02390    0.00000  118.90000  118.90000  # cp,cp,cp,cp
dihedral_coeff	 8 at    0.00000    2.50140    0.00000    0.00000    2.71470    0.00000  118.90000  117.94000  # cp,cp,cp,hc
dihedral_coeff	 9 at    0.00000   10.01550    0.00000    0.00000    1.74040    0.00000  118.90000  123.42000  # cp,cp,cp,oc
dihedral_coeff	10 at    0.00000   10.01550    0.00000    0.00000    1.74040    0.00000  118.90000  123.42000  # cp,cp,cp,oh
dihedral_coeff	11 at    0.00000    0.00000    0.00000    0.00000    0.00000    0.00000  118.90000  120.00000  # cp,cp,cp,sf
dihedral_coeff	12 at    0.00000    0.00000    0.00000    0.00000    0.00000    0.00000  123.42000  109.50000  # cp,cp,oc,cp
dihedral_coeff	13 at   -5.13600   -1.01220    0.00000    4.68520    0.02300   -0.59800  123.42000  108.19000  # cp,cp,oh,ho
dihedral_coeff	14 at    0.00000    0.00000    0.00000    0.00000    0.00000    0.00000  120.00000  102.00000  # cp,cp,sf,cp
dihedral_coeff	15 at    0.00000    0.00000    0.00000    0.00000    0.00000    0.00000  120.00000  113.10000  # cp,cp,sf,o=
dihedral_coeff	16 at    0.00000    2.45010    0.00000    0.00000    2.45010    0.00000  117.94000  117.94000  # hc,cp,cp,hc
dihedral_coeff	17 at    0.00000    1.87290    0.00000    0.00000    2.57060    0.00000  117.94000  123.42000  # hc,cp,cp,oc
dihedral_coeff	18 at    0.00000    1.87290    0.00000    0.00000    2.57060    0.00000  117.94000  123.42000  # hc,cp,cp,oh
dihedral_coeff	19 at    0.00000    0.00000    0.00000    0.00000    0.00000    0.00000  117.94000  120.00000  # hc,cp,cp,sf

# AngleAngleTorsion Coeffs

dihedral_coeff	 1 aat  -16.16400  112.67000  110.77000  # c,c,c,hc
dihedral_coeff	 2 aat    0.00000  108.40000  120.05000  # c,c,cp,cp
dihedral_coeff	 3 aat  -14.40970  120.05000  118.90000  # c,cp,cp,cp
dihedral_coeff	 4 aat    4.44440  120.05000  117.94000  # c,cp,cp,hc
dihedral_coeff	 5 aat    0.00000  108.40000  110.77000  # cp,c,c,hc
dihedral_coeff	 6 aat    0.00000  111.00000  120.05000  # cp,c,cp,cp
dihedral_coeff	 7 aat    0.00000  118.90000  118.90000  # cp,cp,cp,cp
dihedral_coeff	 8 aat   -4.81410  118.90000  117.94000  # cp,cp,cp,hc
dihedral_coeff	 9 aat  -21.02470  118.90000  123.42000  # cp,cp,cp,oc
dihedral_coeff	10 aat  -21.02470  118.90000  123.42000  # cp,cp,cp,oh
dihedral_coeff	11 aat    0.00000  118.90000  120.00000  # cp,cp,cp,sf
dihedral_coeff	12 aat    0.00000  123.42000  109.50000  # cp,cp,oc,cp
dihedral_coeff	13 aat   -4.60720  123.42000  108.19000  # cp,cp,oh,ho
dihedral_coeff	14 aat    0.00000  120.00000  102.00000  # cp,cp,sf,cp
dihedral_coeff	15 aat    0.00000  120.00000  113.10000  # cp,cp,sf,o=
dihedral_coeff	16 aat    0.35980  117.94000  117.94000  # hc,cp,cp,hc
dihedral_coeff	17 aat    4.22960  117.94000  123.42000  # hc,cp,cp,oc
dihedral_coeff	18 aat    4.22960  117.94000  123.42000  # hc,cp,cp,oh
dihedral_coeff	19 aat    0.00000  117.94000  120.00000  # hc,cp,cp,sf

# BondBond13 Coeffs

dihedral_coeff	 1 bb13    0.00000    1.53000    1.10100  # c,c,c,hc
dihedral_coeff	 2 bb13    0.00000    1.53000    1.41700  # c,c,cp,cp
dihedral_coeff	 3 bb13    2.50850    1.50100    1.41700  # c,cp,cp,cp
dihedral_coeff	 4 bb13    0.87430    1.50100    1.09820  # c,cp,cp,hc
dihedral_coeff	 5 bb13    0.00000    1.50100    1.10100  # cp,c,c,hc
dihedral_coeff	 6 bb13    0.00000    1.50100    1.41700  # cp,c,cp,cp
dihedral_coeff	 7 bb13   53.00000    1.41700    1.41700  # cp,cp,cp,cp
dihedral_coeff	 8 bb13   -6.27410    1.41700    1.09820  # cp,cp,cp,hc
dihedral_coeff	 9 bb13   -2.24360    1.41700    1.37680  # cp,cp,cp,oc
dihedral_coeff	10 bb13   -2.24360    1.41700    1.37680  # cp,cp,cp,oh
dihedral_coeff	11 bb13    0.00000    1.41700    1.72000  # cp,cp,cp,sf
dihedral_coeff	12 bb13    0.00000    1.41700    1.37680  # cp,cp,oc,cp
dihedral_coeff	13 bb13    1.15900    1.41700    0.96500  # cp,cp,oh,ho
dihedral_coeff	14 bb13    0.00000    1.41700    1.72000  # cp,cp,sf,cp
dihedral_coeff	15 bb13    0.00000    1.41700    1.43080  # cp,cp,sf,o=
dihedral_coeff	16 bb13   -1.70770    1.09820    1.09820  # hc,cp,cp,hc
dihedral_coeff	17 bb13    2.05170    1.09820    1.37680  # hc,cp,cp,oc
dihedral_coeff	18 bb13    2.05170    1.09820    1.37680  # hc,cp,cp,oh
dihedral_coeff	19 bb13    0.00000    1.09820    1.72000  # hc,cp,cp,sf

# Improper Coeffs

improper_coeff	 1    0.00000    0.00000  # c,c,c,cp
improper_coeff	 2    0.00000    0.00000  # c,c,cp,cp
improper_coeff	 3    0.00000    0.00000  # c,c,hc,hc
improper_coeff	 4    0.00000    0.00000  # c,hc,hc,hc
improper_coeff	 5    7.81530    0.00000  # cp,c,cp,cp
improper_coeff	 6    4.89120    0.00000  # cp,cp,cp,hc
improper_coeff	 7   13.04210    0.00000  # cp,cp,cp,oc
improper_coeff	 8   13.04210    0.00000  # cp,cp,cp,oh
improper_coeff	 9    0.00000    0.00000  # cp,cp,cp,sf
improper_coeff	10    0.00000    0.00000  # sf,cp,cp,o=
improper_coeff	11    0.00000    0.00000  # sf,cp,o=,o=

# AngleAngle Coeffs

improper_coeff	 1 aa    0.00000    0.00000    0.00000  112.67000  108.40000  108.40000  # c,c,c,cp
improper_coeff	 2 aa    0.00000    0.00000    0.00000  108.40000  108.40000  111.00000  # c,c,cp,cp
improper_coeff	 3 aa    0.27380   -0.48250    0.27380  110.77000  110.77000  107.66000  # c,c,hc,hc
improper_coeff	 4 aa   -0.31570   -0.31570   -0.31570  107.66000  107.66000  107.66000  # c,hc,hc,hc
improper_coeff	 5 aa    0.00000    0.00000    0.00000  120.05000  120.05000  118.90000  # cp,c,cp,cp
improper_coeff	 6 aa    0.00000    0.00000    0.00000  118.90000  117.94000  117.94000  # cp,cp,cp,hc
improper_coeff	 7 aa    0.00000    0.00000    0.00000  118.90000  123.42000  123.42000  # cp,cp,cp,oc
improper_coeff	 8 aa    0.00000    0.00000    0.00000  118.90000  123.42000  123.42000  # cp,cp,cp,oh
improper_coeff	 9 aa    0.00000    0.00000    0.00000  118.90000  120.00000  120.00000  # cp,cp,cp,sf
improper_coeff	10 aa    0.00000    0.00000    0.00000  102.00000  113.10000  113.10000  # sf,cp,cp,o=
improper_coeff	11 aa    0.00000    0.00000    0.00000  113.10000  113.10000  119.32900  # sf,cp,o=,o=


# --- Thermo Output ---
thermo_style custom step time temp press enthalpy etotal ke pe ebond eangle edihed eimp evdwl ecoul elong etail vol lx ly lz density pxx pyy pzz
thermo_modify flush yes
thermo 500

# --- Velocity initialization at T_START (once only — Rule A) ---
velocity all create 750.0 385703 mom yes rot yes dist gaussian

# --- Temperature staircase (inherits momenta across steps — Rule A) ---
variable temps index 750 730 710 690 670 650 630 610 590 570 550 530 510 490 470 450 430 410 390 370 350 330 310 290 270 250
label TEMP_LOOP
  timestep 1
  fix npt_tg all npt temp ${temps} ${temps} 100 iso 1.0 1.0 1000.0
  fix npt_tg all npt temp 750 ${temps} 100 iso 1.0 1.0 1000.0
  fix npt_tg all npt temp 750 750 100 iso 1.0 1.0 1000.0
  run 500000

CITE-CITE-CITE-CITE-CITE-CITE-CITE-CITE-CITE-CITE-CITE-CITE-CITE

Your simulation uses code contributions which should be cited:

- GPU package (short-range, long-range and three-body potentials): doi:10.1016/j.cpc.2010.12.021, doi:10.1016/j.cpc.2011.10.012, doi:10.1016/j.cpc.2013.08.002, doi:10.1016/j.commatsci.2014.10.068, doi:10.1016/j.cpc.2016.10.020, doi:10.3233/APC200086

@Article{Brown11,
 author = {W. M. Brown and P. Wang and S. J. Plimpton and A. N. Tharrington},
 title = {Implementing Molecular Dynamics on Hybrid High Performance Computers---Short Range Forces},
 journal = {Comput.\ Phys.\ Commun.},
 year =    2011,
 volume =  182,
 pages =   {898--911},
 doi =     {10.1016/j.cpc.2010.12.021}
}

@Article{Brown12,
 author = {W. M. Brown and A. Kohlmeyer and S. J. Plimpton and A. N. Tharrington},
 title = {Implementing Molecular Dynamics on Hybrid High Performance Computers - Particle-Particle Particle-Mesh},
 journal = {Comput.\ Phys.\ Commun.},
 year =    2012,
 volume =  183,
 doi =     {10.1016/j.cpc.2011.10.012},
 pages =   {449--459}
}

@Article{Brown13,
 author = {W. M. Brown and Y. Masako},
 title = {Implementing Molecular Dynamics on Hybrid High Performance Computers---Three-Body Potentials},
 journal = {Comput.\ Phys.\ Commun.},
 year =    2013,
 volume =  184,
 pages =   {2785--2793},
 doi =     {10.1016/j.cpc.2013.08.002},
}

@Article{Trung15,
 author = {T. D. Nguyen and S. J. Plimpton},
 title = {Accelerating Dissipative Particle Dynamics Simulations for Soft Matter Systems},
 journal = {Comput.\ Mater.\ Sci.},
 year =    2015,
 doi =     {10.1016/j.commatsci.2014.10.068},
 volume =  100,
 pages =   {173--180}
}

@Article{Trung17,
 author = {T. D. Nguyen},
 title = {{GPU}-Accelerated {T}ersoff Potentials for Massively Parallel
    Molecular Dynamics Simulations},
 journal = {Comput.\ Phys.\ Commun.},
 year =    2017,
 doi =     {10.1016/j.cpc.2016.10.020},
 volume =  212,
 pages =   {113--122}
}

@inproceedings{Nikolskiy19,
 author = {V. Nikolskiy and V. Stegailov},
 title = {{GPU} Acceleration of Four-Site Water Models in {LAMMPS}},
 booktitle = {Proceedings of the International Conference on Parallel
    Computing (ParCo 2019), Prague, Czech Republic},
 doi =     {10.3233/APC200086},
 year =    2019
}

CITE-CITE-CITE-CITE-CITE-CITE-CITE-CITE-CITE-CITE-CITE-CITE-CITE

PPPM initialization ...
  using 12-bit tables for long-range coulomb
  G vector (1/distance) = 0.29474978
  grid = 32 32 32
  stencil order = 5
  estimated absolute RMS force accuracy = 0.00040018158
  estimated relative force accuracy = 1.2051349e-06
  using double precision KISS FFT
  3d grid and FFT values/proc = 59319 32768
Generated 28 of 28 mixed pair_coeff terms from sixthpower/sixthpower mixing rule
Per MPI rank memory allocation (min/avg/max) = 45.87 | 45.87 | 45.87 Mbytes
   Step          Time           Temp          Press         Enthalpy        TotEng         KinEng         PotEng         E_bond        E_angle        E_dihed        E_impro         E_vdwl         E_coul         E_long         E_tail         Volume           Lx             Ly             Lz          Density          Pxx            Pyy            Pzz      
         0   0              750            137.33608      42701.508      42476.122      19349.183      23126.939      7731.7064      7097.9168      5638.7099      688.06256      1149.3833      6424.1294     -5602.9697     -621.94023      112529.54      48.278694      48.278694      48.278694      1.0450858     -1639.7728      1542.7142      509.06683    
       500   500            759.07004     -126.66322      43858.955      44069.568      19583.18       24486.388      8280.7161      7650.2451      5755.9574      736.79401      1213.4302      6448.561      -5599.316      -613.84046      114014.4       48.490117      48.490117      48.490117      1.0314753     -99.225566     -579.04717      298.28308    
      1000   1000           753.18264      600.78117      45225.031      44214.606      19431.292      24783.314      8251.114       7680.4978      5892.9306      736.60684      1370.4292      6452.1392     -5600.4035     -606.88104      115321.86      48.674767      48.674767      48.674767      1.0197809      214.71477      1373.7325      213.89622    
      1500   1500           758.90404     -1654.4262      41684.088      44496.193      19578.898      24917.295      8335.5964      7626.5669      6001.6172      758.47743      1355.6524      6435.6821     -5596.2971     -600.4916       116548.92      48.846797      48.846797      48.846797      1.0090443     -2336.4025     -1101.9285     -1524.9477    
units real
atom_style full
boundary p p p

# --- Force Field Styles ---
pair_style lj/class2/coul/long 9.5 9.5
kspace_style pppm 1e-6
dielectric 1.000000
bond_style class2
angle_style class2
dihedral_style class2
improper_style class2
special_bonds lj/coul 0 0 1
pair_modify mix sixthpower tail yes
neighbor 2.0 bin
neigh_modify delay 0 every 1 check yes
neigh_modify one 4000

read_data /home/arz2/PolyJarvis/data/PSU1/lammps/npt_production/npt_production_out.data
Reading data file ...
  orthogonal box = (4.5891084 4.5891084 4.5891084) to (52.867803 52.867803 52.867803)
  1 by 1 by 1 MPI processor grid
  reading atoms ...
  8656 atoms
  reading velocities ...
  8656 velocities
  scanning bonds ...
  4 = max bonds/atom
  scanning angles ...
  16 = max angles/atom
  scanning dihedrals ...
  38 = max dihedrals/atom
  scanning impropers ...
  12 = max impropers/atom
  orthogonal box = (4.5891084 4.5891084 4.5891084) to (52.867803 52.867803 52.867803)
  1 by 1 by 1 MPI processor grid
  reading bonds ...
  9288 bonds
  reading angles ...
  15680 angles
  reading dihedrals ...
  23344 dihedrals
  reading impropers ...
  6400 impropers
Finding 1-2 1-3 1-4 neighbors ...
  special bond factors lj:    0        0        1       
  special bond factors coul:  0        0        1       
     4 = max # of 1-2 neighbors
    10 = max # of 1-3 neighbors
    14 = max # of special neighbors
  special bonds CPU = 0.008 seconds
  read_data CPU = 0.606 seconds
include /home/arz2/PolyJarvis/data/PSU1/lammps/cell/emc_build.params
# LAMMPS parameters created by EMC v9.4.4, build Jul 31 2025 20:33:44

# Variables

variable	seed		index	-1
variable	ntotal		index	8656
variable	fshape		index	1
variable	output		index	emc_build
variable	field		index	pcff/pcff
variable	location1	index	/home/arz2/emc/field/
variable	nav		index	0.6022141179
variable	temperature	index	300
variable	radius		index	5
variable	nrelax		index	100
variable	weight_nonbond	index	0.0001
variable	weight_bond	index	0.0001
variable	weight_focus	index	1
variable	cutoff		index	9.5
variable	charge_cutoff	index	9.5
variable	kappa		index	4
variable	density1	index	0.62
variable	lprevious	index	0
variable	lphase		index	57.4569112838
variable	f_poly		index	8
variable	chem_repeat	index	*Oc1ccc(C(C)(C)c2ccc(Oc3ccc(S(=O)(=O)c4ccc(*)cc4)cc3)cc2)cc1
variable	chem_cap	index	*[H]
variable	lg_repeat	index	54
variable	lg_cap		index	1
variable	norm_poly	index	100
variable	l_poly		index	1082
variable	mg_repeat	index	414.52744
variable	mg_cap		index	0
variable	m_poly		index	8290.5488
variable	n_poly		index	8
variable	mtotal		index	70822.20592
variable	nphase1		index	8656
variable	mphase1		index	70822.20592
variable	vphase1		index	189682.308986
variable	lbox		index	57.4569112838
variable	lphase1		index	57.4569112838
variable	lxx		index	57.4569112838
variable	lyy		index	57.4569112838
variable	lzz		index	57.4569112838
variable	lzy		index	0
variable	lzx		index	0
variable	lyx		index	0
variable	vtotal		index	189682.308986
variable	nl_poly		index	8

# Types

variable	type_c		index	1
variable	type_cp		index	2
variable	type_hc		index	3
variable	type_ho		index	4
variable	type_oe		index	5
variable	type_oc		index	6
variable	type_oh		index	7
variable	type_sf		index	8

variable	type_bond_c_c	index	1
variable	type_bond_c_cp	index	2
variable	type_bond_c_hc	index	3
variable	type_bond_cp_cp	index	4
variable	type_bond_cp_hc	index	5
variable	type_bond_cp_oc	index	6
variable	type_bond_cp_oh	index	7
variable	type_bond_cp_sf	index	8
variable	type_bond_ho_oh	index	9
variable	type_bond_oe_sf	index	10

variable	type_angle_c_c_c index	1
variable	type_angle_c_c_cp index	2
variable	type_angle_c_c_hc index	3
variable	type_angle_c_cp_cp index	4
variable	type_angle_cp_c_cp index	5
variable	type_angle_cp_cp_cp index	6
variable	type_angle_cp_cp_hc index	7
variable	type_angle_cp_cp_oc index	8
variable	type_angle_cp_cp_oh index	9
variable	type_angle_cp_cp_sf index	10
variable	type_angle_cp_oc_cp index	11
variable	type_angle_cp_oh_ho index	12
variable	type_angle_cp_sf_cp index	13
variable	type_angle_cp_sf_oe index	14
variable	type_angle_hc_c_hc index	15
variable	type_angle_oe_sf_oe index	16

# Clusters

variable	n0_poly		index	1
variable	n1_poly		index	8
variable	nl_poly		index	8

# Flags

variable	flag_charged	index	1

# Masses

mass		1    12.01115  # c
mass		2    12.01115  # cp
mass		3     1.00797  # hc
mass		4     1.00797  # ho
mass		5    15.99940  # o=
mass		6    15.99940  # oc
mass		7    15.99940  # oh
mass		8    32.06400  # sf

# Potentials

pair_modify	mix sixthpower tail yes
special_bonds	lj/coul 0 0 1

# Pair Coeffs

pair_coeff	 1  1    0.05400    4.01000  # c,c
pair_coeff	 2  2    0.06400    4.01000  # cp,cp
pair_coeff	 3  3    0.02000    2.99500  # hc,hc
pair_coeff	 4  4    0.01300    1.09800  # ho,ho
pair_coeff	 5  5    0.06000    3.53500  # o=,o=
pair_coeff	 6  6    0.24000    3.53500  # oc,oc
pair_coeff	 7  7    0.24000    3.53500  # oh,oh
pair_coeff	 8  8    0.25000    4.02700  # sf,sf

# Bond Coeffs

bond_coeff	 1    1.53000  299.67000 -501.77000  679.81000  # c,c
bond_coeff	 2    1.50100  321.90210 -521.82080  572.16280  # c,cp
bond_coeff	 3    1.10100  345.00000 -691.89000  844.60000  # c,hc
bond_coeff	 4    1.41700  470.83610 -627.61790 1327.63450  # cp,cp
bond_coeff	 5    1.09820  372.82510 -803.45260  894.31730  # cp,hc
bond_coeff	 6    1.37680  428.87980 -738.23510 1114.96550  # cp,oc
bond_coeff	 7    1.37680  428.87980 -738.23510 1114.96550  # cp,oh
bond_coeff	 8    1.72000  239.80240    0.00000    0.00000  # cp,sf
bond_coeff	 9    0.96500  532.50620 -1282.90500 2004.76580  # ho,oh
bond_coeff	10    1.43080  743.76000    0.00000    0.00000  # o=,sf

# Angle Coeffs

angle_coeff	 1  112.67000   39.51600   -7.44300   -9.55830  # c,c,c
angle_coeff	 2  108.40000   43.95940   -8.39240   -9.33790  # c,c,cp
angle_coeff	 3  110.77000   41.45300  -10.60400    5.12900  # c,c,hc
angle_coeff	 4  120.05000   44.71480  -22.73520    0.00000  # c,cp,cp
angle_coeff	 5  111.00000   44.32340   -9.44540    0.00000  # cp,c,cp
angle_coeff	 6  118.90000   61.02260  -34.99310    0.00000  # cp,cp,cp
angle_coeff	 7  117.94000   35.15580  -12.46820    0.00000  # cp,cp,hc
angle_coeff	 8  123.42000   73.67810  -21.67870    0.00000  # cp,cp,oc
angle_coeff	 9  123.42000   73.67810  -21.67870    0.00000  # cp,cp,oh
angle_coeff	10  120.00000   60.00000    0.00000    0.00000  # cp,cp,sf
angle_coeff	11  109.50000   60.00000    0.00000    0.00000  # cp,oc,cp
angle_coeff	12  108.19000   53.12500   -8.50160    0.00000  # cp,oh,ho
angle_coeff	13  102.00000   58.00000    0.00000    0.00000  # cp,sf,cp
angle_coeff	14  113.10000   42.30000    0.00000    0.00000  # cp,sf,o=
angle_coeff	15  107.66000   39.64100  -12.92100   -2.43180  # hc,c,hc
angle_coeff	16  119.32900  135.00000    0.00000    0.00000  # o=,sf,o=

# BondBond Coeffs

angle_coeff	 1 bb    0.00000    1.53000    1.53000  # c,c,c
angle_coeff	 2 bb    0.00000    1.53000    1.50100  # c,c,cp
angle_coeff	 3 bb    3.38720    1.53000    1.10100  # c,c,hc
angle_coeff	 4 bb   12.06760    1.50100    1.41700  # c,cp,cp
angle_coeff	 5 bb    0.00000    1.50100    1.50100  # cp,c,cp
angle_coeff	 6 bb   68.28560    1.41700    1.41700  # cp,cp,cp
angle_coeff	 7 bb    1.07950    1.41700    1.09820  # cp,cp,hc
angle_coeff	 8 bb   48.47540    1.41700    1.37680  # cp,cp,oc
angle_coeff	 9 bb   48.47540    1.41700    1.37680  # cp,cp,oh
angle_coeff	10 bb    0.00000    1.41700    1.72000  # cp,cp,sf
angle_coeff	11 bb    0.00000    1.37680    1.37680  # cp,oc,cp
angle_coeff	12 bb   20.65770    1.37680    0.96500  # cp,oh,ho
angle_coeff	13 bb    0.00000    1.72000    1.72000  # cp,sf,cp
angle_coeff	14 bb    0.00000    1.72000    1.43080  # cp,sf,o=
angle_coeff	15 bb    5.33160    1.10100    1.10100  # hc,c,hc
angle_coeff	16 bb   40.00000    1.43080    1.43080  # o=,sf,o=

# BondAngle Coeffs

angle_coeff	 1 ba    8.01600    8.01600    1.53000    1.53000  # c,c,c
angle_coeff	 2 ba    0.00000    0.00000    1.53000    1.50100  # c,c,cp
angle_coeff	 3 ba   20.75400   11.42100    1.53000    1.10100  # c,c,hc
angle_coeff	 4 ba   47.05790   31.07710    1.50100    1.41700  # c,cp,cp
angle_coeff	 5 ba    0.00000    0.00000    1.50100    1.50100  # cp,c,cp
angle_coeff	 6 ba   28.87080   28.87080    1.41700    1.41700  # cp,cp,cp
angle_coeff	 7 ba   20.00330   24.21830    1.41700    1.09820  # cp,cp,hc
angle_coeff	 8 ba   58.47900  107.68060    1.41700    1.37680  # cp,cp,oc
angle_coeff	 9 ba   58.47900  107.68060    1.41700    1.37680  # cp,cp,oh
angle_coeff	10 ba    0.00000    0.00000    1.41700    1.72000  # cp,cp,sf
angle_coeff	11 ba    0.00000    0.00000    1.37680    1.37680  # cp,oc,cp
angle_coeff	12 ba   53.86140   23.92240    1.37680    0.96500  # cp,oh,ho
angle_coeff	13 ba    0.00000    0.00000    1.72000    1.72000  # cp,sf,cp
angle_coeff	14 ba    0.00000    0.00000    1.72000    1.43080  # cp,sf,o=
angle_coeff	15 ba   18.10300   18.10300    1.10100    1.10100  # hc,c,hc
angle_coeff	16 ba    0.00000    0.00000    1.43080    1.43080  # o=,sf,o=

# Dihedral Coeffs

dihedral_coeff	 1    0.00000    0.00000    0.03160    0.00000   -0.16810    0.00000  # c,c,c,hc
dihedral_coeff	 2   -0.28020    0.00000   -0.06780    0.00000   -0.01220    0.00000  # c,c,cp,cp
dihedral_coeff	 3    0.00000    0.00000    4.40720    0.00000    0.00000    0.00000  # c,cp,cp,cp
dihedral_coeff	 4    0.00000    0.00000    1.55900    0.00000    0.00000    0.00000  # c,cp,cp,hc
dihedral_coeff	 5   -0.02280    0.00000    0.02800    0.00000   -0.18630    0.00000  # cp,c,c,hc
dihedral_coeff	 6   -0.28020    0.00000   -0.06780    0.00000   -0.01220    0.00000  # cp,c,cp,cp
dihedral_coeff	 7    8.36670    0.00000    1.19320    0.00000    0.00000    0.00000  # cp,cp,cp,cp
dihedral_coeff	 8    0.00000    0.00000    3.96610    0.00000    0.00000    0.00000  # cp,cp,cp,hc
dihedral_coeff	 9    0.00000    0.00000    4.84980    0.00000    0.00000    0.00000  # cp,cp,cp,oc
dihedral_coeff	10    0.00000    0.00000    4.84980    0.00000    0.00000    0.00000  # cp,cp,cp,oh
dihedral_coeff	11    0.00000    0.00000    3.00000    0.00000    0.00000    0.00000  # cp,cp,cp,sf
dihedral_coeff	12    0.00000    0.00000    1.80000    0.00000    0.00000    0.00000  # cp,cp,oc,cp
dihedral_coeff	13   -0.69000    0.00000    0.50970    0.00000    0.00950    0.00000  # cp,cp,oh,ho
dihedral_coeff	14    0.00000    0.00000    1.50000    0.00000    0.00000    0.00000  # cp,cp,sf,cp
dihedral_coeff	15    0.00000    0.00000    1.50000    0.00000    0.00000    0.00000  # cp,cp,sf,o=
dihedral_coeff	16    0.00000    0.00000    1.87690    0.00000    0.00000    0.00000  # hc,cp,cp,hc
dihedral_coeff	17    0.00000    0.00000    1.72340    0.00000    0.00000    0.00000  # hc,cp,cp,oc
dihedral_coeff	18    0.00000    0.00000    1.72340    0.00000    0.00000    0.00000  # hc,cp,cp,oh
dihedral_coeff	19    0.00000    0.00000    3.00000    0.00000    0.00000    0.00000  # hc,cp,cp,sf

# MiddleBondTorsion Coeffs

dihedral_coeff	 1 mbt  -14.87900   -3.65810   -0.31380    1.53000  # c,c,c,hc
dihedral_coeff	 2 mbt    0.00000    0.00000    0.00000    1.50100  # c,c,cp,cp
dihedral_coeff	 3 mbt    0.00000    9.17920    0.00000    1.41700  # c,cp,cp,cp
dihedral_coeff	 4 mbt    0.00000    3.94210    0.00000    1.41700  # c,cp,cp,hc
dihedral_coeff	 5 mbt    0.00000    0.00000    0.00000    1.53000  # cp,c,c,hc
dihedral_coeff	 6 mbt    0.00000    0.00000    0.00000    1.50100  # cp,c,cp,cp
dihedral_coeff	 7 mbt   27.59890   -2.31200    0.00000    1.41700  # cp,cp,cp,cp
dihedral_coeff	 8 mbt    0.00000   -1.15210    0.00000    1.41700  # cp,cp,cp,hc
dihedral_coeff	 9 mbt    0.00000    4.82550    0.00000    1.41700  # cp,cp,cp,oc
dihedral_coeff	10 mbt    0.00000    4.82550    0.00000    1.41700  # cp,cp,cp,oh
dihedral_coeff	11 mbt    0.00000    0.00000    0.00000    1.41700  # cp,cp,cp,sf
dihedral_coeff	12 mbt    0.00000    0.00000    0.00000    1.37680  # cp,cp,oc,cp
dihedral_coeff	13 mbt    1.15800    3.26970    3.51320    1.37680  # cp,cp,oh,ho
dihedral_coeff	14 mbt    0.00000    0.00000    0.00000    1.72000  # cp,cp,sf,cp
dihedral_coeff	15 mbt    0.00000    0.00000    0.00000    1.72000  # cp,cp,sf,o=
dihedral_coeff	16 mbt    0.00000    4.82280    0.00000    1.41700  # hc,cp,cp,hc
dihedral_coeff	17 mbt    0.00000    5.54320    0.00000    1.41700  # hc,cp,cp,oc
dihedral_coeff	18 mbt    0.00000    5.54320    0.00000    1.41700  # hc,cp,cp,oh
dihedral_coeff	19 mbt    0.00000    0.00000    0.00000    1.41700  # hc,cp,cp,sf

# EndBondTorsion Coeffs

dihedral_coeff	 1 ebt    0.24860    0.24220   -0.09250    0.08140    0.05910    0.22190    1.53000    1.10100  # c,c,c,hc
dihedral_coeff	 2 ebt    0.00000    0.00000    0.00000    0.00000    0.00000    0.00000    1.53000    1.41700  # c,c,cp,cp
dihedral_coeff	 3 ebt    0.00000    0.24210    0.00000    0.00000   -0.69180    0.00000    1.50100    1.41700  # c,cp,cp,cp
dihedral_coeff	 4 ebt    0.00000   -1.79700    0.00000    0.00000   -0.48790    0.00000    1.50100    1.09820  # c,cp,cp,hc
dihedral_coeff	 5 ebt    0.00000    0.00000    0.00000    0.00000    0.00000    0.00000    1.50100    1.10100  # cp,c,c,hc
dihedral_coeff	 6 ebt    0.00000    0.00000    0.00000    0.00000    0.00000    0.00000    1.50100    1.41700  # cp,c,cp,cp
dihedral_coeff	 7 ebt   -0.11850    6.32040    0.00000   -0.11850    6.32040    0.00000    1.41700    1.41700  # cp,cp,cp,cp
dihedral_coeff	 8 ebt    0.00000   -6.89580    0.00000    0.00000   -0.46690    0.00000    1.41700    1.09820  # cp,cp,cp,hc
dihedral_coeff	 9 ebt    0.00000    0.26550    0.00000    0.00000    4.89050    0.00000    1.41700    1.37680  # cp,cp,cp,oc
dihedral_coeff	10 ebt    0.00000    0.26550    0.00000    0.00000    4.89050    0.00000    1.41700    1.37680  # cp,cp,cp,oh
dihedral_coeff	11 ebt    0.00000    0.00000    0.00000    0.00000    0.00000    0.00000    1.41700    1.72000  # cp,cp,cp,sf
dihedral_coeff	12 ebt    0.00000    0.00000    0.00000    0.00000    0.00000    0.00000    1.41700    1.37680  # cp,cp,oc,cp
dihedral_coeff	13 ebt    0.90000   -1.34560    1.19000    3.41320    0.58730   -0.13230    1.41700    0.96500  # cp,cp,oh,ho
dihedral_coeff	14 ebt    0.00000    0.00000    0.00000    0.00000    0.00000    0.00000    1.41700    1.72000  # cp,cp,sf,cp
dihedral_coeff	15 ebt    0.00000    0.00000    0.00000    0.00000    0.00000    0.00000    1.41700    1.43080  # cp,cp,sf,o=
dihedral_coeff	16 ebt    0.00000   -0.68900    0.00000    0.00000   -0.68900    0.00000    1.09820    1.09820  # hc,cp,cp,hc
dihedral_coeff	17 ebt    0.00000   -1.58670    0.00000    0.00000    4.26410    0.00000    1.09820    1.37680  # hc,cp,cp,oc
dihedral_coeff	18 ebt    0.00000   -1.58670    0.00000    0.00000    4.26410    0.00000    1.09820    1.37680  # hc,cp,cp,oh
dihedral_coeff	19 ebt    0.00000    0.00000    0.00000    0.00000    0.00000    0.00000    1.09820    1.72000  # hc,cp,cp,sf

# AngleTorsion Coeffs

dihedral_coeff	 1 at   -0.24540    0.00000   -0.11360    0.31130    0.45160   -0.19880  112.67000  110.77000  # c,c,c,hc
dihedral_coeff	 2 at    0.00000    0.00000    0.00000    0.00000    0.00000    0.00000  108.40000  120.05000  # c,c,cp,cp
dihedral_coeff	 3 at    0.00000   -4.46830    0.00000    0.00000    3.89870    0.00000  120.05000  118.90000  # c,cp,cp,cp
dihedral_coeff	 4 at    0.00000   -0.12420    0.00000    0.00000    3.46010    0.00000  120.05000  117.94000  # c,cp,cp,hc
dihedral_coeff	 5 at    0.00000    0.00000    0.00000    0.00000    0.00000    0.00000  108.40000  110.77000  # cp,c,c,hc
dihedral_coeff	 6 at    0.00000    0.00000    0.00000    0.00000    0.00000    0.00000  111.00000  120.05000  # cp,c,cp,cp
dihedral_coeff	 7 at    1.97670    1.02390    0.00000    1.97670    1.02390    0.00000  118.90000  118.90000  # cp,cp,cp,cp
dihedral_coeff	 8 at    0.00000    2.50140    0.00000    0.00000    2.71470    0.00000  118.90000  117.94000  # cp,cp,cp,hc
dihedral_coeff	 9 at    0.00000   10.01550    0.00000    0.00000    1.74040    0.00000  118.90000  123.42000  # cp,cp,cp,oc
dihedral_coeff	10 at    0.00000   10.01550    0.00000    0.00000    1.74040    0.00000  118.90000  123.42000  # cp,cp,cp,oh
dihedral_coeff	11 at    0.00000    0.00000    0.00000    0.00000    0.00000    0.00000  118.90000  120.00000  # cp,cp,cp,sf
dihedral_coeff	12 at    0.00000    0.00000    0.00000    0.00000    0.00000    0.00000  123.42000  109.50000  # cp,cp,oc,cp
dihedral_coeff	13 at   -5.13600   -1.01220    0.00000    4.68520    0.02300   -0.59800  123.42000  108.19000  # cp,cp,oh,ho
dihedral_coeff	14 at    0.00000    0.00000    0.00000    0.00000    0.00000    0.00000  120.00000  102.00000  # cp,cp,sf,cp
dihedral_coeff	15 at    0.00000    0.00000    0.00000    0.00000    0.00000    0.00000  120.00000  113.10000  # cp,cp,sf,o=
dihedral_coeff	16 at    0.00000    2.45010    0.00000    0.00000    2.45010    0.00000  117.94000  117.94000  # hc,cp,cp,hc
dihedral_coeff	17 at    0.00000    1.87290    0.00000    0.00000    2.57060    0.00000  117.94000  123.42000  # hc,cp,cp,oc
dihedral_coeff	18 at    0.00000    1.87290    0.00000    0.00000    2.57060    0.00000  117.94000  123.42000  # hc,cp,cp,oh
dihedral_coeff	19 at    0.00000    0.00000    0.00000    0.00000    0.00000    0.00000  117.94000  120.00000  # hc,cp,cp,sf

# AngleAngleTorsion Coeffs

dihedral_coeff	 1 aat  -16.16400  112.67000  110.77000  # c,c,c,hc
dihedral_coeff	 2 aat    0.00000  108.40000  120.05000  # c,c,cp,cp
dihedral_coeff	 3 aat  -14.40970  120.05000  118.90000  # c,cp,cp,cp
dihedral_coeff	 4 aat    4.44440  120.05000  117.94000  # c,cp,cp,hc
dihedral_coeff	 5 aat    0.00000  108.40000  110.77000  # cp,c,c,hc
dihedral_coeff	 6 aat    0.00000  111.00000  120.05000  # cp,c,cp,cp
dihedral_coeff	 7 aat    0.00000  118.90000  118.90000  # cp,cp,cp,cp
dihedral_coeff	 8 aat   -4.81410  118.90000  117.94000  # cp,cp,cp,hc
dihedral_coeff	 9 aat  -21.02470  118.90000  123.42000  # cp,cp,cp,oc
dihedral_coeff	10 aat  -21.02470  118.90000  123.42000  # cp,cp,cp,oh
dihedral_coeff	11 aat    0.00000  118.90000  120.00000  # cp,cp,cp,sf
dihedral_coeff	12 aat    0.00000  123.42000  109.50000  # cp,cp,oc,cp
dihedral_coeff	13 aat   -4.60720  123.42000  108.19000  # cp,cp,oh,ho
dihedral_coeff	14 aat    0.00000  120.00000  102.00000  # cp,cp,sf,cp
dihedral_coeff	15 aat    0.00000  120.00000  113.10000  # cp,cp,sf,o=
dihedral_coeff	16 aat    0.35980  117.94000  117.94000  # hc,cp,cp,hc
dihedral_coeff	17 aat    4.22960  117.94000  123.42000  # hc,cp,cp,oc
dihedral_coeff	18 aat    4.22960  117.94000  123.42000  # hc,cp,cp,oh
dihedral_coeff	19 aat    0.00000  117.94000  120.00000  # hc,cp,cp,sf

# BondBond13 Coeffs

dihedral_coeff	 1 bb13    0.00000    1.53000    1.10100  # c,c,c,hc
dihedral_coeff	 2 bb13    0.00000    1.53000    1.41700  # c,c,cp,cp
dihedral_coeff	 3 bb13    2.50850    1.50100    1.41700  # c,cp,cp,cp
dihedral_coeff	 4 bb13    0.87430    1.50100    1.09820  # c,cp,cp,hc
dihedral_coeff	 5 bb13    0.00000    1.50100    1.10100  # cp,c,c,hc
dihedral_coeff	 6 bb13    0.00000    1.50100    1.41700  # cp,c,cp,cp
dihedral_coeff	 7 bb13   53.00000    1.41700    1.41700  # cp,cp,cp,cp
dihedral_coeff	 8 bb13   -6.27410    1.41700    1.09820  # cp,cp,cp,hc
dihedral_coeff	 9 bb13   -2.24360    1.41700    1.37680  # cp,cp,cp,oc
dihedral_coeff	10 bb13   -2.24360    1.41700    1.37680  # cp,cp,cp,oh
dihedral_coeff	11 bb13    0.00000    1.41700    1.72000  # cp,cp,cp,sf
dihedral_coeff	12 bb13    0.00000    1.41700    1.37680  # cp,cp,oc,cp
dihedral_coeff	13 bb13    1.15900    1.41700    0.96500  # cp,cp,oh,ho
dihedral_coeff	14 bb13    0.00000    1.41700    1.72000  # cp,cp,sf,cp
dihedral_coeff	15 bb13    0.00000    1.41700    1.43080  # cp,cp,sf,o=
dihedral_coeff	16 bb13   -1.70770    1.09820    1.09820  # hc,cp,cp,hc
dihedral_coeff	17 bb13    2.05170    1.09820    1.37680  # hc,cp,cp,oc
dihedral_coeff	18 bb13    2.05170    1.09820    1.37680  # hc,cp,cp,oh
dihedral_coeff	19 bb13    0.00000    1.09820    1.72000  # hc,cp,cp,sf

# Improper Coeffs

improper_coeff	 1    0.00000    0.00000  # c,c,c,cp
improper_coeff	 2    0.00000    0.00000  # c,c,cp,cp
improper_coeff	 3    0.00000    0.00000  # c,c,hc,hc
improper_coeff	 4    0.00000    0.00000  # c,hc,hc,hc
improper_coeff	 5    7.81530    0.00000  # cp,c,cp,cp
improper_coeff	 6    4.89120    0.00000  # cp,cp,cp,hc
improper_coeff	 7   13.04210    0.00000  # cp,cp,cp,oc
improper_coeff	 8   13.04210    0.00000  # cp,cp,cp,oh
improper_coeff	 9    0.00000    0.00000  # cp,cp,cp,sf
improper_coeff	10    0.00000    0.00000  # sf,cp,cp,o=
improper_coeff	11    0.00000    0.00000  # sf,cp,o=,o=

# AngleAngle Coeffs

improper_coeff	 1 aa    0.00000    0.00000    0.00000  112.67000  108.40000  108.40000  # c,c,c,cp
improper_coeff	 2 aa    0.00000    0.00000    0.00000  108.40000  108.40000  111.00000  # c,c,cp,cp
improper_coeff	 3 aa    0.27380   -0.48250    0.27380  110.77000  110.77000  107.66000  # c,c,hc,hc
improper_coeff	 4 aa   -0.31570   -0.31570   -0.31570  107.66000  107.66000  107.66000  # c,hc,hc,hc
improper_coeff	 5 aa    0.00000    0.00000    0.00000  120.05000  120.05000  118.90000  # cp,c,cp,cp
improper_coeff	 6 aa    0.00000    0.00000    0.00000  118.90000  117.94000  117.94000  # cp,cp,cp,hc
improper_coeff	 7 aa    0.00000    0.00000    0.00000  118.90000  123.42000  123.42000  # cp,cp,cp,oc
improper_coeff	 8 aa    0.00000    0.00000    0.00000  118.90000  123.42000  123.42000  # cp,cp,cp,oh
improper_coeff	 9 aa    0.00000    0.00000    0.00000  118.90000  120.00000  120.00000  # cp,cp,cp,sf
improper_coeff	10 aa    0.00000    0.00000    0.00000  102.00000  113.10000  113.10000  # sf,cp,cp,o=
improper_coeff	11 aa    0.00000    0.00000    0.00000  113.10000  113.10000  119.32900  # sf,cp,o=,o=


# --- Thermo Output ---
thermo_style custom step time temp press enthalpy etotal ke pe ebond eangle edihed eimp evdwl ecoul elong etail vol lx ly lz density pxx pyy pzz
thermo_modify flush yes
thermo 500

# --- Velocity initialization at T_START (once only — Rule A) ---
velocity all create 750.0 385703 mom yes rot yes dist gaussian

# --- Temperature staircase (inherits momenta across steps — Rule A) ---
variable temps index 750 730 710 690 670 650 630 610 590 570 550 530 510 490 470 450 430 410 390 370 350 330 310 290 270 250
label TEMP_LOOP
  timestep 1
  fix npt_tg all npt temp ${temps} ${temps} 100 iso 1.0 1.0 1000.0
  fix npt_tg all npt temp 750 ${temps} 100 iso 1.0 1.0 1000.0
  fix npt_tg all npt temp 750 750 100 iso 1.0 1.0 1000.0
  run 500000
PPPM Kokkos initialization ...
  using 12-bit tables for long-range coulomb
  G vector (1/distance) = 0.29474978
  grid = 32 32 32
  stencil order = 5
  estimated absolute RMS force accuracy = 0.00040018158
  estimated relative force accuracy = 1.2051349e-06
  using double precision cuFFT
  3d grid and FFT values/proc = 59319 32768
Generated 28 of 28 mixed pair_coeff terms from sixthpower/sixthpower mixing rule
Neighbor list info ...
  update: every = 1 steps, delay = 0 steps, check = yes
  max neighbors/atom: 4000, page size: 100000
  master list distance cutoff = 11.5
  ghost atom cutoff = 11.5
  binsize = 11.5, bins = 5 5 5
  1 neighbor lists, perpetual/occasional/extra = 1 0 0
  (1) pair lj/class2/coul/long/kk, perpetual
      attributes: full, newton off, kokkos_device
      pair build: full/bin/kk/device
      stencil: full/bin/3d
      bin: kk/device
Per MPI rank memory allocation (min/avg/max) = 52.22 | 52.22 | 52.22 Mbytes
   Step          Time           Temp          Press         Enthalpy        TotEng         KinEng         PotEng         E_bond        E_angle        E_dihed        E_impro         E_vdwl         E_coul         E_long         E_tail         Volume           Lx             Ly             Lz          Density          Pxx            Pyy            Pzz      
         0   0              750            137.33734      42701.511      42476.123      19349.183      23126.94       7731.7064      7097.9168      5638.7099      688.06256      1149.3835      6424.1301     -5602.9697     -621.94023      112529.54      48.278694      48.278694      48.278694      1.0450858     -1639.7717      1542.7158      509.06792    
       500   500            759.07077     -126.23663      43859.682      44069.586      19583.199      24486.387      8280.7536      7650.2403      5755.9292      736.79791      1213.4235      6448.5584     -5599.3159     -613.84047      114014.39      48.490117      48.490117      48.490117      1.0314753     -98.720485     -578.84794      298.85853    
      2000   2000           746.08998      664.84727      45116.15       43990.255      19248.309      24741.946      8305.6516      7597.7694      5850.3612      745.25704      1407.0092      6437.3801     -5601.483      -602.71899      116118.21      48.78655       48.78655       48.78655       1.0127871      264.56154      896.26024      833.72004    
      1000   1000           753.23169      587.61485      45202.111      44213.841      19432.557      24781.284      8247.6444      7682.469       5892.1244      736.45382      1371.0987      6451.9529     -5600.4597     -606.88719      115320.69      48.674602      48.674602      48.674602      1.0197912      188.66233      1348.5538      225.62843    
      1500   1500           758.8846      -1623.6664      41740.871      44500.719      19578.396      24922.323      8313.734       7623.081       6016.9612      760.33659      1368.5584      6436.1767     -5596.5247     -600.48571      116550.07      48.846956      48.846956      48.846956      1.0090344     -2274.6037     -1055.0796     -1541.3158    
      2000   2000           752.11884      885.93962      45467.482      43967.305      19403.847      24563.458      8185.8747      7571.3324      5824.9996      754.4823       1389.3869      6439.9801     -5602.5979     -602.77157      116108.08      48.785132      48.785132      48.785132      1.0128755      1265.475       259.49099      1132.8529    
      2500   2500           744.2558       1826.6504      46903.49       43824.258      19200.989      24623.269      8292.8758      7519.8361      5857.9781      761.9569       1361.0949      6432.6812     -5603.1544     -605.48599      115587.56      48.71212       48.71212       48.71212       1.0174367      1266.4728      2827.9814      1385.4969    
      3000   3000           747.40977      181.01052      44217.253      43912.668      19282.358      24630.31       8184.2969      7613.8347      5909.5059      749.91108      1334.24        6441.126      -5602.6044     -606.57884      115379.31      48.682849      48.682849      48.682849      1.0192731     -883.41997      1084.7456      341.70592    
      3500   3500           760.53337     -443.84778      43574.648      44322.706      19620.933      24701.773      8257.1627      7520.6052      6033.4219      779.07436      1271.4423      6441.5489     -5601.4822     -605.60553      115564.75      48.708915      48.708915      48.708915      1.0176376     -3142.6694      1843.2216     -32.095562    
      4000   4000           759.39533     -1365.0822      42043.287      44357.707      19591.572      24766.135      8341.249       7471.7403      6034.2339      750.9023       1338.7631      6431.5607     -5602.3146     -602.01553      116253.89      48.805545      48.805545      48.805545      1.0116051     -317.52642     -221.74584     -3555.9743    
      4500   4500           750.3932       215.83059      44372.972      44007.227      19359.327      24647.9        8332.7063      7527.121       5874.2387      760.50737      1311.1408      6435.4787     -5593.293      -602.31773      116195.57      48.797382      48.797382      48.797382      1.0121129      1038.8258      904.52879     -1295.8628    
      2500   2500           744.24064      1456.6904      46276.448      43826.912      19200.598      24626.314      8436.6915      7499.6109      5819.6999      748.24015      1298.5702      6428.7382     -5605.2368     -606.98027      115303.01      48.672114      48.672114      48.672114      1.0199476      1242.4416      2179.2079      948.42171    
      5000   5000           744.20201     -1807.1337      40872.059      43894.911      19199.601      24695.31       8312.5707      7471.5182      6117.3895      756.14116      1196.7341      6440.7545     -5599.7981     -610.18902      114696.67      48.586648      48.586648      48.586648      1.0253395     -1737.3887     -1109.1687     -2574.8437    
      5500   5500           754.82711      2193.9456      47519.824      43872.139      19473.717      24398.422      8390.4644      7348.9882      5721.1985      764.85442      1324.5266      6448.8754     -5600.4858     -613.90276      114002.83      48.488477      48.488477      48.488477      1.0315799      28.589904      2536.5058      4016.7411    
      6000   6000           750.83305     -845.13503      42672.31       44090.376      19370.675      24719.701      8391.4507      7605.6731      5895.3804      775.83097      1190.4249      6455.3574     -5594.4164     -608.30421      115052.06      48.636778      48.636778      48.636778      1.0221723      1040.3524     -947.36551     -2628.392     
      6500   6500           751.53473      811.79588      45412.299      44052.058      19388.778      24663.281      8291.1316      7441.4064      6020.8602      753.92833      1307.3132      6449.6413     -5601.0004     -609.14714      114892.85      48.614333      48.614333      48.614333      1.0235888     -1052.7698      1966.1514      1522.0061    
      7000   7000           744.85938     -2854.1698      39127.366      43902.415      19216.561      24685.854      8161.8127      7588.0274      6180.2177      767.89102      1144.3332      6443.4966     -5599.9247     -610.08888      114715.5       48.589306      48.589306      48.589306      1.0251712     -1724.2665     -3966.2222     -2872.0205    
      7500   7500           743.94344     -21.900644      44039.424      44075.988      19192.931      24883.057      8591.3919      7548.3592      5872.9201      749.55851      1259.8872      6457.9171     -5596.9769     -611.35544      114477.84      48.555728      48.555728      48.555728      1.0272995      1241.3382      1737.1258     -3044.166     
      8000   8000           755.62882     -261.61048      43548.393      43985.085      19494.401      24490.684      8268.9802      7529.8002      5820.4405      755.52865      1287.2306      6434.8564     -5606.1525     -611.46491      114457.34      48.552831      48.552831      48.552831      1.0274835      574.38108     -258.89976     -1100.3128    
      3000   3000           753.92572     -900.67026      42312.157      43819.987      19450.463      24369.524      7949.6301      7532.4851      6052.8466      761.20561      1244.6396      6431.1621     -5602.4447     -609.68359      114791.76      48.600071      48.600071      48.600071      1.0244902     -2241.0749     -134.3749      -326.56103    
      8500   8500           744.36158      497.2342       44929.942      44089.847      19203.718      24886.129      8427.2399      7586.2343      5969.3298      752.00998      1296.0189      6456.167      -5600.871      -604.12108      115848.71      48.748778      48.748778      48.748778      1.0151432      362.49124      2592.5108     -1463.2994    
      9000   9000           747.57653     -1835.9846      40765.189      43868.807      19286.66       24582.146      8424.9212      7312.027       5972.3269      789.97197      1263.2677      6422.851      -5603.2195     -603.79828      115910.65      48.757464      48.757464      48.757464      1.0146007     -3749.5065     -1776.3257      17.878447    
      9500   9500           746.07423     -2207.084       40213.951      43925.972      19247.903      24678.07       8347.3561      7528.1864      6056.4825      739.76919      1158.6441      6447.1373     -5599.5059     -606.8753       115322.95      48.67492       48.67492       48.67492       1.0197713     -2198.2462     -1026.7211     -3396.2846    
     10000   10000          754.18132     -180.24863      43932.031      44236.501      19457.057      24779.444      8368.3065      7592.8608      5871.2569      766.435        1353.3379      6432.9127     -5605.6658     -604.25396      115823.24      48.745205      48.745205      48.745205      1.0153665      394.16473     -1275.9539      341.04325    
     10500   10500          761.98444      1171.42        46191.107      44211.837      19658.369      24553.469      8338.9821      7518.4042      5770.721       751.62211      1366.4238      6413.3934     -5606.078      -604.08598      115855.44      48.749723      48.749723      48.749723      1.0150842      1925.4989      2518.4114     -929.65036    
     11000   11000          755.21788     -408.59619      43451.821      44135.001      19483.799      24651.202      8330.8446      7412.6119      6034.2871      761.42251      1262.5146      6450.207      -5600.6859     -610.44995      114647.65      48.579724      48.579724      48.579724      1.025778      -262.25765     -453.3213      -510.20962    
     11500   11500          748.88357      92.732165      44016.55       43861.963      19320.381      24541.582      8401.972       7397.2088      5865.6053      757.63842      1301.2449      6423.1767     -5605.2639     -612.27649      114305.63      48.531369      48.531369      48.531369      1.0288472      478.7345      -1389.5047      1188.9667    
      3500   3500           750.44901     -1117.7998      42105.863      43978.175      19360.767      24617.407      8215.9787      7618.1402      6004.3394      741.63942      1211.7584      6432.7195     -5607.1683     -609.36428      114851.91      48.608558      48.608558      48.608558      1.0239536     -1621.4972     -717.16575     -1014.7365    
     12000   12000          754.46072     -162.10769      43723.44       43996.928      19464.265      24532.663      8220.9002      7489.0463      6023.839       740.41672      1227.7088      6431.6651     -5600.9134     -605.00215      115680         48.725103      48.725103      48.725103      1.0166237      64.875228     -1154.7306      603.53231    
     12500   12500          753.76169      97.724088      44448.965      44286.048      19446.231      24839.817      8522.5169      7284.8473      6131.0063      754.0869       1313.9306      6436.3038     -5602.875      -612.24401      114311.69      48.532227      48.532227      48.532227      1.0287926     -845.271        991.98784      146.45542    
     13000   13000          747.78038     -930.03352      42530.172      44104.007      19291.919      24812.088      8135.695       7473.9486      6201.28        770.45372      1388.5639      6441.374      -5599.2277     -603.15731      116033.82      48.774729      48.774729      48.774729      1.0135237     -1468.7911     -2319.3899      998.08039    
     13500   13500          738.59841     -371.91957      42962.58       43600.744      19055.035      24545.709      8163.337       7443.2108      5902.2123      760.44082      1424.3133      6450.0303     -5597.8353     -594.85043      117654.2       49.000721      49.000721      49.000721      0.99956511    -464.03023     -995.34614      343.61768    
     14000   14000          758.19327     -1786.8853      41047.999      44106.743      19560.561      24546.182      8144.8166      7410.7079      6023.9083      761.24744      1360.0493      6448.3527     -5602.8998     -596.27219      117373.66      48.961744      48.961744      48.961744      1.0019542     -1567.3302     -2080.085      -1713.2407    
     14500   14500          756.95475     -1028.4797      42408.334      44148.879      19528.608      24620.271      8122.9123      7454.4266      6073.3225      785.18561      1341.4103      6443.5658     -5600.5521     -603.11672      116041.63      48.775824      48.775824      48.775824      1.0134555     -2034.7584     -225.74195     -824.9386     
     15000   15000          743.19106      1239.7386      45713.957      43623.188      19173.52       24449.668      7995.7425      7443.491       5990.6191      785.3571       1396.5639      6439.4105     -5601.5159     -605.22266      115637.85      48.719184      48.719184      48.719184      1.0169942      1823.7234      120.74236      1774.7501    
      4000   4000           748.93787      360.4046       44540.763      43933.721      19321.781      24611.94       8218.5268      7564.451       5916.1684      742.79435      1321.3181      6449.0298     -5600.3489     -605.98622      115492.15      48.698713      48.698713      48.698713      1.0182773      184.35975     -181.01709      1077.8712    
     15500   15500          749.86111      736.87613      44799.533      43569.363      19345.6        24223.763      8061.979       7423.7285      5864.6106      768.01266      1257.069       6446.0699     -5597.7063     -611.39295      114470.82      48.554736      48.554736      48.554736      1.0273625      387.97846      216.69417      1605.9558    
     16000   16000          748.85124     -207.5094       43667.611      44015.609      19319.547      24696.063      8241.2606      7666.6705      5946.9117      755.67896      1237.4153      6453.0025     -5604.8769     -608.6279       114990.87      48.628154      48.628154      48.628154      1.0227163      247.21823     -1857.5661      987.81962    
     16500   16500          766.43293      2574.7061      48862.517      44532.793      19773.135      24759.658      8316.4239      7653.5256      5851.2596      770.94877      1329.9006      6438.0498     -5600.4502     -606.95781      115307.27      48.672714      48.672714      48.672714      1.0199099      1487.0617      4497.325       1739.7315    
     17000   17000          756.41511      176.69821      44470.687      44175.39       19514.686      24660.704      8222.8788      7586.167       6073.371       759.30768      1185.9761      6434.0127     -5601.0093     -610.75147      114591.05      48.571729      48.571729      48.571729      1.0262846     -1766.1168      1120.5577      1175.6538    
     17500   17500          740.16013     -1339.223       41697.766      43941.586      19095.325      24846.261      8348.1661      7534.5233      6028.8872      773.73942      1315.05        6448.0502     -5602.1556     -609.19439      114883.94      48.613076      48.613076      48.613076      1.0236682     -1435.3969     -1438.3973     -1143.8747    
     18000   18000          747.93728      809.66108      45366.975      44005.518      19295.967      24709.55       8298.8329      7557.2933      5932.6567      749.65054      1327.769       6443.0332     -5599.6852     -607.00239      115298.8       48.671523      48.671523      48.671523      1.0199848     -100.07155      1035.9579      1493.0969    
     18500   18500          747.37255      15.009129      43698.257      43672.889      19281.398      24391.491      8339.6615      7436.545       5747.7077      745.24749      1280.6959      6442.4051     -5600.7714     -603.90305      115890.54      48.754645      48.754645      48.754645      1.0147768      1663.4036     -836.97433     -781.40192    
      4500   4500           737.57937     -871.73185      42178.378      43642.2        19028.744      24613.456      8253.0318      7423.922       6097.2934      752.87267      1230.6439      6454.2808     -5598.5888     -607.83503      115140.86      48.649289      48.649289      48.649289      1.0213839     -1668.929      -1307.8291      361.56251    
     19000   19000          742.72236      95.193192      43861.024      43701.729      19161.428      24540.301      8095.5413      7506.6204      6014.9085      747.29603      1320.8045      6448.6672     -5593.5374     -609.9485       114741.9       48.593034      48.593034      48.593034      1.0249353      82.947443     -1340.4319      1543.064     
     19500   19500          738.82912     -1171.0005      41752.327      43715.751      19060.987      24654.764      8272.4696      7479.0258      5989.6717      757.59213      1282.7582      6467.5406     -5594.2938     -608.74333      114969.06      48.62508       48.62508       48.62508       1.0229102     -1890.1169     -465.49054     -1157.394     
     20000   20000          757.3408       1042.363       45781.886      44030.352      19538.568      24491.784      8178.4506      7661.1801      5805.4257      743.75891      1255.9524      6445.8554     -5598.8394     -607.42338      115218.89      48.660276      48.660276      48.660276      1.0206922      2316.7858      770.44615      39.856954    
     20500   20500          747.9834       81.314656      43915.702      43779.469      19297.157      24482.312      8097.1624      7347.0568      6006.3688      750.07337      1448.9479      6437.1174     -5604.415      -609.22292      114878.56      48.612317      48.612317      48.612317      1.0237161      1354.8951     -637.36141     -473.58975    
     21000   21000          740.73516      775.8247       44987.142      43680.63       19110.161      24570.469      8293.7496      7392.8417      5929.0229      738.93333      1392.6812      6428.6853     -5605.4448     -606.09553      115471.32      48.695785      48.695785      48.695785      1.018461       1399.3251      1994.1421     -1065.9931    
     21500   21500          760.14896     -322.45255      43777.067      44320.534      19611.015      24709.518      8131.5909      7678.1892      5998.3489      760.678        1293.9575      6450.7256     -5603.972      -605.59777      115566.23      48.709123      48.709123      48.709123      1.0176245      1425.1002     -1486.4238     -906.03399    
     22000   22000          764.07748     -490.09595      43399.343      44221.015      19712.367      24508.648      8124.8489      7695.037       5881.7289      713.08277      1239.4106      6454.1795     -5599.6392     -608.79862      114958.62      48.623608      48.623608      48.623608      1.0230031     -1453.7736     -493.64762      477.13335    
      5000   5000           748.44886     -1183.6318      41554.433      43542.319      19309.165      24233.154      8178.4513      7372.5968      5825.1423      761.31601      1255.154       6441.4738     -5600.9805     -607.73764      115159.31      48.651887      48.651887      48.651887      1.0212203     -2523.1117      917.47835     -1945.2621    
     22500   22500          749.05692      438.69336      44837.421      44104.313      19324.853      24779.46       8345.8493      7600.9571      5939.8285      748.32452      1308.2561      6437.6124     -5601.3678     -610.77936      114585.81      48.570989      48.570989      48.570989      1.0263315      1442.3173     -13.164525     -113.07269    
     23000   23000          744.20535     -2100.3389      40282.849      43820.727      19199.688      24621.039      8163.3372      7586.1972      6044.6374      750.44791      1236.457       6436.9185     -5596.9558     -605.95107      115498.85      48.699655      48.699655      48.699655      1.0182182     -2181.5569     -2665.5166     -1453.9432    
     23500   23500          752.35883     -836.97075      42584.212      43998.817      19410.039      24588.778      8230.7291      7452.7838      5999.638       746.9021       1316.6168      6437.455      -5595.3463     -603.90169      115890.8       48.754681      48.754681      48.754681      1.0147745     -2841.2195     -119.19923      449.50644    
     24000   24000          750.47343      936.0408       45366.855      43799.532      19361.397      24438.135      8353.2963      7328.5842      5843.2098      754.39404      1336.3099      6429.8191     -5607.4787     -609.5752       114812.17      48.602951      48.602951      48.602951      1.0243081      1376.577      -361.08809      1792.6335    
     24500   24500          753.25407     -398.55878      43314.762      43977.067      19433.135      24543.932      8396.5069      7492.8329      5885.1256      741.76658      1201.6896      6432.3079     -5606.2973     -614.22244      113943.49      48.480063      48.480063      48.480063      1.0321171     -2265.6754      1182.3143     -112.31524    
     25000   25000          761.43046      2256.3633      47979.082      44182.907      19644.077      24538.83       8257.3932      7542.4687      5850.0748      757.75819      1293.7838      6441.9703     -5604.6186     -606.67192      115361.61      48.680359      48.680359      48.680359      1.0194295      1568.7038      3005.1818      2195.2042    
     25500   25500          762.27662     -156.63415      44015.234      44280.084      19665.907      24614.177      8306.7411      7477.3796      5998.9976      740.54181      1257.071       6437.5558     -5604.1094     -603.63955      115941.13      48.761737      48.761737      48.761737      1.014334       328.49439     -1346.8734      548.47651    
      5500   5500           751.06177     -1248.8131      41806.457      43891.234      19376.576      24514.658      8289.6282      7443.8808      5998.4346      734.98059      1209.2667      6442.118      -5603.6508     -611.40501      114468.56      48.554416      48.554416      48.554416      1.0273828     -1256.3606     -2244.0591     -246.01953    
     26000   26000          753.8009       912.90731      45853.63       44315.1        19447.242      24867.858      8251.0982      7703.0446      6035.8435      750.57988      1254.6026      6467.5786     -5594.8895     -605.63626      115558.88      48.708091      48.708091      48.708091      1.0176892     -376.97728      3128.3938     -12.694629    
     26500   26500          749.76304      1002.3489      45656.528      43960.631      19343.07       24617.561      8239.4135      7574.377       5871.3835      746.05944      1341.2729      6443.2291     -5598.174      -603.26849      116012.44      48.771733      48.771733      48.771733      1.0137105      565.82795      1208.5873      1232.6315    
     27000   27000          749.00766      91.730325      43974.679      43819.636      19323.582      24496.054      8155.6304      7507.7243      5933.4447      734.45265      1327.3475      6439.8943     -5602.4398     -603.87998      115894.97      48.755265      48.755265      48.755265      1.014738       796.64411      698.9854      -1220.4385    
     27500   27500          739.36173      455.14512      44570.332      43797.381      19074.727      24722.654      8429.7914      7566.7151      5919.4167      756.84235      1190.6963      6454.5129     -5595.3206     -601.02024      116446.41      48.832471      48.832471      48.832471      1.0099326      234.01618     -510.48323      1641.9024    
     28000   28000          753.54642     -652.25962      42856.35       43950.016      19440.677      24509.339      8100.1042      7636.7806      5840.2542      727.22656      1354.5213      6445.334      -5594.8816     -608.73291      114971.03      48.625357      48.625357      48.625357      1.0228927     -1468.3149     -924.13786      435.67388    
     28500   28500          746.85329     -183.68607      43765.059      44078.259      19268.001      24810.258      8413.9412      7555.6793      5896.4197      759.96242      1343.3054      6438.3331     -5597.3831     -598.61204      116914.87      48.897867      48.897867      48.897867      1.005886      -700.98505     -1123.0807      1273.0075    
     29000   29000          749.03218      637.38097      44997.372      43915.511      19324.214      24591.296      8401.4384      7370.1465      5882.2548      760.47883      1345.4344      6428.4938     -5596.9506     -601.33767      116384.94      48.823877      48.823877      48.823877      1.010466       826.70413      203.66307      881.7757     
      6000   6000           758.09121     -833.09303      42812.501      44212.561      19557.928      24654.633      8349.5636      7554.4952      5952.5979      748.02456      1203.3012      6446.852      -5600.2015     -607.34843      115233.11      48.662277      48.662277      48.662277      1.0205663     -79.04716      -2704.9362      284.70426    
     29500   29500          736.87305     -179.422        43343.135      43647.039      19010.522      24636.517      8296.1842      7297.7574      6004.9436      773.14216      1446.425       6418.3077     -5600.2432     -602.60215      116140.72      48.789703      48.789703      48.789703      1.0125908     -222.11694      266.00101     -582.15007    
     30000   30000          750.25082     -810.9184       42558.625      43923.16       19355.654      24567.506      8166.3536      7216.1594      6220.0388      753.17772      1375.9708      6437.2341     -5601.4282     -606.57364      115380.3       48.682988      48.682988      48.682988      1.0192644     -1364.3321      1144.398      -2212.8211    
     30500   30500          746.94339     -41.871748      43939.821      44010.263      19270.326      24739.937      8423.018       7413.2222      5966.2469      772.63828      1313.4928      6444.8434     -5593.525      -606.70995      115354.38      48.679342      48.679342      48.679342      1.0194934      712.21651     -1322.3225      484.49075    
     31000   31000          740.82638      1008.0531      45443.814      43737.66       19112.514      24625.146      8269.319       7579.5533      5877.3657      758.23193      1305.6293      6435.9342     -5600.8874     -603.054        116053.7       48.777515      48.777515      48.777515      1.0133501     -338.50544      1380.8649      1981.7997    
     31500   31500          746.90949     -969.77496      42098.496      43757.034      19269.452      24487.582      8252.5773      7364.2645      5947.4295      766.28272      1315.7188      6438.4053     -5597.0959     -596.81096      117267.7       48.947007      48.947007      48.947007      1.0028595     -2970.5597     -1017.1622      1078.397     
     32000   32000          745.31494      1324.5444      46231.289      43989.307      19228.314      24760.993      8283.2041      7528.3735      5939.9559      749.44839      1431.4239      6431.4174     -5602.8304     -603.01134      116061.91      48.778665      48.778665      48.778665      1.0132784      1046.9243      1883.0339      1043.675     
     32500   32500          747.95382     -1404.2726      41703.777      44065.974      19296.394      24769.58       8496.2471      7460.4775      6045.9934      730.38387      1199.4705      6437.3142     -5600.3067     -606.77333      115342.33      48.677647      48.677647      48.677647      1.0195999     -1390.0392     -582.58646     -2240.1922    
      6500   6500           747.52104      953.38194      45552.795      43963.986      19285.229      24678.757      8472.4384      7598.4907      5709.7992      749.03075      1293.1419      6452.1214     -5596.2654     -612.47213      114269.12      48.526201      48.526201      48.526201      1.029176       1297.4633      2074.292      -511.60949    
     33000   33000          750.09291      519.14786      44851.298      43965.386      19351.58       24613.806      8334.196       7323.7603      5931.3552      768.61436      1431.0452      6423.924      -5599.0889     -598.12486      117010.1       48.91114       48.91114       48.91114       1.0050673     -40.475253      1196.2555      401.66333    
     33500   33500          739.81938      475.89105      44365.076      43555.351      19086.534      24468.817      8444.8029      7369.1729      5684.4629      756.50735      1353.6194      6454.1776     -5593.9262     -599.87526      116668.67      48.86352       48.86352       48.86352       1.0080086      471.68964      778.62364      177.35986    
     34000   34000          758.70385      104.8814       44443.591      44266.382      19573.733      24692.649      8373.3184      7355.6838      6059.7982      760.62559      1303.8437      6438.3857     -5599.0062     -604.09323      115854.05      48.749528      48.749528      48.749528      1.0150964      1683.8504     -1057.2037     -312.00251    
     34500   34500          758.94049     -177.14391      43937.902      44237.088      19579.838      24657.25       8226.5128      7540.0446      5979.4393      760.23708      1317.3388      6432.1788     -5598.5012     -604.33199      115808.28      48.743107      48.743107      48.743107      1.0154976     -263.72198     -1032.8726      765.16284    
     35000   35000          744.75265     -1915.4802      40653.495      43885.005      19213.807      24671.197      8435.0623      7278.1122      6024.7024      751.40195      1346.2399      6431.0428     -5595.3643     -605.01096      115678.32      48.724866      48.724866      48.724866      1.0166385     -1785.433      -3319.2743     -641.73326    
[...]
    128000   128000         752.41817      1901.9907      46882.494      43674.482      19411.569      24262.913      8288.5923      7351.5234      5796.1073      718.11435      1260.6013      6448.4786     -5600.5048     -605.15056      115651.63      48.721119      48.721119      48.721119      1.0168731      69.278357      1582.7907      4053.9032    
    128500   128500         755.31479     -935.49035      42467.863      44041.469      19486.299      24555.17       8183.8696      7369.6404      6109.5096      781.26157      1270.0363      6441.5355     -5600.6831     -606.78446      115340.22      48.677349      48.677349      48.677349      1.0196186     -1204.8217     -2004.0326      402.38322    
    129000   129000         749.49542     -708.02685      42833.716      44022.272      19336.166      24686.106      8178.0361      7694.14        5982.4393      774.00157      1202.2981      6458.6335     -5603.4425     -608.02454      115104.97      48.644234      48.644234      48.644234      1.0217024      1024.05       -2331.5644     -816.56617    
    129500   129500         751.83481     -286.57857      43177.176      43653.947      19396.519      24257.428      8160.7386      7402.2088      5913.9086      736.23052      1216.8534      6429.0087     -5601.5207     -613.515        114074.88      48.49869       48.49869       48.49869       1.0309284     -1054.1991     -868.22092      1062.6843    
     20000   20000          748.5458       1848.5923      46964.628      43872.698      19311.666      24561.032      8320.4433      7454.2892      5906.9724      764.4699       1297.8884      6423.4695     -5606.5008     -610.24266      114686.59      48.585224      48.585224      48.585224      1.0254297      2763.805       337.40111      2444.5708    
    130000   130000         748.46546     -576.8707       42724.66       43686.438      19309.594      24376.845      8229.606       7417.8275      5949.2168      725.83022      1209.8833      6441.0934     -5596.6126     -612.20146      114319.64      48.533351      48.533351      48.533351      1.0287211     -293.53479     -398.797       -1038.2803    
    130500   130500         748.36866     -455.87915      43209.548      43972.473      19307.096      24665.376      8303.4117      7630.4536      5876.7902      771.39445      1233.5878      6449.0801     -5599.3415     -609.90092      114750.85      48.594297      48.594297      48.594297      1.0248554     -658.10707      1444.3543     -2153.8847    
    131000   131000         750.21135      428.21857      44629.523      43911.071      19354.636      24556.435      8184.8199      7571.7865      5879.5009      746.04747      1319.5504      6452.4083     -5597.6785     -608.35767      115041.94      48.635353      48.635353      48.635353      1.0222622      1440.8352      1365.4885     -1521.668     
    131500   131500         763.76832      1707.9454      47074.067      44190.933      19704.391      24486.542      8057.1322      7594.8873      5777.6777      757.18479      1416.2359      6477.8614     -5594.4369     -604.64464      115748.4       48.734704      48.734704      48.734704      1.0160229      706.32694      1820.5472      2596.9619    
    132000   132000         751.96331     -791.32369      42932.816      44261.606      19399.835      24861.771      8196.0157      7583.6999      6142.8341      782.15949      1297.4407      6455.8017     -5596.1801     -607.83939      115140.04      48.649172      48.649172      48.649172      1.0213913     -612.48145     -1320.1271     -441.36248    
    132500   132500         742.33355     -995.9946       42217.426      43895.866      19151.397      24744.469      8334.9909      7346.1593      6077.1026      764.81441      1391.4675      6430.2762     -5600.3421     -605.6785       115550.82      48.706959      48.706959      48.706959      1.0177602     -1663.5618     -1166.9602     -157.46182    
    133000   133000         749.36593     -125.4714       43673.285      43887.303      19332.825      24554.478      8144.2368      7535.2315      5952.0802      758.58539      1296.7212      6461.0386     -5593.4156     -598.39208      116957.85      48.903858      48.903858      48.903858      1.0055164      1.8676448      315.41353     -693.69536    
    133500   133500         747.68116     -563.28601      42920.98       43871.643      19289.36       24582.284      8322.9039      7424.7374      5903.6077      734.06338      1346.3136      6451.6719     -5601.0144     -604.7744       115723.57      48.731218      48.731218      48.731218      1.016241       151.85785     -579.20661     -1262.5093    
    134000   134000         744.96952     -932.62066      42383.136      43948.238      19219.402      24728.836      8298.6378      7417.942       6054.0436      766.75306      1339.8642      6450.513      -5598.9181     -608.20985      115069.9       48.639293      48.639293      48.639293      1.0220138     -654.23319     -906.24191     -1237.3869    
     20500   20500          749.30474     -1836.725       40800.502      43896.375      19331.246      24565.129      8526.3141      7337.7131      5883.8439      732.7488       1255.3693      6431.4172     -5602.2775     -605.55281      115574.81      48.710329      48.710329      48.710329      1.017549      -2318.2551     -2544.9582     -646.96166    
    134500   134500         748.16437      949.21399      45199.431      43600.896      19301.826      24299.07       8194.0608      7426.5031      5798.9282      734.8473       1292.2062      6447.1786     -5594.6539     -606.0845       115473.42      48.696081      48.696081      48.696081      1.0184424      2351.5901      1444.1639     -948.11204    
    135000   135000         741.08334      316.20174      44202.959      43668.431      19119.143      24549.288      8217.3645      7599.7351      5903.8522      737.92955      1247.1139      6441.4898     -5598.1974     -603.78872      115912.48      48.757722      48.757722      48.757722      1.0145847      718.28754      936.30694     -705.98927    
    135500   135500         743.55499      982.19134      45417.554      43770.028      19182.909      24587.119      8213.3376      7382.7083      6012.5183      769.93207      1364.864       6441.0495     -5597.2907     -608.49218      115016.52      48.631769      48.631769      48.631769      1.0224882      406.71359      1234.9147      1304.9457    
    136000   136000         749.52473     -151.29787      43759.489      44016.264      19336.922      24679.342      8296.4315      7531.4802      5912.3419      754.24171      1338.9358      6442.3198     -5596.4088     -601.41132      116370.69      48.821884      48.821884      48.821884      1.0105898      903.86052      108.87968     -1466.6338    
    136500   136500         755.58848      2355.3212      48109.192      44126.102      19493.36       24632.743      8325.7622      7481.1785      5845.1979      745.04513      1405.4359      6430.8058     -5600.6826     -603.56093      115956.23      48.763855      48.763855      48.763855      1.0142019      2280.8115      2731.4873      2053.6648    
    137000   137000         747.12231      389.32553      44600.669      43946.083      19274.942      24671.141      8292.9918      7561.275       5944.2638      761.18163      1260.9811      6451.8071     -5601.3593     -607.06826      115286.29      48.669762      48.669762      48.669762      1.0200955      1501.9633      452.87136     -786.85812    
    137500   137500         744.89844      1188.3691      45533.636      43544.733      19217.569      24327.164      8150.4354      7636.3919      5730.5242      742.86823      1234.1272      6435.5688     -5602.7516     -609.85816      114758.9       48.595433      48.595433      48.595433      1.0247835      204.52264      247.30889      3113.2757    
    138000   138000         749.77228     -101.92823      43545.641      43716.222      19343.308      24372.913      8382.8481      7349.0274      5894.199       739.46193      1166.0174      6442.807      -5601.4474     -609.89476      114752.01      48.594461      48.594461      48.594461      1.0248451      95.268577      143.89175     -544.94501    
    138500   138500         749.5342      -691.30006      42686.452      43851.556      19337.166      24514.39       8051.0046      7395.1022      6155.6408      776.01639      1314.2171      6424.7759     -5602.367      -605.60967      115563.96      48.708804      48.708804      48.708804      1.0176445     -1309.0014     -426.82705     -338.07174    
     21000   21000          754.39841      1187.6124      45566.184      43573.292      19462.657      24110.635      8197.8564      7411.2749      5640.6108      740.69658      1295.4399      6427.6659     -5602.9098     -608.25007      115062.3       48.638221      48.638221      48.638221      1.0220814      271.22608      1576.505       1715.1062    
    139000   139000         751.84241      1694.0044      46981.692      44116.829      19396.715      24720.113      8291.5233      7655.5986      5841.5316      738.05415      1347.3109      6446.6576     -5600.5625     -603.53395      115961.41      48.764581      48.764581      48.764581      1.0141566      207.02099      1821.3478      3053.6445    
    139500   139500         761.92081      1398.0087      46736.153      44392.51       19656.727      24735.783      8337.5418      7643.4099      5826.0285      770.67291      1318.5231      6440.984      -5601.3775     -608.84882      114949.14      48.622272      48.622272      48.622272      1.0230875      2366.768       753.65677      1073.6013    
    140000   140000         753.33631      116.06768      44230.645      44036.51       19435.256      24601.254      8408.0684      7482.2711      5932.3878      769.62994      1171.3569      6440.1642     -5602.6247     -610.23815      114687.44      48.585344      48.585344      48.585344      1.0254221      921.18658      640.2771      -1213.2606    
    140500   140500         753.32341     -302.61073      43720.433      44230.556      19434.924      24795.633      8389.7855      7562.4377      5904.3884      764.95569      1331.8446      6443.5888     -5601.3681     -605.4809       115588.53      48.712257      48.712257      48.712257      1.0174282     -299.71975     -49.216237     -558.89619    
    141000   141000         756.50013     -1568.8963      41246.801      43906.144      19516.88       24389.264      7942.0987      7470.5107      6066.744       775.91396      1284.5819      6449.3871     -5599.9721     -602.15876      116226.24      48.801675      48.801675      48.801675      1.0118458     -1461.2146     -1246.6524     -1998.8217    
    141500   141500         744.58524      1097.8758      45696.053      43849.181      19209.488      24639.693      8266.9872      7591.1112      5899.857       764.20221      1276.7705      6441.3174     -5600.5526     -606.74686      115347.36      48.678354      48.678354      48.678354      1.0195554      1062.7273      60.822534      2170.0776    
    142000   142000         745.88085      1435.816       46291.909      43902.327      19242.914      24659.413      8307.3286      7615.8823      5791.0687      728.2599       1375.705       6443.0325     -5601.8638     -613.29292      114116.19      48.504543      48.504543      48.504543      1.0305552      352.06665      3279.9814      675.39993    
    142500   142500         752.80128     -463.83295      43302.712      44086.727      19421.453      24665.274      8326.5634      7548.8826      5998.7257      743.41981      1202.2784      6442.9749     -5597.5712     -603.84922      115900.87      48.756093      48.756093      48.756093      1.0146863     -2556.5603     -70.622295      1235.6837    
    143000   143000         762.06802      169.1579       44372.827      44086.411      19660.525      24425.886      8155.744       7414.3651      5889.4734      758.17108      1366.6398      6438.6714     -5597.1791     -602.81785      116099.17      48.783883      48.783883      48.783883      1.0129533     -340.69937      355.87942      492.29366    
     21500   21500          752.00002      520.07091      44694.911      43832.8        19400.782      24432.018      8170.7538      7381.7181      6081.4577      762.60306      1204.4495      6435.1558     -5604.1198     -615.73026      113664.46      48.440457      48.440457      48.440457      1.0346508      1979.6861      728.4331      -1147.9064    
    143500   143500         747.17085      670.31527      44963.103      43833.15       19276.194      24556.956      8046.0786      7598.3613      5979.4859      765.41154      1323.9465      6439.8914     -5596.2196     -605.49374      115586.08      48.711913      48.711913      48.711913      1.0174497      473.5146       1766.3221     -228.89091    
    144000   144000         733.0402      -712.3267       42329.458      43544.888      18911.639      24633.249      8213.143       7555.7215      5929.1292      744.87021      1355.4452      6430.3279     -5595.3875     -598.19152      116997.06      48.909323      48.909323      48.909323      1.0051793     -1816.3579      501.27277     -821.89502    
    144500   144500         757.84208      1580.6377      46786.883      44111.052      19551.5        24559.552      8252.2355      7549.5366      5802.761       727.38846      1379.3371      6446.3385     -5598.0452     -602.927        116078.15      48.780939      48.780939      48.780939      1.0131367      1775.139       772.33801      2194.4361    
    145000   145000         748.35711      271.61345      44410.162      43953.104      19306.799      24646.305      8228.2937      7439.4982      5988.7968      762.23154      1393.1341      6433.7016     -5599.3507     -606.55515      115383.82      48.683482      48.683482      48.683482      1.0192333     -120.39399      180.51425      754.72008    
    145500   145500         745.43751      999.05065      45599.044      43922.103      19231.476      24690.627      8411.1861      7547.1709      5845.807       743.47313      1270.7348      6466.7154     -5594.4602     -608.08032      115094.42      48.642746      48.642746      48.642746      1.0217961      546.16381      1412.8312      1038.157     
    146000   146000         749.82338      1059.3262      45361.8        43589.133      19344.627      24244.506      8184.6569      7333.4395      5816.1387      740.36963      1292.4271      6472.6863     -5595.2118     -609.94925      114741.76      48.593014      48.593014      48.593014      1.0249366     -965.69343      2203.6003      1940.0716    
    146500   146500         750.34112     -1252.3618      41541.066      43642.229      19357.984      24284.245      7999.0984      7475.8295      5940.5674      738.29715      1284.4448      6444.0785     -5598.0707     -608.36055      115041.4       48.635276      48.635276      48.635276      1.022267      -1112.2124     -2607.7371     -37.135757    
    147000   147000         757.99649      952.68648      45735.055      44135.053      19555.484      24579.569      8060.1987      7541.886       5959.5782      779.17602      1404.1752      6434.7181     -5600.1629     -607.74391      115158.13      48.65172       48.65172       48.65172       1.0212308      2409.8383     -251.04547      699.26657    
    147500   147500         748.49104      1418.5371      46485.864      44098.274      19310.254      24788.02       8325.3795      7507.2997      6014.0886      776.23537      1330.7463      6437.945      -5603.6739     -606.41788      115409.94      48.687155      48.687155      48.687155      1.0190026      1187.0963      841.38066      2227.1343    
     22000   22000          752.3015      -899.05518      42480.038      43976.066      19408.559      24567.506      8155.6812      7557.4193      5983.9686      765.397        1263.7269      6443.7663     -5602.453      -613.39146      114097.85      48.501945      48.501945      48.501945      1.0307208     -988.56775     -1279.6194     -428.97839    
    148000   148000         745.73318     -530.905        43043.219      43932.022      19239.104      24692.918      8237.5922      7510.5721      6062.0914      758.5333       1280.1576      6448.0562     -5604.085      -609.68051      114792.34      48.600152      48.600152      48.600152      1.024485      -17.993256     -2261.7748      687.05306    
    148500   148500         744.37936      945.5725       45148.359      43564.458      19204.177      24360.281      8227.453       7416.7756      5867.2287      741.98196      1257.9281      6452.9294     -5604.0155     -609.33752      114856.95      48.60927       48.60927       48.60927       1.0239087      783.57072      2437.2187     -384.07193    
    149000   149000         741.48605      374.9019       44216.016      43584.67       19129.533      24455.137      8160.5822      7549.0733      5840.0304      732.71456      1334.3091      6435.9619     -5597.5344     -606.09594      115471.24      48.695774      48.695774      48.695774      1.0184616     -460.61734      1746.6        -161.27696    
    149500   149500         757.46335     -1557.5638      41521.793      44169.782      19541.73       24628.053      8362.9146      7559.5359      5912.0904      726.23583      1220.6645      6450.8283     -5604.2169     -600.37248      116572.05      48.850027      48.850027      48.850027      1.0088442     -842.52927     -439.16902     -3390.993     
    150000   150000         756.08016      2887.1183      48716.448      43897.353      19506.045      24391.309      8450.4061      7435.1201      5634.8055      748.03133      1268.7705      6453.996      -5599.8209     -611.49126      114452.41      48.552133      48.552133      48.552133      1.0275278      1710.783       2736.4723      4214.0994    
    150500   150500         749.81394      2324.9786      47616.396      43783.039      19344.383      24438.655      8327.2933      7543.3012      5815.5096      770.2733       1170.1262      6418.3368     -5606.185      -619.05715      113053.62      48.353526      48.353526      48.353526      1.0402412      885.5241       3227.0557      2862.3562    
    151000   151000         751.2081       146.46137      44290.956      44047.691      19380.351      24667.34       8300.1598      7585.1905      5962.9797      751.42741      1212.5282      6461.4951     -5606.4412     -614.51665      113888.94      48.472325      48.472325      48.472325      1.0326115      3068.8651     -1539.6443     -1089.8367    
    151500   151500         744.17387     -499.63433      43003.145      43838.56       19198.875      24639.685      8238.6855      7649.2954      5849.7798      729.69786      1335.5558      6441.6247     -5604.9542     -610.43685      114650.11      48.580072      48.580072      48.580072      1.025756      -1730.9757     -149.24261      381.31534    
    152000   152000         751.11776     -1337.3383      41627.156      43864.946      19378.02       24486.926      8157.4641      7492.3084      6066.7579      753.752        1174.2492      6445.2146     -5602.82       -609.97641      114736.65      48.592292      48.592292      48.592292      1.0249823     -436.44467     -1532.4847     -2043.0854    
     22500   22500          752.77376     -42.359172      44171.622      44242.42       19420.743      24821.677      8459.8165      7580.555       5977.0763      737.85796      1235.393       6432.7146     -5601.7364     -610.68062      114604.34      48.573607      48.573607      48.573607      1.0261656     -1089.8596     -375.04013      1337.8222    
    152500   152500         745.88364     -59.212066      43677.075      43774.934      19242.986      24531.949      8418.9402      7568.477       5756.5631      728.7817       1213.9351      6447.3002     -5602.0488     -617.59061      113322.08      48.39177       48.39177       48.39177       1.0377769     -1264.8251      674.00293      413.18595    
