units real
atom_style full
boundary p p p

# --- Force Field Styles ---
pair_style lj/class2/coul/long 9.5 9.5
kspace_style pppm 1e-6
dielectric 1.000000
bond_style class2
angle_style class2
dihedral_style class2
improper_style class2
special_bonds lj/coul 0 0 1
pair_modify mix sixthpower tail yes
neighbor 2.0 bin
neigh_modify delay 0 every 1 check yes
neigh_modify one 4000
# KOKKOS: package loaded via -pk kokkos on the command line

read_data /home/arz2/PolyJarvis/data/PSU2/lammps/equil/minimize/minimize_out.data
Reading data file ...
  orthogonal box = (0 0 0) to (61.893581 61.893581 61.893581)
  1 by 1 by 1 MPI processor grid
  reading atoms ...
  10820 atoms
  reading velocities ...
  10820 velocities
  scanning bonds ...
  4 = max bonds/atom
  scanning angles ...
  16 = max angles/atom
  scanning dihedrals ...
  38 = max dihedrals/atom
  scanning impropers ...
  12 = max impropers/atom
  orthogonal box = (0 0 0) to (61.893581 61.893581 61.893581)
  1 by 1 by 1 MPI processor grid
  reading bonds ...
  11610 bonds
  reading angles ...
  19600 angles
  reading dihedrals ...
  29180 dihedrals
  reading impropers ...
  8000 impropers
Finding 1-2 1-3 1-4 neighbors ...
  special bond factors lj:    0        0        1       
  special bond factors coul:  0        0        1       
     4 = max # of 1-2 neighbors
    10 = max # of 1-3 neighbors
    14 = max # of special neighbors
  special bonds CPU = 0.006 seconds
  read_data CPU = 0.357 seconds
include /home/arz2/PolyJarvis/data/PSU2/lammps/equil/emc_build.params
# LAMMPS parameters created by EMC v9.4.4, build Jul 31 2025 20:33:44

# Variables

variable	seed		index	820419
variable	ntotal		index	10820
variable	fshape		index	1
variable	output		index	emc_build
variable	field		index	pcff/pcff
variable	location1	index	/home/arz2/emc/field/
variable	nav		index	0.6022141179
variable	temperature	index	300
variable	radius		index	5
variable	nrelax		index	100
variable	weight_nonbond	index	0.0001
variable	weight_bond	index	0.0001
variable	weight_focus	index	1
variable	cutoff		index	9.5
variable	charge_cutoff	index	9.5
variable	kappa		index	4
variable	density1	index	0.62
variable	lprevious	index	0
variable	lphase		index	61.8935814259
variable	f_poly		index	10
variable	chem_repeat	index	*Oc1ccc(C(C)(C)c2ccc(Oc3ccc(S(=O)(=O)c4ccc(*)cc4)cc3)cc2)cc1
variable	chem_cap	index	*[H]
variable	lg_repeat	index	54
variable	lg_cap		index	1
variable	norm_poly	index	100
variable	l_poly		index	1082
variable	mg_repeat	index	414.52744
variable	mg_cap		index	0
variable	m_poly		index	8290.5488
variable	n_poly		index	10
variable	mtotal		index	88527.7574
variable	nphase1		index	10820
variable	mphase1		index	88527.7574
variable	vphase1		index	237102.886232
variable	lbox		index	61.8935814259
variable	lphase1		index	61.8935814259
variable	lxx		index	61.8935814259
variable	lyy		index	61.8935814259
variable	lzz		index	61.8935814259
variable	lzy		index	0
variable	lzx		index	0
variable	lyx		index	0
variable	vtotal		index	237102.886232
variable	nl_poly		index	10

# Types

variable	type_c		index	1
variable	type_cp		index	2
variable	type_hc		index	3
variable	type_ho		index	4
variable	type_oe		index	5
variable	type_oc		index	6
variable	type_oh		index	7
variable	type_sf		index	8

variable	type_bond_c_c	index	1
variable	type_bond_c_cp	index	2
variable	type_bond_c_hc	index	3
variable	type_bond_cp_cp	index	4
variable	type_bond_cp_hc	index	5
variable	type_bond_cp_oc	index	6
variable	type_bond_cp_oh	index	7
variable	type_bond_cp_sf	index	8
variable	type_bond_ho_oh	index	9
variable	type_bond_oe_sf	index	10

variable	type_angle_c_c_c index	1
variable	type_angle_c_c_cp index	2
variable	type_angle_c_c_hc index	3
variable	type_angle_c_cp_cp index	4
variable	type_angle_cp_c_cp index	5
variable	type_angle_cp_cp_cp index	6
variable	type_angle_cp_cp_hc index	7
variable	type_angle_cp_cp_oc index	8
variable	type_angle_cp_cp_oh index	9
variable	type_angle_cp_cp_sf index	10
variable	type_angle_cp_oc_cp index	11
variable	type_angle_cp_oh_ho index	12
variable	type_angle_cp_sf_cp index	13
variable	type_angle_cp_sf_oe index	14
variable	type_angle_hc_c_hc index	15
variable	type_angle_oe_sf_oe index	16

# Clusters

variable	n0_poly		index	1
variable	n1_poly		index	10
variable	nl_poly		index	10

# Flags

variable	flag_charged	index	1

# Masses

mass		1    12.01115  # c
mass		2    12.01115  # cp
mass		3     1.00797  # hc
mass		4     1.00797  # ho
mass		5    15.99940  # o=
mass		6    15.99940  # oc
mass		7    15.99940  # oh
mass		8    32.06400  # sf

# Potentials

pair_modify	mix sixthpower tail yes
special_bonds	lj/coul 0 0 1

# Pair Coeffs

pair_coeff	 1  1    0.05400    4.01000  # c,c
pair_coeff	 2  2    0.06400    4.01000  # cp,cp
pair_coeff	 3  3    0.02000    2.99500  # hc,hc
pair_coeff	 4  4    0.01300    1.09800  # ho,ho
pair_coeff	 5  5    0.06000    3.53500  # o=,o=
pair_coeff	 6  6    0.24000    3.53500  # oc,oc
pair_coeff	 7  7    0.24000    3.53500  # oh,oh
pair_coeff	 8  8    0.25000    4.02700  # sf,sf

# Bond Coeffs

bond_coeff	 1    1.53000  299.67000 -501.77000  679.81000  # c,c
bond_coeff	 2    1.50100  321.90210 -521.82080  572.16280  # c,cp
bond_coeff	 3    1.10100  345.00000 -691.89000  844.60000  # c,hc
bond_coeff	 4    1.41700  470.83610 -627.61790 1327.63450  # cp,cp
bond_coeff	 5    1.09820  372.82510 -803.45260  894.31730  # cp,hc
bond_coeff	 6    1.37680  428.87980 -738.23510 1114.96550  # cp,oc
bond_coeff	 7    1.37680  428.87980 -738.23510 1114.96550  # cp,oh
bond_coeff	 8    1.72000  239.80240    0.00000    0.00000  # cp,sf
bond_coeff	 9    0.96500  532.50620 -1282.90500 2004.76580  # ho,oh
bond_coeff	10    1.43080  743.76000    0.00000    0.00000  # o=,sf

# Angle Coeffs

angle_coeff	 1  112.67000   39.51600   -7.44300   -9.55830  # c,c,c
angle_coeff	 2  108.40000   43.95940   -8.39240   -9.33790  # c,c,cp
angle_coeff	 3  110.77000   41.45300  -10.60400    5.12900  # c,c,hc
angle_coeff	 4  120.05000   44.71480  -22.73520    0.00000  # c,cp,cp
angle_coeff	 5  111.00000   44.32340   -9.44540    0.00000  # cp,c,cp
angle_coeff	 6  118.90000   61.02260  -34.99310    0.00000  # cp,cp,cp
angle_coeff	 7  117.94000   35.15580  -12.46820    0.00000  # cp,cp,hc
angle_coeff	 8  123.42000   73.67810  -21.67870    0.00000  # cp,cp,oc
angle_coeff	 9  123.42000   73.67810  -21.67870    0.00000  # cp,cp,oh
angle_coeff	10  120.00000   60.00000    0.00000    0.00000  # cp,cp,sf
angle_coeff	11  109.50000   60.00000    0.00000    0.00000  # cp,oc,cp
angle_coeff	12  108.19000   53.12500   -8.50160    0.00000  # cp,oh,ho
angle_coeff	13  102.00000   58.00000    0.00000    0.00000  # cp,sf,cp
angle_coeff	14  113.10000   42.30000    0.00000    0.00000  # cp,sf,o=
angle_coeff	15  107.66000   39.64100  -12.92100   -2.43180  # hc,c,hc
angle_coeff	16  119.32900  135.00000    0.00000    0.00000  # o=,sf,o=

# BondBond Coeffs

angle_coeff	 1 bb    0.00000    1.53000    1.53000  # c,c,c
angle_coeff	 2 bb    0.00000    1.53000    1.50100  # c,c,cp
angle_coeff	 3 bb    3.38720    1.53000    1.10100  # c,c,hc
angle_coeff	 4 bb   12.06760    1.50100    1.41700  # c,cp,cp
angle_coeff	 5 bb    0.00000    1.50100    1.50100  # cp,c,cp
angle_coeff	 6 bb   68.28560    1.41700    1.41700  # cp,cp,cp
angle_coeff	 7 bb    1.07950    1.41700    1.09820  # cp,cp,hc
angle_coeff	 8 bb   48.47540    1.41700    1.37680  # cp,cp,oc
angle_coeff	 9 bb   48.47540    1.41700    1.37680  # cp,cp,oh
angle_coeff	10 bb    0.00000    1.41700    1.72000  # cp,cp,sf
angle_coeff	11 bb    0.00000    1.37680    1.37680  # cp,oc,cp
angle_coeff	12 bb   20.65770    1.37680    0.96500  # cp,oh,ho
angle_coeff	13 bb    0.00000    1.72000    1.72000  # cp,sf,cp
angle_coeff	14 bb    0.00000    1.72000    1.43080  # cp,sf,o=
angle_coeff	15 bb    5.33160    1.10100    1.10100  # hc,c,hc
angle_coeff	16 bb   40.00000    1.43080    1.43080  # o=,sf,o=

# BondAngle Coeffs

angle_coeff	 1 ba    8.01600    8.01600    1.53000    1.53000  # c,c,c
angle_coeff	 2 ba    0.00000    0.00000    1.53000    1.50100  # c,c,cp
angle_coeff	 3 ba   20.75400   11.42100    1.53000    1.10100  # c,c,hc
angle_coeff	 4 ba   47.05790   31.07710    1.50100    1.41700  # c,cp,cp
angle_coeff	 5 ba    0.00000    0.00000    1.50100    1.50100  # cp,c,cp
angle_coeff	 6 ba   28.87080   28.87080    1.41700    1.41700  # cp,cp,cp
angle_coeff	 7 ba   20.00330   24.21830    1.41700    1.09820  # cp,cp,hc
angle_coeff	 8 ba   58.47900  107.68060    1.41700    1.37680  # cp,cp,oc
angle_coeff	 9 ba   58.47900  107.68060    1.41700    1.37680  # cp,cp,oh
angle_coeff	10 ba    0.00000    0.00000    1.41700    1.72000  # cp,cp,sf
angle_coeff	11 ba    0.00000    0.00000    1.37680    1.37680  # cp,oc,cp
angle_coeff	12 ba   53.86140   23.92240    1.37680    0.96500  # cp,oh,ho
angle_coeff	13 ba    0.00000    0.00000    1.72000    1.72000  # cp,sf,cp
angle_coeff	14 ba    0.00000    0.00000    1.72000    1.43080  # cp,sf,o=
angle_coeff	15 ba   18.10300   18.10300    1.10100    1.10100  # hc,c,hc
angle_coeff	16 ba    0.00000    0.00000    1.43080    1.43080  # o=,sf,o=

# Dihedral Coeffs

dihedral_coeff	 1    0.00000    0.00000    0.03160    0.00000   -0.16810    0.00000  # c,c,c,hc
dihedral_coeff	 2   -0.28020    0.00000   -0.06780    0.00000   -0.01220    0.00000  # c,c,cp,cp
dihedral_coeff	 3    0.00000    0.00000    4.40720    0.00000    0.00000    0.00000  # c,cp,cp,cp
dihedral_coeff	 4    0.00000    0.00000    1.55900    0.00000    0.00000    0.00000  # c,cp,cp,hc
dihedral_coeff	 5   -0.02280    0.00000    0.02800    0.00000   -0.18630    0.00000  # cp,c,c,hc
dihedral_coeff	 6   -0.28020    0.00000   -0.06780    0.00000   -0.01220    0.00000  # cp,c,cp,cp
dihedral_coeff	 7    8.36670    0.00000    1.19320    0.00000    0.00000    0.00000  # cp,cp,cp,cp
dihedral_coeff	 8    0.00000    0.00000    3.96610    0.00000    0.00000    0.00000  # cp,cp,cp,hc
dihedral_coeff	 9    0.00000    0.00000    4.84980    0.00000    0.00000    0.00000  # cp,cp,cp,oc
dihedral_coeff	10    0.00000    0.00000    4.84980    0.00000    0.00000    0.00000  # cp,cp,cp,oh
dihedral_coeff	11    0.00000    0.00000    3.00000    0.00000    0.00000    0.00000  # cp,cp,cp,sf
dihedral_coeff	12    0.00000    0.00000    1.80000    0.00000    0.00000    0.00000  # cp,cp,oc,cp
dihedral_coeff	13   -0.69000    0.00000    0.50970    0.00000    0.00950    0.00000  # cp,cp,oh,ho
dihedral_coeff	14    0.00000    0.00000    1.50000    0.00000    0.00000    0.00000  # cp,cp,sf,cp
dihedral_coeff	15    0.00000    0.00000    1.50000    0.00000    0.00000    0.00000  # cp,cp,sf,o=
dihedral_coeff	16    0.00000    0.00000    1.87690    0.00000    0.00000    0.00000  # hc,cp,cp,hc
dihedral_coeff	17    0.00000    0.00000    1.72340    0.00000    0.00000    0.00000  # hc,cp,cp,oc
dihedral_coeff	18    0.00000    0.00000    1.72340    0.00000    0.00000    0.00000  # hc,cp,cp,oh
dihedral_coeff	19    0.00000    0.00000    3.00000    0.00000    0.00000    0.00000  # hc,cp,cp,sf

# MiddleBondTorsion Coeffs

dihedral_coeff	 1 mbt  -14.87900   -3.65810   -0.31380    1.53000  # c,c,c,hc
dihedral_coeff	 2 mbt    0.00000    0.00000    0.00000    1.50100  # c,c,cp,cp
dihedral_coeff	 3 mbt    0.00000    9.17920    0.00000    1.41700  # c,cp,cp,cp
dihedral_coeff	 4 mbt    0.00000    3.94210    0.00000    1.41700  # c,cp,cp,hc
dihedral_coeff	 5 mbt    0.00000    0.00000    0.00000    1.53000  # cp,c,c,hc
dihedral_coeff	 6 mbt    0.00000    0.00000    0.00000    1.50100  # cp,c,cp,cp
dihedral_coeff	 7 mbt   27.59890   -2.31200    0.00000    1.41700  # cp,cp,cp,cp
dihedral_coeff	 8 mbt    0.00000   -1.15210    0.00000    1.41700  # cp,cp,cp,hc
dihedral_coeff	 9 mbt    0.00000    4.82550    0.00000    1.41700  # cp,cp,cp,oc
dihedral_coeff	10 mbt    0.00000    4.82550    0.00000    1.41700  # cp,cp,cp,oh
dihedral_coeff	11 mbt    0.00000    0.00000    0.00000    1.41700  # cp,cp,cp,sf
dihedral_coeff	12 mbt    0.00000    0.00000    0.00000    1.37680  # cp,cp,oc,cp
dihedral_coeff	13 mbt    1.15800    3.26970    3.51320    1.37680  # cp,cp,oh,ho
dihedral_coeff	14 mbt    0.00000    0.00000    0.00000    1.72000  # cp,cp,sf,cp
dihedral_coeff	15 mbt    0.00000    0.00000    0.00000    1.72000  # cp,cp,sf,o=
dihedral_coeff	16 mbt    0.00000    4.82280    0.00000    1.41700  # hc,cp,cp,hc
dihedral_coeff	17 mbt    0.00000    5.54320    0.00000    1.41700  # hc,cp,cp,oc
dihedral_coeff	18 mbt    0.00000    5.54320    0.00000    1.41700  # hc,cp,cp,oh
dihedral_coeff	19 mbt    0.00000    0.00000    0.00000    1.41700  # hc,cp,cp,sf

# EndBondTorsion Coeffs

dihedral_coeff	 1 ebt    0.24860    0.24220   -0.09250    0.08140    0.05910    0.22190    1.53000    1.10100  # c,c,c,hc
dihedral_coeff	 2 ebt    0.00000    0.00000    0.00000    0.00000    0.00000    0.00000    1.53000    1.41700  # c,c,cp,cp
dihedral_coeff	 3 ebt    0.00000    0.24210    0.00000    0.00000   -0.69180    0.00000    1.50100    1.41700  # c,cp,cp,cp
dihedral_coeff	 4 ebt    0.00000   -1.79700    0.00000    0.00000   -0.48790    0.00000    1.50100    1.09820  # c,cp,cp,hc
dihedral_coeff	 5 ebt    0.00000    0.00000    0.00000    0.00000    0.00000    0.00000    1.50100    1.10100  # cp,c,c,hc
dihedral_coeff	 6 ebt    0.00000    0.00000    0.00000    0.00000    0.00000    0.00000    1.50100    1.41700  # cp,c,cp,cp
dihedral_coeff	 7 ebt   -0.11850    6.32040    0.00000   -0.11850    6.32040    0.00000    1.41700    1.41700  # cp,cp,cp,cp
dihedral_coeff	 8 ebt    0.00000   -6.89580    0.00000    0.00000   -0.46690    0.00000    1.41700    1.09820  # cp,cp,cp,hc
dihedral_coeff	 9 ebt    0.00000    0.26550    0.00000    0.00000    4.89050    0.00000    1.41700    1.37680  # cp,cp,cp,oc
dihedral_coeff	10 ebt    0.00000    0.26550    0.00000    0.00000    4.89050    0.00000    1.41700    1.37680  # cp,cp,cp,oh
dihedral_coeff	11 ebt    0.00000    0.00000    0.00000    0.00000    0.00000    0.00000    1.41700    1.72000  # cp,cp,cp,sf
dihedral_coeff	12 ebt    0.00000    0.00000    0.00000    0.00000    0.00000    0.00000    1.41700    1.37680  # cp,cp,oc,cp
dihedral_coeff	13 ebt    0.90000   -1.34560    1.19000    3.41320    0.58730   -0.13230    1.41700    0.96500  # cp,cp,oh,ho
dihedral_coeff	14 ebt    0.00000    0.00000    0.00000    0.00000    0.00000    0.00000    1.41700    1.72000  # cp,cp,sf,cp
dihedral_coeff	15 ebt    0.00000    0.00000    0.00000    0.00000    0.00000    0.00000    1.41700    1.43080  # cp,cp,sf,o=
dihedral_coeff	16 ebt    0.00000   -0.68900    0.00000    0.00000   -0.68900    0.00000    1.09820    1.09820  # hc,cp,cp,hc
dihedral_coeff	17 ebt    0.00000   -1.58670    0.00000    0.00000    4.26410    0.00000    1.09820    1.37680  # hc,cp,cp,oc
dihedral_coeff	18 ebt    0.00000   -1.58670    0.00000    0.00000    4.26410    0.00000    1.09820    1.37680  # hc,cp,cp,oh
dihedral_coeff	19 ebt    0.00000    0.00000    0.00000    0.00000    0.00000    0.00000    1.09820    1.72000  # hc,cp,cp,sf

# AngleTorsion Coeffs

dihedral_coeff	 1 at   -0.24540    0.00000   -0.11360    0.31130    0.45160   -0.19880  112.67000  110.77000  # c,c,c,hc
dihedral_coeff	 2 at    0.00000    0.00000    0.00000    0.00000    0.00000    0.00000  108.40000  120.05000  # c,c,cp,cp
dihedral_coeff	 3 at    0.00000   -4.46830    0.00000    0.00000    3.89870    0.00000  120.05000  118.90000  # c,cp,cp,cp
dihedral_coeff	 4 at    0.00000   -0.12420    0.00000    0.00000    3.46010    0.00000  120.05000  117.94000  # c,cp,cp,hc
dihedral_coeff	 5 at    0.00000    0.00000    0.00000    0.00000    0.00000    0.00000  108.40000  110.77000  # cp,c,c,hc
dihedral_coeff	 6 at    0.00000    0.00000    0.00000    0.00000    0.00000    0.00000  111.00000  120.05000  # cp,c,cp,cp
dihedral_coeff	 7 at    1.97670    1.02390    0.00000    1.97670    1.02390    0.00000  118.90000  118.90000  # cp,cp,cp,cp
dihedral_coeff	 8 at    0.00000    2.50140    0.00000    0.00000    2.71470    0.00000  118.90000  117.94000  # cp,cp,cp,hc
dihedral_coeff	 9 at    0.00000   10.01550    0.00000    0.00000    1.74040    0.00000  118.90000  123.42000  # cp,cp,cp,oc
dihedral_coeff	10 at    0.00000   10.01550    0.00000    0.00000    1.74040    0.00000  118.90000  123.42000  # cp,cp,cp,oh
dihedral_coeff	11 at    0.00000    0.00000    0.00000    0.00000    0.00000    0.00000  118.90000  120.00000  # cp,cp,cp,sf
dihedral_coeff	12 at    0.00000    0.00000    0.00000    0.00000    0.00000    0.00000  123.42000  109.50000  # cp,cp,oc,cp
dihedral_coeff	13 at   -5.13600   -1.01220    0.00000    4.68520    0.02300   -0.59800  123.42000  108.19000  # cp,cp,oh,ho
dihedral_coeff	14 at    0.00000    0.00000    0.00000    0.00000    0.00000    0.00000  120.00000  102.00000  # cp,cp,sf,cp
dihedral_coeff	15 at    0.00000    0.00000    0.00000    0.00000    0.00000    0.00000  120.00000  113.10000  # cp,cp,sf,o=
dihedral_coeff	16 at    0.00000    2.45010    0.00000    0.00000    2.45010    0.00000  117.94000  117.94000  # hc,cp,cp,hc
dihedral_coeff	17 at    0.00000    1.87290    0.00000    0.00000    2.57060    0.00000  117.94000  123.42000  # hc,cp,cp,oc
dihedral_coeff	18 at    0.00000    1.87290    0.00000    0.00000    2.57060    0.00000  117.94000  123.42000  # hc,cp,cp,oh
dihedral_coeff	19 at    0.00000    0.00000    0.00000    0.00000    0.00000    0.00000  117.94000  120.00000  # hc,cp,cp,sf

# AngleAngleTorsion Coeffs

dihedral_coeff	 1 aat  -16.16400  112.67000  110.77000  # c,c,c,hc
dihedral_coeff	 2 aat    0.00000  108.40000  120.05000  # c,c,cp,cp
dihedral_coeff	 3 aat  -14.40970  120.05000  118.90000  # c,cp,cp,cp
dihedral_coeff	 4 aat    4.44440  120.05000  117.94000  # c,cp,cp,hc
dihedral_coeff	 5 aat    0.00000  108.40000  110.77000  # cp,c,c,hc
dihedral_coeff	 6 aat    0.00000  111.00000  120.05000  # cp,c,cp,cp
dihedral_coeff	 7 aat    0.00000  118.90000  118.90000  # cp,cp,cp,cp
dihedral_coeff	 8 aat   -4.81410  118.90000  117.94000  # cp,cp,cp,hc
dihedral_coeff	 9 aat  -21.02470  118.90000  123.42000  # cp,cp,cp,oc
dihedral_coeff	10 aat  -21.02470  118.90000  123.42000  # cp,cp,cp,oh
dihedral_coeff	11 aat    0.00000  118.90000  120.00000  # cp,cp,cp,sf
dihedral_coeff	12 aat    0.00000  123.42000  109.50000  # cp,cp,oc,cp
dihedral_coeff	13 aat   -4.60720  123.42000  108.19000  # cp,cp,oh,ho
dihedral_coeff	14 aat    0.00000  120.00000  102.00000  # cp,cp,sf,cp
dihedral_coeff	15 aat    0.00000  120.00000  113.10000  # cp,cp,sf,o=
dihedral_coeff	16 aat    0.35980  117.94000  117.94000  # hc,cp,cp,hc
dihedral_coeff	17 aat    4.22960  117.94000  123.42000  # hc,cp,cp,oc
dihedral_coeff	18 aat    4.22960  117.94000  123.42000  # hc,cp,cp,oh
dihedral_coeff	19 aat    0.00000  117.94000  120.00000  # hc,cp,cp,sf

# BondBond13 Coeffs

dihedral_coeff	 1 bb13    0.00000    1.53000    1.10100  # c,c,c,hc
dihedral_coeff	 2 bb13    0.00000    1.53000    1.41700  # c,c,cp,cp
dihedral_coeff	 3 bb13    2.50850    1.50100    1.41700  # c,cp,cp,cp
dihedral_coeff	 4 bb13    0.87430    1.50100    1.09820  # c,cp,cp,hc
dihedral_coeff	 5 bb13    0.00000    1.50100    1.10100  # cp,c,c,hc
dihedral_coeff	 6 bb13    0.00000    1.50100    1.41700  # cp,c,cp,cp
dihedral_coeff	 7 bb13   53.00000    1.41700    1.41700  # cp,cp,cp,cp
dihedral_coeff	 8 bb13   -6.27410    1.41700    1.09820  # cp,cp,cp,hc
dihedral_coeff	 9 bb13   -2.24360    1.41700    1.37680  # cp,cp,cp,oc
dihedral_coeff	10 bb13   -2.24360    1.41700    1.37680  # cp,cp,cp,oh
dihedral_coeff	11 bb13    0.00000    1.41700    1.72000  # cp,cp,cp,sf
dihedral_coeff	12 bb13    0.00000    1.41700    1.37680  # cp,cp,oc,cp
dihedral_coeff	13 bb13    1.15900    1.41700    0.96500  # cp,cp,oh,ho
dihedral_coeff	14 bb13    0.00000    1.41700    1.72000  # cp,cp,sf,cp
dihedral_coeff	15 bb13    0.00000    1.41700    1.43080  # cp,cp,sf,o=
dihedral_coeff	16 bb13   -1.70770    1.09820    1.09820  # hc,cp,cp,hc
dihedral_coeff	17 bb13    2.05170    1.09820    1.37680  # hc,cp,cp,oc
dihedral_coeff	18 bb13    2.05170    1.09820    1.37680  # hc,cp,cp,oh
dihedral_coeff	19 bb13    0.00000    1.09820    1.72000  # hc,cp,cp,sf

# Improper Coeffs

improper_coeff	 1    0.00000    0.00000  # c,c,c,cp
improper_coeff	 2    0.00000    0.00000  # c,c,cp,cp
improper_coeff	 3    0.00000    0.00000  # c,c,hc,hc
improper_coeff	 4    0.00000    0.00000  # c,hc,hc,hc
improper_coeff	 5    7.81530    0.00000  # cp,c,cp,cp
improper_coeff	 6    4.89120    0.00000  # cp,cp,cp,hc
improper_coeff	 7   13.04210    0.00000  # cp,cp,cp,oc
improper_coeff	 8   13.04210    0.00000  # cp,cp,cp,oh
improper_coeff	 9    0.00000    0.00000  # cp,cp,cp,sf
improper_coeff	10    0.00000    0.00000  # sf,cp,cp,o=
improper_coeff	11    0.00000    0.00000  # sf,cp,o=,o=

# AngleAngle Coeffs

improper_coeff	 1 aa    0.00000    0.00000    0.00000  112.67000  108.40000  108.40000  # c,c,c,cp
improper_coeff	 2 aa    0.00000    0.00000    0.00000  108.40000  108.40000  111.00000  # c,c,cp,cp
improper_coeff	 3 aa    0.27380   -0.48250    0.27380  110.77000  110.77000  107.66000  # c,c,hc,hc
improper_coeff	 4 aa   -0.31570   -0.31570   -0.31570  107.66000  107.66000  107.66000  # c,hc,hc,hc
improper_coeff	 5 aa    0.00000    0.00000    0.00000  120.05000  120.05000  118.90000  # cp,c,cp,cp
improper_coeff	 6 aa    0.00000    0.00000    0.00000  118.90000  117.94000  117.94000  # cp,cp,cp,hc
improper_coeff	 7 aa    0.00000    0.00000    0.00000  118.90000  123.42000  123.42000  # cp,cp,cp,oc
improper_coeff	 8 aa    0.00000    0.00000    0.00000  118.90000  123.42000  123.42000  # cp,cp,cp,oh
improper_coeff	 9 aa    0.00000    0.00000    0.00000  118.90000  120.00000  120.00000  # cp,cp,cp,sf
improper_coeff	10 aa    0.00000    0.00000    0.00000  102.00000  113.10000  113.10000  # sf,cp,cp,o=
improper_coeff	11 aa    0.00000    0.00000    0.00000  113.10000  113.10000  119.32900  # sf,cp,o=,o=


# --- Thermo Output ---
thermo_style custom step time temp press enthalpy etotal ke pe ebond eangle edihed eimp evdwl ecoul elong etail vol lx ly lz density pxx pyy pzz
thermo_modify flush yes
thermo 1000

# --- Trajectory ---
dump dump_nvt all custom 1000 nvt_softheat.dump id type mol x y z ix iy iz vx vy vz

# --- Restart Checkpointing ---
restart 10000 nvt_1.rst nvt_2.rst

# --- Initial Velocities (optional) ---
velocity all create 300.0 611213 mom yes rot yes dist gaussian

# --- SHAKE Constraints ---
# Constrains H-X bonds to allow 2fs timestep
# SHAKE disabled

# --- NVT Thermostat (Nose-Hoover) ---
# T_damp = 50.0 fs  (coupling timescale for heat exchange)
# Ramp: 300.0 K -> 780.0 K over 500000 steps
timestep 0.5
fix nvt_fix all nvt temp 300.0 780.0 50.0

run 500000
PPPM Kokkos initialization ...
  using 12-bit tables for long-range coulomb
  G vector (1/distance) = 0.29223061
  grid = 40 40 40
  stencil order = 5
  estimated absolute RMS force accuracy = 0.00034742445
  estimated relative force accuracy = 1.0462584e-06
  using double precision cuFFT
  3d grid and FFT values/proc = 103823 64000
Generated 28 of 28 mixed pair_coeff terms from sixthpower/sixthpower mixing rule
Neighbor list info ...
  update: every = 1 steps, delay = 0 steps, check = yes
  max neighbors/atom: 4000, page size: 100000
  master list distance cutoff = 11.5
  ghost atom cutoff = 11.5
  binsize = 11.5, bins = 6 6 6
  1 neighbor lists, perpetual/occasional/extra = 1 0 0
  (1) pair lj/class2/coul/long/kk, perpetual
      attributes: full, newton off, kokkos_device
      pair build: full/bin/kk/device
      stencil: full/bin/3d
      bin: kk/device
Per MPI rank memory allocation (min/avg/max) = 56.07 | 56.07 | 56.07 Mbytes
   Step          Time           Temp          Press         Enthalpy        TotEng         KinEng         PotEng         E_bond        E_angle        E_dihed        E_impro         E_vdwl         E_coul         E_long         E_tail         Volume           Lx             Ly             Lz          Density          Pxx            Pyy            Pzz      
         0   0              300            1265.1041      21278.683      16904.076      9674.8152      7229.2612      1429.4206      2254.9702      1540.4144      25.661428      1028.5466      7880.8794     -6930.6313     -461.20965      237102.89      61.893581      61.893581      61.893581      0.61999999     1204.7571      1235.6867      1354.8685    
      1000   500            307.46722     -467.09802      25686.441      27301.62       9915.6285      17385.992      4973.4898      5038.5446      4119.5896      415.4196       1837.2108      7923.7566     -6922.0195     -461.20965      237102.89      61.893581      61.893581      61.893581      0.61999999    -578.98917     -112.39198     -709.9129     
      2000   1000           301.09805     -706.14236      24200.611      26642.382      9710.2267      16932.156      4870.9625      4951.0105      3815.6606      376.48731      1916.1434      7926.529      -6924.6375     -461.20965      237102.89      61.893581      61.893581      61.893581      0.61999999    -122.38306     -1449.4076     -546.63639    
      3000   1500           308.07515     -278.48256      26133.195      27096.161      9935.2339      17160.927      4862.7425      5092.3855      3842.4961      376.4692       1984.4879      7922.0371     -6919.6916     -461.20965      237102.89      61.893581      61.893581      61.893581      0.61999999    -907.20278      296.52095     -224.76586    
      4000   2000           304.90585     -557.04775      25244          27170.216      9833.0259      17337.19       4867.0059      5136.4293      3930.9808      389.53832      2014.1793      7920.2187     -6921.162      -461.20965      237102.89      61.893581      61.893581      61.893581      0.61999999    -268.45733     -627.0999      -775.58601    
      5000   2500           304.90256     -764.47481      24336.923      26980.402      9832.9196      17147.482      4826.1424      4999.0988      3926.5534      381.1182       2015.2342      7919.3114     -6919.976      -461.20965      237102.89      61.893581      61.893581      61.893581      0.61999999    -1245.8353     -98.441388     -949.14776    
      6000   3000           301.31187      171.16832      27709.127      27117.244      9717.122       17400.122      4897.7604      5197.1661      3872.0288      394.1625       2040.4217      7918.3671     -6919.7847     -461.20965      237102.89      61.893581      61.893581      61.893581      0.61999999     87.677575      237.31441      188.51296    
      7000   3500           302.18007     -996.02088      23613.078      27057.221      9745.1211      17312.1        4970.2656      5078.0366      3957.3169      384.24397      1921.2591      7918.3681     -6917.3901     -461.20965      237102.89      61.893581      61.893581      61.893581      0.61999999    -939.34543     -1472.0071     -576.71012    
      8000   4000           309.70284      570.38595      29268.18       27295.841      9987.7256      17308.115      4986.7696      5132.379       3796.842       380.5026       2010.2211      7920.8416     -6919.4403     -461.20965      237102.89      61.893581      61.893581      61.893581      0.61999999     643.64877      652.85342      414.65566    
      9000   4500           308.44156     -558.87802      25168.589      27101.135      9947.0504      17154.084      4890.2585      5076.14        3879.2536      377.64699      1917.7067      7934.4168     -6921.3384     -461.20965      237102.89      61.893581      61.893581      61.893581      0.61999999    -170.94071     -613.31459     -892.37877    
     10000   5000           310.65467     -573.71173      25436.607      27420.446      10018.422      17402.025      4994.0411      5154.3315      3980.9053      393.09634      1871.9985      7927.919      -6920.2672     -461.20965      237102.89      61.893581      61.893581      61.893581      0.61999999    -633.85592     -779.48805     -307.79122    
     11000   5500           307.93259     -950.03195      23947.891      27233.009      9930.6362      17302.372      4875.52        5096.5878      4102.165       386.54484      1828.6271      7933.1675     -6920.2398     -461.20965      237102.89      61.893581      61.893581      61.893581      0.61999999    -1240.5485     -867.47349     -742.07391    
     12000   6000           307.51651     -1058.2015      23596.132      27255.29       9917.2179      17338.072      4922.6476      5104.9242      4049.2638      398.19509      1860.094       7928.1841     -6925.2371     -461.20965      237102.89      61.893581      61.893581      61.893581      0.61999999    -1296.2832     -1104.2408     -774.08052    
     13000   6500           310.16611     -835.32795      24561.227      27449.709      10002.666      17447.043      4974.5679      5177.2333      4013.4163      397.35896      1870.168       7934.2145     -6919.9159     -461.20965      237102.89      61.893581      61.893581      61.893581      0.61999999    -671.69218     -643.13012     -1191.1616    
     14000   7000           311.79839     -933.37928      24053.632      27281.166      10055.306      17225.86       4952.7835      5090.0493      3903.0379      392.47755      1875.5754      7933.216      -6921.2793     -461.20965      237102.89      61.893581      61.893581      61.893581      0.61999999    -503.31247     -1430.4554     -866.36995    
     15000   7500           312.15402     -666.60959      25127.411      27432.482      10066.775      17365.707      4924.7514      5093.9536      4083.1458      409.86058      1844.4582      7932.6524     -6923.1151     -461.20965      237102.89      61.893581      61.893581      61.893581      0.61999999    -439.42203     -390.00549     -1170.4013    
     16000   8000           311.50233     -327.60889      26406.192      27539.032      10045.758      17493.273      5058.7239      5107.1018      3999.1225      401.36421      1905.6954      7943.428      -6922.1622     -461.20965      237102.89      61.893581      61.893581      61.893581      0.61999999    -189.57329     -261.80762     -531.44576    
     17000   8500           316.70378     -282.95524      26793.887      27772.319      10213.502      17558.817      5035.4403      5220.9422      4048.5832      404.15587      1840.0816      7931.8557     -6922.2422     -461.20965      237102.89      61.893581      61.893581      61.893581      0.61999999    -482.87917      228.97271     -594.95925    
     18000   9000           316.16481     -386.53309      26337.467      27674.061      10196.12       17477.941      4940.5139      5211.554       4093.7958      400.65913      1814.0909      7941.01       -6923.6829     -461.20965      237102.89      61.893581      61.893581      61.893581      0.61999999    -624.48006     -142.48767     -392.63152    
     19000   9500           319.15669     -340.12029      26452.858      27628.961      10292.607      17336.354      5024.5499      5151.8685      3938.1493      399.62162      1804.6958      7939.8125     -6922.3433     -461.20965      237102.89      61.893581      61.893581      61.893581      0.61999999    -333.76896      173.23407     -859.82599    
     20000   10000          322.28752      22.208015      27962.929      27886.136      10393.574      17492.562      5068.4032      5193.8603      3942.8377      398.0396       1868.8723      7940.0159     -6919.4665     -461.20965      237102.89      61.893581      61.893581      61.893581      0.61999999     319.92517     -168.15401     -85.14711     
     21000   10500          315.37066     -1197.7218      23594.436      27736.041      10170.509      17565.532      4961.22        5184.6083      4191.8296      406.51806      1817.4739      7932.5375     -6928.6557     -461.20965      237102.89      61.893581      61.893581      61.893581      0.61999999    -1439.6376     -1023.676      -1129.8517    
     22000   11000          324.50695     -369.42996      26761.519      28038.972      10465.149      17573.823      5100.6394      5169.8694      4031.4042      419.08591      1843.365       7935.497      -6926.0381     -461.20965      237102.89      61.893581      61.893581      61.893581      0.61999999    -215.86476     -139.84378     -752.58134    
     23000   11500          321.54735      474.21925      29521.451      27881.647      10369.704      17511.943      5045.2375      5274.9995      3921.4728      390.41183      1866.8541      7939.7041     -6926.7364     -461.20965      237102.89      61.893581      61.893581      61.893581      0.61999999    -199.19548      283.50136      1338.3519    
     24000   12000          324.07926     -343.9393       26892.969      28082.278      10451.356      17630.921      5161.2527      5173.1845      4050.6904      411.13334      1821.4334      7940.3801     -6927.1531     -461.20965      237102.89      61.893581      61.893581      61.893581      0.61999999    -916.30576     -359.22428      243.71214    
     25000   12500          318.82552     -1157.6031      24000.626      28003.504      10281.927      17721.577      5149.4974      5220.0735      4176.8269      408.51944      1742.7464      7947.6446     -6923.7308     -461.20965      237102.89      61.893581      61.893581      61.893581      0.61999999    -788.77325     -1037.046      -1646.9899    
     26000   13000          320.76789     -990.02056      24435.948      27859.342      10344.567      17514.775      5126.3294      5224.4179      4032.5916      403.99059      1719.8873      7932.5833     -6925.0249     -461.20965      237102.89      61.893581      61.893581      61.893581      0.61999999    -1008.7381     -740.34489     -1220.9787    
     27000   13500          329.64271     -779.25334      25502.95       28197.532      10630.774      17566.757      4983.6638      5214.8959      4167.5458      423.41167      1766.4968      7932.6386     -6921.8953     -461.20965      237102.89      61.893581      61.893581      61.893581      0.61999999    -1142.1321     -754.10301     -441.52496    
     28000   14000          327.73612     -661.65951      25914.983      28202.937      10569.288      17633.649      5081.5801      5300.0403      4078.2411      411.72072      1741.1016      7947.4699     -6926.5045     -461.20965      237102.89      61.893581      61.893581      61.893581      0.61999999    -881.36657     -1134.1661      30.554193    
     29000   14500          327.78324     -439.30566      26806.757      28325.833      10570.807      17755.026      5189.074       5284.5465      4092.3909      406.91008      1771.9186      7939.2587     -6929.0728     -461.20965      237102.89      61.893581      61.893581      61.893581      0.61999999    -437.90454     -211.48        -668.53243    
     30000   15000          328.38154     -811.88615      25493.535      28300.958      10590.102      17710.855      5181.4592      5280.5423      4131.0625      415.69351      1697.9276      7932.4492     -6928.2789     -461.20965      237102.89      61.893581      61.893581      61.893581      0.61999999     176.13615     -1326.1617     -1285.6329    
     31000   15500          329.10329     -726.97593      25829.298      28343.11       10613.378      17729.731      5191.1844      5290.397       4110.1161      407.17523      1722.1942      7935.8139     -6927.1494     -461.20965      237102.89      61.893581      61.893581      61.893581      0.61999999    -663.43905     -1343.7877     -173.70102    
     32000   16000          331.94647     -577.32035      26389.399      28385.716      10705.069      17680.647      5086.6802      5357.4969      4099.1123      403.70872      1710.5954      7951.3675     -6928.3136     -461.20965      237102.89      61.893581      61.893581      61.893581      0.61999999    -317.42208     -559.86875     -854.67021    
     33000   16500          329.65648      98.947192      28516.008      28173.858      10631.218      17542.64       5194.4253      5274.5273      3956.0553      402.95094      1712.1415      7930.2941     -6927.7548     -461.20965      237102.89      61.893581      61.893581      61.893581      0.61999999     290.00554      381.71147     -374.87543    
     34000   17000          330.49606     -53.665692      28288.363      28473.934      10658.294      17815.64       5297.8621      5275.3704      4086.5353      421.00015      1709.3859      7950.4409     -6924.9552     -461.20965      237102.89      61.893581      61.893581      61.893581      0.61999999    -624.82387     -436.34613      900.17293    
     35000   17500          336.49874     -340.62277      27434.469      28612.309      10851.877      17760.432      5159.1897      5322.4889      4122.6533      413.56047      1733.4719      7936.8934     -6927.8253     -461.20965      237102.89      61.893581      61.893581      61.893581      0.61999999    -15.5272       -81.035589     -925.30551    
     36000   18000          335.56698     -1240.3697      24370.896      28659.974      10821.828      17838.145      5165.4491      5358.414       4278.9115      417.49385      1618.1299      7929.7449     -6929.9979     -461.20965      237102.89      61.893581      61.893581      61.893581      0.61999999    -1579.9528     -738.9954      -1402.161     
     37000   18500          334.48368     -497.2959       26935.665      28655.266      10786.893      17868.373      5294.0384      5327.2288      4171.238       421.50698      1657.9928      7924.6296     -6928.2615     -461.20965      237102.89      61.893581      61.893581      61.893581      0.61999999    -211.82968     -174.09229     -1105.9657    
     38000   19000          340.16645      38.891527      29009.19       28874.707      10970.158      17904.549      5283.8765      5315.5785      4213.7993      434.90691      1650.1592      7934.7845     -6928.5562     -461.20965      237102.89      61.893581      61.893581      61.893581      0.61999999     518.32899      458.88927     -860.54367    
     39000   19500          337.18914     -833.17159      25853.149      28734.175      10874.142      17860.033      5213.1169      5291.2769      4238.9489      432.81041      1690.5349      7924.8615     -6931.517      -461.20965      237102.89      61.893581      61.893581      61.893581      0.61999999    -701.63828     -781.42686     -1016.4496    
     40000   20000          336.27736     -914.66685      25629.432      28792.26       10844.738      17947.523      5202.8836      5358.3143      4282.3254      432.79266      1675.207       7925.0337     -6929.0338     -461.20965      237102.89      61.893581      61.893581      61.893581      0.61999999    -1153.9371     -769.95042     -820.11299    
     41000   20500          344.03578     -491.48627      27292.559      28992.07       11094.942      17897.129      5315.9392      5433.1275      4092.0908      427.05882      1626.8231      7932.2943     -6930.2052     -461.20965      237102.89      61.893581      61.893581      61.893581      0.61999999    -951.84869     -493.01245     -29.597652    
     42000   21000          338.88084     -478.04915      27151.895      28804.943      10928.698      17876.244      5288.1021      5357.8281      4203.3737      427.31033      1599.6915      7931.3133     -6931.3745     -461.20965      237102.89      61.893581      61.893581      61.893581      0.61999999    -125.26655     -219.92312     -1088.9578    
     43000   21500          344.1528       65.245795      29394.971      29169.357      11098.716      18070.641      5342.6018      5421.6923      4199.6308      432.4004       1679.3182      7929.7026     -6934.7048     -461.20965      237102.89      61.893581      61.893581      61.893581      0.61999999    -98.11604       237.38177      56.471657    
     44000   22000          343.928        5.6872964      29041.027      29021.36       11091.466      17929.894      5307.943       5445.2913      4069.57        420.26366      1692.7612      7927.4655     -6933.4004     -461.20965      237102.89      61.893581      61.893581      61.893581      0.61999999     303.30704     -499.74535      213.5002     
     45000   22500          344.09442      108.72425      29608.996      29233.038      11096.833      18136.205      5354.9276      5466.528       4202.3938      429.2616       1668.087       7947.5644     -6932.5571     -461.20965      237102.89      61.893581      61.893581      61.893581      0.61999999    -225.16672      177.09621      374.24325    
     46000   23000          339.57126     -717.47953      26653.75       29134.725      10950.964      18183.761      5375.5497      5427.8219      4211.8152      432.69692      1734.8482      7933.6082     -6932.5794     -461.20965      237102.89      61.893581      61.893581      61.893581      0.61999999    -813.18194     -771.22533     -568.03131    
     47000   23500          344.64793     -679.62583      26811.236      29161.316      11114.683      18046.632      5407.8946      5357.3596      4202.9077      439.58775      1634.9667      7931.8294     -6927.9135     -461.20965      237102.89      61.893581      61.893581      61.893581      0.61999999    -239.35781     -642.44721     -1157.0725    
     48000   24000          343.19627     -526.02315      27314.949      29133.886      11067.868      18066.018      5385.4294      5405.9203      4188.9122      415.34755      1668.4193      7931.671      -6929.6823     -461.20965      237102.89      61.893581      61.893581      61.893581      0.61999999     99.057901     -954.4811      -722.64625    
     49000   24500          344.62624     -60.03724       29088.495      29296.098      11113.984      18182.114      5441.6228      5406.8689      4187.1119      434.11382      1709.2623      7932.4706     -6929.3367     -461.20965      237102.89      61.893581      61.893581      61.893581      0.61999999    -325.88137      202.5925      -56.82285     
     50000   25000          350.17662      334.52043      30656.757      29500.018      11292.98       18207.038      5425.4668      5487.1849      4100.9333      421.61822      1751.0005      7948.5622     -6927.7277     -461.20965      237102.89      61.893581      61.893581      61.893581      0.61999999     753.56363      48.502685      201.49498    
     51000   25500          343.89421     -475.28312      27532.731      29176.214      11090.376      18085.837      5340.6644      5351.8347      4262.4473      422.61649      1697.6232      7940.1367     -6929.4854     -461.20965      237102.89      61.893581      61.893581      61.893581      0.61999999    -138.5237      -934.84057     -352.48508    
     52000   26000          353.66041     -813.54705      26829.231      29642.398      11405.33       18237.068      5387.4051      5466.6705      4293.3151      429.15686      1648.4395      7942.0062     -6929.9257     -461.20965      237102.89      61.893581      61.893581      61.893581      0.61999999    -909.80837     -559.11475     -971.71804    
     53000   26500          349.85209     -394.09475      28089.924      29452.665      11282.514      18170.151      5372.2436      5579.7921      4165.605       426.29172      1620.468       7934.5553     -6928.805      -461.20965      237102.89      61.893581      61.893581      61.893581      0.61999999    -497.45753     -576.31896     -108.50775    
     54000   27000          350.63586      161.66085      30208.182      29649.175      11307.79       18341.384      5421.8589      5559.4481      4263.4972      442.43685      1654.6217      7932.6033     -6933.0816     -461.20965      237102.89      61.893581      61.893581      61.893581      0.61999999    -39.128334      88.405277      435.70562    
     55000   27500          352.60747     -209.94095      28940.442      29666.398      11371.374      18295.024      5330.6522      5547.4182      4323.2972      433.30552      1660.915       7929.0887     -6929.6528     -461.20965      237102.89      61.893581      61.893581      61.893581      0.61999999    -199.2108      -271.03971     -159.57233    
     56000   28000          354.70881     -617.71229      27772.757      29908.745      11439.141      18469.605      5507.5255      5546.3489      4294.3039      448.90384      1658.4344      7946.0709     -6931.9825     -461.20965      237102.89      61.893581      61.893581      61.893581      0.61999999    -432.27226     -922.33267     -498.53194    
     57000   28500          353.01871     -438.22431      28193.036      29708.373      11384.636      18323.737      5484.2665      5522.1047      4240.4796      447.61136      1628.1681      7935.6638     -6934.5569     -461.20965      237102.89      61.893581      61.893581      61.893581      0.61999999    -1062.2659      350.89098     -603.29796    
     58000   29000          353.93589     -1256.9321      25387.101      29733.449      11414.214      18319.235      5447.7941      5538.2811      4364.1463      449.53209      1511.5546      7939.1464     -6931.2198     -461.20965      237102.89      61.893581      61.893581      61.893581      0.61999999    -936.79866     -1304.0011     -1529.9966    
     59000   29500          350.36823     -199.00592      28897.7        29585.843      11299.16       18286.683      5507.7005      5546.285       4267.0615      440.58161      1521.5997      7936.0386     -6932.5839     -461.20965      237102.89      61.893581      61.893581      61.893581      0.61999999     72.001055     -822.09343      153.07461    
     60000   30000          352.2015      -885.05091      26734.676      29795.095      11358.282      18436.814      5528.8401      5667.8013      4252.0708      446.85583      1541.4152      7934.1459     -6934.3154     -461.20965      237102.89      61.893581      61.893581      61.893581      0.61999999    -1018.6428     -836.43011     -800.07987    
     61000   30500          359.49466     -1275.1503      25668.807      30078.152      11593.481      18484.671      5548.1693      5578.981       4347.8058      441.45092      1560.5256      7938.8381     -6931.0997     -461.20965      237102.89      61.893581      61.893581      61.893581      0.61999999    -1704.3627     -1171.2664     -949.82186    
     62000   31000          358.12604     -841.54291      27053.14       29963.113      11549.344      18413.769      5438.3373      5658.8764      4317.3293      457.64604      1532.627       7939.7608     -6930.8078     -461.20965      237102.89      61.893581      61.893581      61.893581      0.61999999    -1262.0092     -598.28865     -664.33091    
     63000   31500          366.90857     -187.82931      29599.422      30248.917      11832.575      18416.342      5545.4198      5670.9177      4151.4086      443.50848      1595.5754      7941.8364     -6932.3246     -461.20965      237102.89      61.893581      61.893581      61.893581      0.61999999    -402.26387      464.59483     -625.81889    
     64000   32000          363.0922       476.04386      31770.208      30124.095      11709.5        18414.595      5661.8729      5624.9268      4135.5609      438.67271      1548.9393      7937.1927     -6932.5701     -461.20965      237102.89      61.893581      61.893581      61.893581      0.61999999    -110.88231      553.79923      985.21465    
     65000   32500          362.25822     -154.68462      29535.288      30070.172      11682.604      18387.568      5531.9982      5637.1543      4309.7067      441.56148      1464.2299      7936.4951     -6933.5779     -461.20965      237102.89      61.893581      61.893581      61.893581      0.61999999    -1179.6607      61.859198      653.74763    
     66000   33000          365.36804     -285.75764      29487.435      30475.557      11782.894      18692.663      5636.2981      5674.0546      4365.4211      459.73801      1551.331       7938.5796     -6932.7593     -461.20965      237102.89      61.893581      61.893581      61.893581      0.61999999    -426.95222     -79.914336     -350.40637    
     67000   33500          369.46211     -267.00451      29495.466      30418.742      11914.925      18503.817      5656.1528      5520.7648      4286.0469      439.93022      1587.3632      7947.0931     -6933.5345     -461.20965      237102.89      61.893581      61.893581      61.893581      0.61999999     333.86263     -1195.2356      60.35947     
     68000   34000          361.28987     -372.43727      28871.146      30158.998      11651.376      18507.622      5682.8131      5602.4385      4296.2101      453.5499       1467.069       7935.8041     -6930.2628     -461.20965      237102.89      61.893581      61.893581      61.893581      0.61999999    -220.12004     -340.80924     -556.38254    
     69000   34500          363.41259     -561.08008      28337.33       30277.49       11719.832      18557.658      5590.1871      5590.0814      4363.5573      449.85967      1543.9078      7945.5622     -6925.4973     -461.20965      237102.89      61.893581      61.893581      61.893581      0.61999999    -1111.3109     -916.9987       345.06933    
     70000   35000          374.63198     -570.18636      28754.191      30725.84       12081.651      18644.19       5692.7978      5723.8982      4245.5806      452.43614      1504.5155      7952.808      -6927.8467     -461.20965      237102.89      61.893581      61.893581      61.893581      0.61999999    -135.79236     -1699.8326      125.06582    
     71000   35500          370.34564     -414.82528      29236.129      30670.555      11943.419      18727.136      5655.5148      5688.5564      4345.324       448.33978      1584.3662      7941.361      -6936.3265     -461.20965      237102.89      61.893581      61.893581      61.893581      0.61999999    -226.58446     -980.08951     -37.801879    
     72000   36000          373.87617     -351.88057      29462.742      30679.511      12057.276      18622.234      5585.4118      5605.1486      4402.1193      449.29203      1573.1349      7937.3219     -6930.1941     -461.20965      237102.89      61.893581      61.893581      61.893581      0.61999999    -1184.5582      408.84057     -279.92409    
     73000   36500          370.12738     -101.14874      30264.693      30614.456      11936.38       18678.076      5697.7196      5589.2261      4270.959       439.5341       1659.4558      7951.8536     -6930.6724     -461.20965      237102.89      61.893581      61.893581      61.893581      0.61999999    -716.14683      109.12982      303.5708     
     74000   37000          368.47468     -462.22157      29054.465      30652.782      11883.082      18769.7        5656.7208      5674.4285      4401.6778      463.98235      1559.8253      7944.146      -6931.0804     -461.20965      237102.89      61.893581      61.893581      61.893581      0.61999999    -1144.5297     -805.64752      563.51248    
     75000   37500          371.19399     -336.63417      29655.794      30819.842      11970.777      18849.065      5636.0532      5721.0097      4446.1175      456.52196      1584.0491      7940.2092     -6934.896      -461.20965      237102.89      61.893581      61.893581      61.893581      0.61999999    -383.80105     -524.29243     -101.80902    
     76000   38000          374.20498      85.684116      31047.928      30751.641      12067.88       18683.761      5520.5243      5716.9978      4343.0819      475.75771      1619.077       7944.6062     -6936.2842     -461.20965      237102.89      61.893581      61.893581      61.893581      0.61999999     655.1424      -795.32494      397.2349     
     77000   38500          372.79784      622.31467      32948.571      30796.668      12022.501      18774.167      5650.9273      5735.354       4360.5901      468.93784      1554.7643      7942.0249     -6938.4312     -461.20965      237102.89      61.893581      61.893581      61.893581      0.61999999     507.04817      586.98622      772.90961    
     78000   39000          372.65028     -118.25153      30712.428      31121.33       12017.742      19103.588      5773.2054      5722.5843      4469.8048      481.17221      1650.8618      7943.7606     -6937.8012     -461.20965      237102.89      61.893581      61.893581      61.893581      0.61999999    -1017.3372      779.23563     -116.65298    
     79000   39500          369.12789     -1578.9667      25321.887      30781.8        11904.147      18877.653      5515.6406      5691.1892      4651.8482      464.25579      1560.0335      7930.3602     -6935.6747     -461.20965      237102.89      61.893581      61.893581      61.893581      0.61999999    -1610.4426     -1585.9177     -1540.5398    
     80000   40000          377.25002      89.03502       31431.561      31123.686      12166.081      18957.606      5714.158       5735.1952      4415.2025      468.42635      1632.8089      7928.6691     -6936.8544     -461.20965      237102.89      61.893581      61.893581      61.893581      0.61999999     367.61706     -200.47002      99.958019    
     81000   40500          373.98457     -190.55804      30387.115      31046.046      12060.772      18985.274      5759.6004      5795.4009      4385.4083      463.49852      1568.7998      7945.5471     -6932.9806     -461.20965      237102.89      61.893581      61.893581      61.893581      0.61999999    -215.63782     -726.93982      370.90354    
     82000   41000          376.46046     -1083.9322      27542.741      31290.872      12140.618      19150.255      5781.7096      5743.8319      4576.2261      480.29918      1562.1347      7936.5008     -6930.4477     -461.20965      237102.89      61.893581      61.893581      61.893581      0.61999999    -1211.6433     -1558.9927     -481.16072    
     83000   41500          375.31949     -68.594738      30921.757      31158.951      12103.822      19055.129      5805.8299      5773.3111      4420.196       473.09495      1557.9539      7952.0107     -6927.2674     -461.20965      237102.89      61.893581      61.893581      61.893581      0.61999999    -1054.1985      678.5176       169.89668    
     84000   42000          378.48333      197.12903      31836.994      31155.341      12205.854      18949.486      5822.2429      5759.6247      4315.0235      449.01173      1591.2522      7945.902      -6933.5705     -461.20965      237102.89      61.893581      61.893581      61.893581      0.61999999    -315.86402      222.76133      684.4898     
     85000   42500          381.04145     -650.77298      29114.68       31364.989      12288.352      19076.637      5853.7697      5736.704       4484.3558      475.62353      1526.3439      7932.4758     -6932.6358     -461.20965      237102.89      61.893581      61.893581      61.893581      0.61999999    -653.11087     -751.96218     -547.24588    
     86000   43000          386.9723      -384.96643      30386.322      31717.499      12479.618      19237.88       5877.7771      5771.2302      4447.5912      491.77374      1655.7207      7928.6018     -6934.8144     -461.20965      237102.89      61.893581      61.893581      61.893581      0.61999999    -272.67818     -232.64412     -649.57698    
     87000   43500          383.46481     -572.42799      29468.351      31447.752      12366.504      19081.248      5687.7087      5858.5087      4465.2011      481.31918      1592.2662      7929.4589     -6933.215      -461.20965      237102.89      61.893581      61.893581      61.893581      0.61999999    -951.66894     -602.65567     -162.95936    
     88000   44000          386.06435     -257.72949      30811.932      31703.136      12450.337      19252.798      5877.2401      5908.4408      4374.4054      481.16252      1604.1669      7938.6277     -6931.2452     -461.20965      237102.89      61.893581      61.893581      61.893581      0.61999999     205.24364     -589.40686     -389.02526    
     89000   44500          386.7917       294.83269      32640.164      31620.661      12473.794      19146.867      5823.8577      5731.7511      4443.4515      476.65126      1674.7778      7932.4407     -6936.0627     -461.20965      237102.89      61.893581      61.893581      61.893581      0.61999999     224.49318      51.782579      608.2223     
     90000   45000          381.48197     -911.00544      28454.936      31605.103      12302.559      19302.545      5858.519       5842.5482      4529.7108      476.9863       1587.1337      7941.0998     -6933.453      -461.20965      237102.89      61.893581      61.893581      61.893581      0.61999999    -711.21342     -1382.6523     -639.15063    
     91000   45500          385.09151     -232.16125      30931.037      31733.828      12418.964      19314.864      5979.3257      5766.4745      4506.8767      464.28929      1576.0673      7953.2236     -6931.3929     -461.20965      237102.89      61.893581      61.893581      61.893581      0.61999999    -297.08634      543.50731     -942.90473    
     92000   46000          386.96673     -734.96478      29214.242      31755.679      12479.439      19276.24       5854.5413      5812.0263      4535.5913      479.64882      1581.4253      7944.8626     -6931.8558     -461.20965      237102.89      61.893581      61.893581      61.893581      0.61999999    -450.07851     -749.43795     -1005.3779    
     93000   46500          389.63645     -535.24915      30028.897      31879.736      12565.535      19314.201      5891.4395      5937.9979      4407.5639      463.85321      1600.1091      7949.5663     -6936.3292     -461.20965      237102.89      61.893581      61.893581      61.893581      0.61999999    -584.78049     -74.679584     -946.28738    
     94000   47000          395.35963     -278.40457      31093.865      32056.561      12750.104      19306.456      5974.8881      5889.9846      4363.6982      464.79261      1619.1783      7931.4339     -6937.5197     -461.20965      237102.89      61.893581      61.893581      61.893581      0.61999999     56.041878     -571.59764     -319.65795    
     95000   47500          386.52839     -861.70175      28871.247      31850.927      12465.303      19385.625      5843.8465      5928.3785      4562.4065      483.52357      1552.9942      7948.2438     -6933.7685     -461.20965      237102.89      61.893581      61.893581      61.893581      0.61999999    -412.00209     -972.69953     -1200.4036    
     96000   48000          390.51955      2.8870302      32036.916      32026.933      12594.015      19432.918      5994.7         5864.4218      4435.5641      489.39406      1621.9606      7959.1396     -6932.2621     -461.20965      237102.89      61.893581      61.893581      61.893581      0.61999999     608.91683     -197.13659     -403.11915    
     97000   48500          384.94139     -496.61355      30046.273      31763.515      12414.123      19349.392      5920.7748      5870.2569      4466.1743      484.66889      1590.8753      7953.5435     -6936.9015     -461.20965      237102.89      61.893581      61.893581      61.893581      0.61999999    -170.2329      -362.60458     -957.00317    
     98000   49000          397.81811     -345.68963      31094.676      32290.037      12829.389      19460.648      5920.9689      5914.0942      4565.3645      495.3111       1555.2369      7947.8028     -6938.1304     -461.20965      237102.89      61.893581      61.893581      61.893581      0.61999999    -166.37824      47.813412     -918.50405    
     99000   49500          391.58717     -200.98551      31545.809      32240.797      12628.445      19612.353      6044.1986      5829.9546      4651.2872      513.43154      1583.8161      7931.7238     -6942.0594     -461.20965      237102.89      61.893581      61.893581      61.893581      0.61999999    -159.31057     -25.607396     -418.03856    
    100000   50000          388.48866     -69.836864      31685.955      31927.444      12528.52       19398.924      5853.2396      5877.5522      4566.0983      503.49323      1596.4104      7943.5994     -6941.4691     -461.20965      237102.89      61.893581      61.893581      61.893581      0.61999999    -19.71113      -262.85853      73.059062    
    101000   50500          397.0213      -915.52368      29126.956      32292.748      12803.692      19489.055      5880.0802      5902.2437      4711.5656      519.17992      1484.098       7936.3363     -6944.4486     -461.20965      237102.89      61.893581      61.893581      61.893581      0.61999999    -1530.249      -510.15687     -706.16515    
    102000   51000          397.4365      -351.40819      31284.319      32499.454      12817.082      19682.372      5942.2978      5984.1054      4666.1377      497.66839      1588.3875      7946.8904     -6943.1151     -461.20965      237102.89      61.893581      61.893581      61.893581      0.61999999    -85.964069     -822.45183     -145.80867    
    103000   51500          397.70043     -216.2748       31662.04       32409.897      12825.594      19584.303      6022.565       5844.9246      4669.1194      505.99405      1529.326       7949.7698     -6937.396      -461.20965      237102.89      61.893581      61.893581      61.893581      0.61999999     62.363027     -417.95103     -293.23638    
    104000   52000          402.51398     -969.73033      29335.386      32688.619      12980.828      19707.791      6024.9116      5897.2395      4720.5146      490.75017      1563.1096      7946.5862     -6935.3211     -461.20965      237102.89      61.893581      61.893581      61.893581      0.61999999    -1398.3117     -1220.9796     -289.89964    
    105000   52500          402.8437       71.682149      33028.878      32781.008      12991.461      19789.547      6043.326       5942.069       4679.9249      511.57254      1612.3771      7939.0906     -6938.813      -461.20965      237102.89      61.893581      61.893581      61.893581      0.61999999    -336.61376      856.58688     -304.92668    
    106000   53000          400.63609     -86.126897      32390.116      32687.934      12920.267      19767.667      6079.6023      5972.5859      4594.4708      513.62354      1607.1168      7943.563      -6943.2951     -461.20965      237102.89      61.893581      61.893581      61.893581      0.61999999     676.83573     -407.09976     -528.11667    
    107000   53500          400.20939     -1181.9174      28638.777      32725.732      12906.506      19819.226      6049.9539      5931.2593      4821.5956      499.68765      1498.3562      7954.6203     -6936.2473     -461.20965      237102.89      61.893581      61.893581      61.893581      0.61999999    -1140.2905     -1484.4949     -920.96674    
    108000   54000          407.21157      203.96371      33530.856      32825.57       13132.322      19693.247      6129.479       5999.7221      4460.9169      520.84499      1590.2083      7935.3466     -6943.2705     -461.20965      237102.89      61.893581      61.893581      61.893581      0.61999999     309.05705     -3.7518622      306.58594    
    109000   54500          400.63538     -803.90605      29778.022      32557.851      12920.244      19637.607      5959.1272      6015.1353      4650.9237      513.20131      1492.7458      7947.756      -6941.2829     -461.20965      237102.89      61.893581      61.893581      61.893581      0.61999999    -808.70782     -1207.3154     -395.69496    
    110000   55000          404.26704      493.22892      34660.35       32954.813      13037.363      19917.45       6054.865       6062.4964      4684.2663      510.6639       1611.6295      7935.2211     -6941.6925     -461.20965      237102.89      61.893581      61.893581      61.893581      0.61999999     597.86892      581.65841      300.15944    
    111000   55500          407.85681      399.88259      34528.286      33145.531      13153.131      19992.4        6178.1838      6198.2454      4486.6151      510.09656      1629.9728      7931.3037     -6942.017      -461.20965      237102.89      61.893581      61.893581      61.893581      0.61999999    -392.67932      466.5201       1125.807     
    112000   56000          413.56081     -321.36235      32004.974      33116.214      13337.081      19779.132      5968.9985      5983.3132      4788.5761      521.617        1545.8677      7915.376      -6944.6161     -461.20965      237102.89      61.893581      61.893581      61.893581      0.61999999    -383.60559     -647.70596      67.224487    
    113000   56500          407.05384     -466.60442      31470.175      33083.648      13127.236      19956.412      6159.4796      6085.0972      4748.9753      510.36461      1440.8079      7957.2077     -6945.5203     -461.20965      237102.89      61.893581      61.893581      61.893581      0.61999999     65.786263     -858.39745     -607.20206    
    114000   57000          410.11616     -607.90823      31105.374      33207.461      13225.994      19981.468      6034.6213      6058.6917      4806.3245      524.91529      1558.2388      7940.3542     -6941.6783     -461.20965      237102.89      61.893581      61.893581      61.893581      0.61999999    -778.65571     -236.20793     -808.86104    
    115000   57500          402.00276     -377.39984      31703.84       33008.852      12964.341      20044.511      6212.4064      6017.7338      4700.5853      513.73239      1600.0715      7942.3779     -6942.3966     -461.20965      237102.89      61.893581      61.893581      61.893581      0.61999999    -1119.1666     -390.26223      377.22927    
    116000   58000          415.59108     -890.08312      30456.081      33533.901      13402.556      20131.345      5962.5587      6184.7541      4873.5347      522.36647      1577.9327      7950.3        -6940.1017     -461.20965      237102.89      61.893581      61.893581      61.893581      0.61999999    -900.07046     -1182.4619     -587.71699    
    117000   58500          413.75854     -484.13487      31645.763      33319.854      13343.458      19976.396      6169.6064      5885.6056      4803.8576      523.35581      1595.8811      7938.8583     -6940.7691     -461.20965      237102.89      61.893581      61.893581      61.893581      0.61999999    -707.56353     -414.66861     -330.17248    
    118000   59000          406.22176     -375.86015      31801.614      33101.301      13100.402      20000.9        6241.8097      6038.9396      4589.6481      523.39135      1606.8133      7941.2191     -6940.9214     -461.20965      237102.89      61.893581      61.893581      61.893581      0.61999999    -763.74418     -55.02928      -308.80698    
    119000   59500          415.38867      132.3174       33935.58       33478.039      13396.029      20082.011      6230.4248      6040.7942      4673.4102      505.94231      1619.0893      7951.5449     -6939.1952     -461.20965      237102.89      61.893581      61.893581      61.893581      0.61999999     82.691979      701.32444     -387.06423    
    120000   60000          411.22091     -740.14041      30642.274      33201.608      13261.621      19939.987      6184.9376      6108.9258      4569.5616      517.87533      1559.9228      7941.2149     -6942.4514     -461.20965      237102.89      61.893581      61.893581      61.893581      0.61999999    -831.4742      -690.80872     -698.1383     
    121000   60500          416.34453     -709.81635      31082.788      33537.264      13426.855      20110.409      6258.4978      5993.6844      4816.4174      510.4254       1533.6833      7940.8466     -6943.1459     -461.20965      237102.89      61.893581      61.893581      61.893581      0.61999999    -353.99625     -1278.5094     -496.94339    
    122000   61000          420.63043     -1470.5777      28311.147      33396.261      13565.072      19831.189      6066.8584      6054.09        4691.8801      496.00234      1515.9344      7942.4733     -6936.0496     -461.20965      237102.89      61.893581      61.893581      61.893581      0.61999999    -1561.5852     -680.66179     -2169.4861    
    123000   61500          423.01368     -217.5658       33017.709      33770.03       13641.931      20128.1        6341.4534      6118.9176      4602.4868      519.66507      1543.2933      7940.8509     -6938.5672     -461.20965      237102.89      61.893581      61.893581      61.893581      0.61999999    -965.32547      440.98351     -128.35542    
    124000   62000          420.64814     -498.77391      31901.887      33626.598      13565.643      20060.955      6181.7599      6065.307       4766.5669      530.6209       1523.2366      7934.8143     -6941.3507     -461.20965      237102.89      61.893581      61.893581      61.893581      0.61999999    -192.88167     -536.18372     -767.25635    
    125000   62500          423.24415     -268.4539       32941.098      33869.386      13649.363      20220.022      6209.1054      6184.7304      4729.7024      522.21883      1576.4429      7939.3138     -6941.4913     -461.20965      237102.89      61.893581      61.893581      61.893581      0.61999999    -310.49702      266.51413     -761.37881    
    126000   63000          414.62965     -93.765676      33134.875      33459.108      13371.551      20087.557      6243.9146      6097.4246      4692.8482      525.11486      1519.1319      7951.8038     -6942.6812     -461.20965      237102.89      61.893581      61.893581      61.893581      0.61999999    -366.32489      312.97018     -227.94232    
    127000   63500          426.86527      149.86648      34667.444      34149.22       13766.142      20383.078      6266.4231      6147.1507      4816.8414      537.72618      1607.5544      7949.0674     -6941.6849     -461.20965      237102.89      61.893581      61.893581      61.893581      0.61999999     578.05296     -662.44286      533.98935    
    128000   64000          422.98145     -256.82804      33001.81       33889.897      13640.891      20249.006      6404.4592      6111.9309      4677.0249      522.89702      1539.845       7938.0502     -6945.2015     -461.20965      237102.89      61.893581      61.893581      61.893581      0.61999999     387.57625      364.75075     -1522.8111    
    129000   64500          428.82514     -340.88669      32954.001      34132.754      13829.347      20303.408      6386.8866      6076.7907      4729.5551      511.07872      1592.7004      7951.4254     -6945.0292     -461.20965      237102.89      61.893581      61.893581      61.893581      0.61999999    -758.89322     -309.79034      46.023493    
    130000   65000          423.62641     -698.88468      31828.248      34244.923      13661.691      20583.232      6349.4312      6249.0293      4829.7471      546.33651      1605.8383      7948.9442     -6946.0946     -461.20965      237102.89      61.893581      61.893581      61.893581      0.61999999    -176.12213     -795.96753     -1124.5644    
    131000   65500          426.65181     -526.22355      32285.22       34104.85       13759.258      20345.592      6420.4003      6135.6261      4666.4188      530.87637      1602.9697      7931.872      -6942.5716     -461.20965      237102.89      61.893581      61.893581      61.893581      0.61999999    -192.89475     -742.697       -643.07891    
    132000   66000          428.80706      129.1494       34821.772      34375.185      13828.764      20546.422      6443.9676      6231.6839      4685.3535      545.31988      1651.5075      7934.4305     -6945.8411     -461.20965      237102.89      61.893581      61.893581      61.893581      0.61999999     476.21904      76.741447     -165.51229    
    133000   66500          430.77838     -393.77267      33020.904      34382.532      13892.338      20490.194      6356.7941      6189.4349      4839.7585      546.04017      1574.2103      7929.2446     -6945.2881     -461.20965      237102.89      61.893581      61.893581      61.893581      0.61999999    -725.94599      51.2974       -506.66942    
    134000   67000          427.21892      6.8816886      34200.504      34176.708      13777.547      20399.161      6159.3603      6143.2272      4919.4432      545.84866      1629.0076      7942.8954     -6940.6218     -461.20965      237102.89      61.893581      61.893581      61.893581      0.61999999    -385.96205     -110.28442      516.89154    
    135000   67500          431.0906       549.04839      36263.337      34364.782      13902.406      20462.375      6425.9507      6161.7128      4731.4811      550.25816      1585.683       7946.0411     -6938.7514     -461.20965      237102.89      61.893581      61.893581      61.893581      0.61999999     316.8238       1092.4231      237.89831    
    136000   68000          426.96437      311.39675      35317.332      34240.552      13769.338      20471.214      6497.2589      6075.5269      4715.0781      529.30238      1651.6794      7939.2683     -6936.9        -461.20965      237102.89      61.893581      61.893581      61.893581      0.61999999     216.43737      60.916255      656.83661    
    137000   68500          431.22698     -1165.2059      30669.103      34698.271      13906.805      20791.467      6417.1034      6235.8166      4964.7567      541.71643      1607.2566      7958.861      -6934.0439     -461.20965      237102.89      61.893581      61.893581      61.893581      0.61999999    -1190.0742     -676.19374     -1629.3496    
    138000   69000          431.58655      419.39216      35958.344      34508.127      13918.4        20589.727      6440.5606      6223.3773      4722.0952      531.09887      1678.7457      7935.604      -6941.7548     -461.20965      237102.89      61.893581      61.893581      61.893581      0.61999999     525.27011      500.24636      232.66002    
    139000   69500          432.43632     -646.04387      32450.268      34684.225      13945.805      20738.42       6553.6355      6233.5968      4907.4939      551.50255      1515.7727      7922.7451     -6946.3269     -461.20965      237102.89      61.893581      61.893581      61.893581      0.61999999    -1090.2701     -95.998775     -751.86277    
    140000   70000          432.65024     -227.68887      33754.21       34541.536      13952.704      20588.833      6403.1394      6260.9785      4862.9994      533.47761      1548.8376      7926.5264     -6947.1262     -461.20965      237102.89      61.893581      61.893581      61.893581      0.61999999    -841.09554      295.01734     -136.98842    
    141000   70500          435.65302     -671.3939       32571.661      34893.276      14049.542      20843.734      6486.1783      6402.7635      4853.7323      535.61026      1563.1466      7946.9164     -6944.6135     -461.20965      237102.89      61.893581      61.893581      61.893581      0.61999999    -922.33029     -601.46937     -490.38203    
    142000   71000          431.48462     -14.792198      34702.181      34753.331      13915.113      20838.218      6446.8547      6380.6371      4819.0721      539.23023      1658.118       7935.5521     -6941.2462     -461.20965      237102.89      61.893581      61.893581      61.893581      0.61999999     466.35981     -232.96845     -277.76795    
    143000   71500          438.69591     -1261.4283      30636.992      34998.888      14147.673      20851.215      6418.1141      6404.5918      4906.8074      536.79238      1571.3114      7950.3497     -6936.7519     -461.20965      237102.89      61.893581      61.893581      61.893581      0.61999999    -1360.3502     -986.61212     -1437.3225    
    144000   72000          433.95181     -366.34685      33634.192      34900.984      13994.678      20906.305      6568.5931      6386.9983      4803.5846      562.20108      1573.3903      7950.1956     -6938.6578     -461.20965      237102.89      61.893581      61.893581      61.893581      0.61999999    -361.99365     -588.0354      -149.01149    
    145000   72500          440.51203      576.04503      37053.192      35061.285      14206.242      20855.043      6494.6719      6297.704       4818.2628      540.44702      1711.9116      7936.3173     -6944.2715     -461.20965      237102.89      61.893581      61.893581      61.893581      0.61999999     507.47933      515.43094      705.22481    
    146000   73000          444.25434      611.19358      37458.073      35344.625      14326.929      21017.696      6624.0011      6308.1158      4828.3858      550.12342      1708.2056      7940.9251     -6942.0602     -461.20965      237102.89      61.893581      61.893581      61.893581      0.61999999     14.421232      852.46149      966.69801    
    147000   73500          443.66126      341.84013      36414.448      35232.398      14307.802      20924.596      6397.4838      6277.1588      4979.4783      580.12239      1662.9019      7963.6515     -6936.2012     -461.20965      237102.89      61.893581      61.893581      61.893581      0.61999999    -103.766        657.83217      471.45423    
    148000   74000          441.29903     -788.08547      32346.455      35071.578      14231.622      20839.956      6495.6997      6284.7222      4889.2535      551.04891      1604.0726      7951.636      -6936.4769     -461.20965      237102.89      61.893581      61.893581      61.893581      0.61999999    -1228.247      -1353.3429      217.33351    
    149000   74500          445.68888      66.0107        35608.244      35379.985      14373.192      21006.793      6472.8136      6343.3944      4925.0173      535.2822       1713.0678      7953.2015     -6935.9835     -461.20965      237102.89      61.893581      61.893581      61.893581      0.61999999    -460.77251      282.53915      376.26545    
    150000   75000          445.36362     -360.76904      34136.716      35384.22       14362.702      21021.517      6534.1789      6483.5805      4896.8617      526.8335       1570.3094      7949.4442     -6939.6909     -461.20965      237102.89      61.893581      61.893581      61.893581      0.61999999    -68.137736     -638.50627     -375.66312    
    151000   75500          451.12193     -8.4390469      35702.53       35731.711      14548.404      21183.307      6681.6593      6465.051       4814.1109      557.17953      1639.7314      7961.7761     -6936.2017     -461.20965      237102.89      61.893581      61.893581      61.893581      0.61999999    -553.17362     -11.886775      539.74325    
    152000   76000          443.54144      396.35824      36723.803      35353.234      14303.938      21049.296      6573.3478      6367.8537      4763.2816      574.74565      1749.4008      7957.4427     -6936.776      -461.20965      237102.89      61.893581      61.893581      61.893581      0.61999999     829.34858      413.82398     -54.097839    
    153000   76500          444.7805      -312.08102      34512.277      35591.423      14343.897      21247.526      6751.1209      6354.4603      4995.4922      548.97561      1573.764       7961.9049     -6938.1921     -461.20965      237102.89      61.893581      61.893581      61.893581      0.61999999     446.73399     -502.53348     -880.44356    
    154000   77000          447.87908     -291.68323      34595.16       35603.773      14443.824      21159.948      6631.6883      6380.058       4949.0362      551.02878      1634.3325      7953.9569     -6940.1523     -461.20965      237102.89      61.893581      61.893581      61.893581      0.61999999    -135.44558     -240.53425     -499.06985    
    155000   77500          445.311       -637.17833      33535.387      35738.688      14361.005      21377.683      6697.7031      6283.3629      5119.4313      580.71552      1687.412       7947.3567     -6938.2989     -461.20965      237102.89      61.893581      61.893581      61.893581      0.61999999    -81.483281     -1482.3156     -347.73609    
    156000   78000          446.33847     -258.05088      34741.876      35634.191      14394.141      21240.05       6624.802       6530.3917      4907.0058      562.74202      1623.1633      7933.9935     -6942.0481     -461.20965      237102.89      61.893581      61.893581      61.893581      0.61999999    -759.23111      269.38942     -284.31095    
[...]
    455000   227500         736.68671      346.63685      56516.647      55318.01       23757.693      31560.317      10025.425      9065.1901      7244.0593      890.97036      3238.9242      8003.1338     -6907.385      -461.20965      237102.89      61.893581      61.893581      61.893581      0.61999999     37.358452      353.70577      648.84633    
    456000   228000         744.11185     -244.09832      55056.105      55900.174      23997.149      31903.025      9995.9915      9208.4579      7503.4287      909.72746      3203.9046      7991.2572     -6909.7427     -461.20965      237102.89      61.893581      61.893581      61.893581      0.61999999     865.57707     -1964.1734      366.30139    
    457000   228500         744.35142     -93.037025      55344.298      55666.011      24004.875      31661.137      10122.38       9225.2662      7265.5052      894.71314      3052.3052      8005.2092     -6904.2417     -461.20965      237102.89      61.893581      61.893581      61.893581      0.61999999    -1097.7539      43.764318      774.87854    
    458000   229000         742.74813      331.80551      56858.239      55710.888      23953.17       31757.718      10093.99       9019.491       7330.3636      936.84056      3262.0279      8017.178      -6902.173      -461.20965      237102.89      61.893581      61.893581      61.893581      0.61999999    -30.77696       438.20164      587.99184    
    459000   229500         747.9485       665.48771      58272.643      55971.452      24120.878      31850.574      10221.78       9090.9602      7196.6082      912.06456      3355.7943      7987.4171     -6914.0512     -461.20965      237102.89      61.893581      61.893581      61.893581      0.61999999     940.42776      227.90226      828.1331     
    460000   230000         746.33261     -1183.576       51456.958      55549.648      24068.767      31480.881      9883.7787      9055.8057      7410.4196      898.24254      3139.7125      7997.8647     -6904.9428     -461.20965      237102.89      61.893581      61.893581      61.893581      0.61999999    -727.87565     -1654.9734     -1167.8789    
    461000   230500         736.11045     -818.61434      52837.994      55668.682      23739.108      31929.574      10035.663      9402.2591      7277.6254      942.69622      3178.9358      7999.3195     -6906.9257     -461.20965      237102.89      61.893581      61.893581      61.893581      0.61999999    -29.279537     -1124.7391     -1301.8244    
    462000   231000         749.72337     -602.97238      53799.101      55884.121      24178.117      31706.004      9900.0802      9318.6847      7308.0176      928.26807      3135.847       8025.0119     -6909.9053     -461.20965      237102.89      61.893581      61.893581      61.893581      0.61999999    -1115.1279      235.73523     -929.52447    
    463000   231500         740.91223     -31.28775       55602.284      55710.474      23893.963      31816.511      10140.61       9197.049       7240.3821      903.15805      3241.6974      8000.0179     -6906.4038     -461.20965      237102.89      61.893581      61.893581      61.893581      0.61999999     434.07564     -1236.4085      708.46961    
    464000   232000         749.69596      1211.2893      60400.462      56211.942      24177.233      32034.709      10183.96       9388.1546      7182.4197      903.79767      3298.8504      7988.8741     -6911.3475     -461.20965      237102.89      61.893581      61.893581      61.893581      0.61999999     2077.2407      383.46995      1173.1573    
    465000   232500         762.8481      -414.71304      55307.496      56741.534      24601.381      32140.153      9933.557       9287.0772      7614.0138      950.08272      3267.2622      7997.1421     -6908.9825     -461.20965      237102.89      61.893581      61.893581      61.893581      0.61999999    -1337.2453      426.36776     -333.26157    
    466000   233000         745.23345     -246.97438      55426.946      56280.96       24033.32       32247.64       10132.342      9180.8808      7639.0178      953.2946       3278.5072      7973.6564     -6910.0588     -461.20965      237102.89      61.893581      61.893581      61.893581      0.61999999     12.898879     -335.03281     -418.7892     
    467000   233500         748.00399     -720.88362      53353.566      55846.311      24122.668      31723.643      9946.5618      9142.1804      7409.5359      916.36528      3223.5084      7992.8438     -6907.3523     -461.20965      237102.89      61.893581      61.893581      61.893581      0.61999999    -293.42281     -1211.1047     -658.12331    
    468000   234000         748.40159     -825.80002      53360.199      56215.735      24135.49       32080.244      10021.995      9108.8394      7650.8126      927.05135      3286.4066      7993.1351     -6907.9952     -461.20965      237102.89      61.893581      61.893581      61.893581      0.61999999    -878.59248     -350.37483     -1248.4327    
    469000   234500         762.15681      177.4559       57670.118      57056.493      24579.088      32477.406      10347.536      9257.3939      7536.7724      923.97879      3325.6293      7989.4228     -6903.3273     -461.20965      237102.89      61.893581      61.893581      61.893581      0.61999999    -116.31369      756.66188     -107.98049    
    470000   235000         749.04685      70.806682      56845.824      56600.981      24156.299      32444.682      10114          9339.0603      7560.0235      940.01543      3412.1011      7985.6383     -6906.157      -461.20965      237102.89      61.893581      61.893581      61.893581      0.61999999     1207.1122     -958.17775     -36.514405    
    471000   235500         748.15881     -956.36801      53042.633      56349.661      24127.661      32222          10365.057      9270.8089      7409.5444      897.08289      3195.2412      7984.5559     -6900.2909     -461.20965      237102.89      61.893581      61.893581      61.893581      0.61999999    -1498.2616     -926.12903     -444.71338    
    472000   236000         757.51104     -549.7088       54847.397      56748.236      24429.264      32318.972      9959.5823      9497.7053      7512.5512      926.84295      3337.7149      7988.8905     -6904.3153     -461.20965      237102.89      61.893581      61.893581      61.893581      0.61999999    -1096.3793     -369.61522     -183.13185    
    473000   236500         760.56224     -646.72889      54729.016      56965.341      24527.664      32437.677      10275.727      9413.8972      7540.9421      941.72634      3159.8862      8009.6082     -6904.1096     -461.20965      237102.89      61.893581      61.893581      61.893581      0.61999999    -740.75371     -742.58047     -456.85249    
    474000   237000         747.72705     -90.065597      56119.104      56430.542      24113.737      32316.805      10132.491      9231.0032      7591.8359      937.55772      3321.7382      8006.4044     -6904.226      -461.20965      237102.89      61.893581      61.893581      61.893581      0.61999999     233.84631      453.63897     -957.68208    
    475000   237500         766.23876     -153.9237       56416.573      56948.826      24710.728      32238.098      9940.8667      9213.6548      7685.357       946.88406      3333.9204      8021.0191     -6903.6037     -461.20965      237102.89      61.893581      61.893581      61.893581      0.61999999    -291.84556     -797.72173      627.79618    
    476000   238000         755.74879      314.05963      57726.262      56640.275      24372.433      32267.842      10221.768      9216.0072      7414.2944      925.37567      3398.5685      8000.4124     -6908.5844     -461.20965      237102.89      61.893581      61.893581      61.893581      0.61999999     563.62463      242.10122      136.45305    
    477000   238500         758.37244     -1259.5732      52785.092      57140.573      24457.044      32683.529      10142.86       9474.2161      7758.2829      972.09616      3245.7223      8001.4169     -6911.0654     -461.20965      237102.89      61.893581      61.893581      61.893581      0.61999999    -1476.972      -715.10825     -1586.6393    
    478000   239000         755.5053      -1018.2832      53216.332      56737.456      24364.58       32372.876      9971.4558      9278.3297      7705.157       926.25404      3397.7184      8000.0113     -6906.0504     -461.20965      237102.89      61.893581      61.893581      61.893581      0.61999999    -1552.7477     -323.58363     -1178.5183    
    479000   239500         759.97502      599.656        59131.528      57057.977      24508.726      32549.25       10150.264      9347.5852      7516.3068      937.08769      3483.5971      8017.3681     -6902.9582     -461.20965      237102.89      61.893581      61.893581      61.893581      0.61999999     501.31628      591.53493      706.11677    
    480000   240000         767.64986     -496.08864      55764.926      57480.352      24756.235      32724.117      10319.113      9430.4373      7557.4171      950.78935      3363.6664      8005.1596     -6902.4656     -461.20965      237102.89      61.893581      61.893581      61.893581      0.61999999    -182.20634     -866.39894     -439.66065    
    481000   240500         761.1159      -1037.6748      53489.763      57077.941      24545.519      32532.422      10250.06       9383.5366      7511.4811      983.88466      3319.4138      7992.2176     -6908.1717     -461.20965      237102.89      61.893581      61.893581      61.893581      0.61999999    -1700.5439     -823.43487     -589.04579    
    482000   241000         756.45067     -116.87497      56735.123      57139.265      24395.068      32744.197      10299.765      9553.9079      7494.7409      943.01475      3372.9464      7987.5717     -6907.749      -461.20965      237102.89      61.893581      61.893581      61.893581      0.61999999    -325.95198     -1222.8151      1198.1422    
    483000   241500         773.11803     -501.06247      55875.589      57608.214      24932.58       32675.634      10242.28       9375.9445      7685.8116      961.93675      3343.8369      7976.2805     -6910.4557     -461.20965      237102.89      61.893581      61.893581      61.893581      0.61999999    -1590.1433      580.51451     -493.55858    
    484000   242000         763.30686     -1024.4101      53477.057      57019.367      24616.176      32403.191      10292.82       9293.2311      7536.3829      916.5018       3261.9016      8002.7906     -6900.4363     -461.20965      237102.89      61.893581      61.893581      61.893581      0.61999999    -1140.7114     -1151.2529     -781.26614    
    485000   242500         764.77697      221.72766      58251.992      57485.279      24663.586      32821.693      10361.357      9462.9647      7567.1713      954.61998      3413.8341      7970.9378     -6909.1918     -461.20965      237102.89      61.893581      61.893581      61.893581      0.61999999     462.10121      230.91573     -27.833957    
    486000   243000         767.0527      -648.01049      55557.643      57798.4        24736.977      33061.423      10619.066      9500.9698      7660.6172      955.79413      3255.7905      7980.0557     -6910.8703     -461.20965      237102.89      61.893581      61.893581      61.893581      0.61999999     204.60589     -338.55113     -1810.0862    
    487000   243500         765.20537     -168.62229      56785.733      57368.812      24677.402      32691.411      10329.113      9432.1343      7603.7416      976.15277      3262.0941      7993.0865     -6904.9114     -461.20965      237102.89      61.893581      61.893581      61.893581      0.61999999    -1311.9182      933.28755     -127.2362     
    488000   244000         777.32894      909.50832      60722.85       57577.859      25068.379      32509.479      10389.411      9250.0926      7417.7134      945.23882      3411.9804      7998.6472     -6903.6043     -461.20965      237102.89      61.893581      61.893581      61.893581      0.61999999     1482.0104      776.24613      470.26845    
    489000   244500         764.67218     -116.72205      57096.056      57499.67       24660.207      32839.463      10452.593      9384.5583      7629.504       966.01025      3328.431       7988.7121     -6910.3455     -461.20965      237102.89      61.893581      61.893581      61.893581      0.61999999    -362.97173      479.52426     -466.71869    
    490000   245000         768.05499     -1539.1221      52557.156      57879.29       24769.3        33109.99       10521.305      9578.0625      7738.8364      965.46043      3221.4428      7987.8031     -6902.9202     -461.20965      237102.89      61.893581      61.893581      61.893581      0.61999999    -1899.4925     -1342.9098     -1374.9642    
    491000   245500         770.57054      349.85434      59412.253      58202.491      24850.425      33352.066      10652.251      9475.2105      7789.233       961.8191       3383.8518      7992.6701     -6902.9703     -461.20965      237102.89      61.893581      61.893581      61.893581      0.61999999     324.15303      432.96915      292.44084    
    492000   246000         781.91064     -1643.3482      52191.371      57873.908      25216.136      32657.772      10255.809      9287.5496      7832.4098      983.97356      3220.2521      7985.3703     -6907.5931     -461.20965      237102.89      61.893581      61.893581      61.893581      0.61999999    -666.27186     -2655.127      -1608.6456    
    493000   246500         784.51747      159.6447       58925.324      58373.288      25300.205      33073.083      10282.739      9586.2039      7700.4321      981.09973      3420.9651      8004.3368     -6902.6934     -461.20965      237102.89      61.893581      61.893581      61.893581      0.61999999     777.31252     -1136.5428      838.16439    
    494000   247000         771.67598      286.77291      59151.239      58159.606      24886.075      33273.531      10764.93       9337.9432      7745.9117      968.07184      3361.5885      7993.799      -6898.7133     -461.20965      237102.89      61.893581      61.893581      61.893581      0.61999999     417.57164     -254.60098      697.34808    
    495000   247500         766.00599     -516.38486      55962.828      57748.437      24703.221      33045.216      10387.85       9594.2103      7705.4789      974.58245      3310.6365      7975.1933     -6902.7354     -461.20965      237102.89      61.893581      61.893581      61.893581      0.61999999    -837.3254      -864.65583      152.82667    
    496000   248000         773.28355     -266.58225      56807.284      57729.1        24937.918      32791.181      10380.581      9387.6925      7578.9855      983.87318      3372.8749      7986.2557     -6899.0808     -461.20965      237102.89      61.893581      61.893581      61.893581      0.61999999     226.73251     -810.63344     -215.84582    
    497000   248500         776.66964     -886.54187      55159.101      58224.676      25047.117      33177.559      10559.319      9538.5223      7720.6014      980.76908      3298.1316      7984.7461     -6904.5298     -461.20965      237102.89      61.893581      61.893581      61.893581      0.61999999    -1419.8372     -1143.9206     -95.867817    
    498000   249000         783.41953     -142.78497      58076.576      58570.313      25264.797      33305.516      10619.753      9588.4837      7706.9099      966.08623      3344.3583      7988.2071     -6908.2828     -461.20965      237102.89      61.893581      61.893581      61.893581      0.61999999    -610.75812     -303.16202      485.56522    
    499000   249500         785.81036     -68.500549      58590.481      58827.35       25341.9        33485.45       10708.484      9479.8612      7879.0869      967.63338      3341.0994      8010.4057     -6901.1208     -461.20965      237102.89      61.893581      61.893581      61.893581      0.61999999    -278.2328       260.33177     -187.60062    
    500000   250000         771.08444      55.267857      57704.633      57513.523      24866.998      32646.524      10327.514      9470.6226      7375.3219      929.52998      3448.1886      7997.7211     -6902.3742     -461.20965      237102.89      61.893581      61.893581      61.893581      0.61999999     263.71868      322.29915     -420.21426    
Loop time of 1725.64 on 1 procs for 500000 steps with 10820 atoms

Performance: 12.517 ns/day, 1.917 hours/ns, 289.748 timesteps/s, 3.135 Matom-step/s
99.9% CPU use with 1 MPI tasks x 1 OpenMP threads

MPI task timing breakdown:
Section |  min time  |  avg time  |  max time  |%varavg| %total
---------------------------------------------------------------
Pair    | 9.6716     | 9.6716     | 9.6716     |   0.0 |  0.56
Bond    | 982.69     | 982.69     | 982.69     |   0.0 | 56.95
Kspace  | 525.18     | 525.18     | 525.18     |   0.0 | 30.43
Neigh   | 87.571     | 87.571     | 87.571     |   0.0 |  5.07
Comm    | 15.142     | 15.142     | 15.142     |   0.0 |  0.88
Output  | 12.36      | 12.36      | 12.36      |   0.0 |  0.72
Modify  | 75.812     | 75.812     | 75.812     |   0.0 |  4.39
Other   |            | 17.21      |            |       |  1.00

Nlocal:          10820 ave       10820 max       10820 min
Histogram: 1 0 0 0 0 0 0 0 0 0
Nghost:          17673 ave       17673 max       17673 min
Histogram: 1 0 0 0 0 0 0 0 0 0
Neighs:              0 ave           0 max           0 min
Histogram: 1 0 0 0 0 0 0 0 0 0
FullNghs:   3.7775e+06 ave  3.7775e+06 max  3.7775e+06 min
Histogram: 1 0 0 0 0 0 0 0 0 0

Total # of neighbors = 3777502
Ave neighs/atom = 349.12218
Ave special neighs/atom = 5.7689464
Neighbor list builds = 15153
Dangerous builds = 0

# --- Cleanup ---
unfix nvt_fix

undump dump_nvt

# --- Write Output ---
write_dump all custom nvt_softheat_last.dump id type mol x y z xu yu zu vx vy vz modify sort id
write_data /home/arz2/PolyJarvis/data/PSU2/lammps/equil/nvt_softheat/nvt_softheat_out.data
System init for write_data ...
PPPM Kokkos initialization ...
  using 12-bit tables for long-range coulomb
  G vector (1/distance) = 0.29223061
  grid = 40 40 40
  stencil order = 5
  estimated absolute RMS force accuracy = 0.00034742445
  estimated relative force accuracy = 1.0462584e-06
  using double precision cuFFT
  3d grid and FFT values/proc = 103823 64000
Generated 28 of 28 mixed pair_coeff terms from sixthpower/sixthpower mixing rule

print "STAGE COMPLETE: NVT T=300.0->780.0K steps=500000"
STAGE COMPLETE: NVT T=300.0->780.0K steps=500000
quit
 17.21      |            |       |  1.00

Nlocal:          10820 ave       10820 max       10820 min
Histogram: 1 0 0 0 0 0 0 0 0 0
Nghost:          17673 ave       17673 max       17673 min
Histogram: 1 0 0 0 0 0 0 0 0 0
Neighs:              0 ave           0 max           0 min
Histogram: 1 0 0 0 0 0 0 0 0 0
FullNghs:   3.7775e+06 ave  3.7775e+06 max  3.7775e+06 min
Histogram: 1 0 0 0 0 0 0 0 0 0

Total # of neighbors = 3777502
Ave neighs/atom = 349.12218
Ave special neighs/atom = 5.7689464
Neighbor list builds = 15153
Dangerous builds = 0
System init for write_data ...
PPPM Kokkos initialization ...
  using 12-bit tables for long-range coulomb
  G vector (1/distance) = 0.29223061
  grid = 40 40 40
  stencil order = 5
  estimated absolute RMS force accuracy = 0.00034742445
  estimated relative force accuracy = 1.0462584e-06
  using double precision cuFFT
  3d grid and FFT values/proc = 103823 64000
Generated 28 of 28 mixed pair_coeff terms from sixthpower/sixthpower mixing rule
STAGE COMPLETE: NVT T=300.0->780.0K steps=500000
