units real
atom_style full
boundary p p p

# --- Force Field Styles ---
pair_style lj/cut 14.0
dielectric 1.000000
bond_style harmonic
angle_style harmonic
dihedral_style multi/harmonic
improper_style none
special_bonds lj 0 0 0
pair_modify mix arithmetic tail yes
neighbor 2.0 bin
neigh_modify delay 0 every 1 check yes
neigh_modify one 4000
package gpu 1 neigh yes

read_data /home/arz2/PolyJarvis/data/cis-PBD2/lammps/equil/npt_compress/npt_compress_out.data
Reading data file ...
  orthogonal box = (8.2726878 8.2726878 8.2726878) to (59.90569 59.90569 59.90569)
  1 by 1 by 1 MPI processor grid
  reading atoms ...
  8040 atoms
  reading velocities ...
  8040 velocities
  scanning bonds ...
  2 = max bonds/atom
  scanning angles ...
  1 = max angles/atom
  scanning dihedrals ...
  2 = max dihedrals/atom
  orthogonal box = (8.2726878 8.2726878 8.2726878) to (59.90569 59.90569 59.90569)
  1 by 1 by 1 MPI processor grid
  reading bonds ...
  8020 bonds
  reading angles ...
  8000 angles
  reading dihedrals ...
  7980 dihedrals
Finding 1-2 1-3 1-4 neighbors ...
  special bond factors lj:    0        0        0       
  special bond factors coul:  0        0        0       
     2 = max # of 1-2 neighbors
     2 = max # of 1-3 neighbors
     4 = max # of 1-4 neighbors
     6 = max # of special neighbors
  special bonds CPU = 0.002 seconds
  read_data CPU = 0.114 seconds
include /home/arz2/PolyJarvis/data/cis-PBD2/lammps/cell/emc_build.params
# LAMMPS parameters created by EMC v9.4.4, build Jul 31 2025 20:33:44

# Variables

variable	seed		index	734812
variable	ntotal		index	8040
variable	fshape		index	1
variable	output		index	emc_build
variable	field		index	trappe/2014/trappe-ua
variable	location1	index	/home/arz2/emc/field/
variable	nav		index	0.6022141179
variable	temperature	index	300
variable	radius		index	5
variable	nrelax		index	100
variable	weight_nonbond	index	0.0001
variable	weight_bond	index	0.0001
variable	weight_focus	index	1
variable	cutoff		index	14
variable	charge_cutoff	index	14
variable	kappa		index	4
variable	density1	index	0.57
variable	lprevious	index	0
variable	lphase		index	68.1783775471
variable	f_poly		index	20
variable	chem_repeat	index	*C/C=C\C*
variable	chem_cap	index	*C
variable	lg_repeat	index	4
variable	lg_cap		index	1
variable	norm_poly	index	100
variable	l_poly		index	402
variable	mg_repeat	index	54.0914
variable	mg_cap		index	15.0347
variable	m_poly		index	5439.2094
variable	n_poly		index	20
variable	mtotal		index	108784.188
variable	nphase1		index	8040
variable	mphase1		index	108784.188
variable	vphase1		index	316912.949994
variable	lbox		index	68.1783775471
variable	lphase1		index	68.1783775471
variable	lxx		index	68.1783775471
variable	lyy		index	68.1783775471
variable	lzz		index	68.1783775471
variable	lzy		index	0
variable	lzx		index	0
variable	lyx		index	0
variable	vtotal		index	316912.949994
variable	nl_poly		index	20

# Types

variable	type_c3h	index	1
variable	type_c4h2	index	2
variable	type_c4h3	index	3

variable	type_bond_c3h_c3h index	1
variable	type_bond_c3h_c4h2 index	2
variable	type_bond_c4h2_c4h2 index	3
variable	type_bond_c4h2_c4h3 index	4

variable	type_angle_c3h_c3h_c4h2 index	1
variable	type_angle_c3h_c4h2_c4h2 index	2
variable	type_angle_c3h_c4h2_c4h3 index	3

# Clusters

variable	n0_poly		index	1
variable	n1_poly		index	20
variable	nl_poly		index	20

# Flags

variable	flag_charged	index	0

# Masses

mass		1    13.01890  # c3h
mass		2    14.02680  # c4h2
mass		3    15.03470  # c4h3

# Potentials

pair_modify	mix arithmetic tail yes
special_bonds	lj 0 0 0 coul 0 0 0.5
Finding 1-2 1-3 1-4 neighbors ...
  special bond factors lj:    0        0        0       
  special bond factors coul:  0        0        0.5     
     2 = max # of 1-2 neighbors
     2 = max # of 1-3 neighbors
     4 = max # of 1-4 neighbors
     6 = max # of special neighbors
  special bonds CPU = 0.002 seconds

# Pair Coeffs

pair_coeff	1 1    0.09340    3.71000  # c3h,c3h
pair_coeff	2 2    0.09141    3.95000  # c4h2,c4h2
pair_coeff	3 3    0.19475    3.75000  # c4h3,c4h3

# Bond Coeffs

bond_coeff	1  529.99987    1.33000  # c3h,c3h
bond_coeff	2  260.00013    1.54000  # c3h,c4h2
bond_coeff	3  260.00013    1.54000  # c4h2,c4h2
bond_coeff	4  260.00013    1.54000  # c4h2,c4h3

# Angle Coeffs

angle_coeff	1   69.96954  119.70000  # c3h,c3h,c4h2
angle_coeff	2   62.10020  114.00000  # c3h,c4h2,c4h2
angle_coeff	3   62.10020  114.00000  # c3h,c4h2,c4h3

# Dihedral Coeffs

dihedral_coeff	1    1.91086    1.85422    0.43627   -2.24348    0.00000  # c3h,c3h,c4h2,c4h2
dihedral_coeff	2    1.91086    1.85422    0.43627   -2.24348    0.00000  # c3h,c3h,c4h2,c4h3
dihedral_coeff	3    2.00702   -4.01203    0.27102    6.29006    0.00000  # c3h,c4h2,c4h2,c3h
dihedral_coeff	4   25.63496    0.99360  -25.63496   -0.99360    0.00000  # c4h2,c3h,c3h,c4h2


# --- Thermo Output ---
thermo_style custom step time temp press enthalpy etotal ke pe ebond eangle edihed eimp evdwl ecoul elong etail vol lx ly lz density pxx pyy pzz
thermo_modify flush yes
thermo 1000

# --- Trajectory ---
dump dump_npt all custom 1000 npt_pppm.dump id type mol x y z ix iy iz vx vy vz

# --- Restart Checkpointing ---
restart 10000 npt_1.rst npt_2.rst

# --- Initial Velocities (optional) ---
# Velocities read from data file

# --- SHAKE Constraints ---
# SHAKE disabled (TraPPE-UA united-atom)

# --- NPT Thermostat + Barostat (Nose-Hoover) ---
# T_damp = 100.0 fs  (heat bath coupling)
# P_damp = 1000.0 fs  (pressure bath coupling, ~10x T_damp typical)
# Ramp: T=480.0->480.0K  P=50000.0->1.0atm
timestep 2.0
fix npt_fix all npt temp 480.0 480.0 100.0 iso 50000.0 1.0 1000.0

run 500000

CITE-CITE-CITE-CITE-CITE-CITE-CITE-CITE-CITE-CITE-CITE-CITE-CITE

Your simulation uses code contributions which should be cited:

- GPU package (short-range, long-range and three-body potentials): doi:10.1016/j.cpc.2010.12.021, doi:10.1016/j.cpc.2011.10.012, doi:10.1016/j.cpc.2013.08.002, doi:10.1016/j.commatsci.2014.10.068, doi:10.1016/j.cpc.2016.10.020, doi:10.3233/APC200086

@Article{Brown11,
 author = {W. M. Brown and P. Wang and S. J. Plimpton and A. N. Tharrington},
 title = {Implementing Molecular Dynamics on Hybrid High Performance Computers---Short Range Forces},
 journal = {Comput.\ Phys.\ Commun.},
 year =    2011,
 volume =  182,
 pages =   {898--911},
 doi =     {10.1016/j.cpc.2010.12.021}
}

@Article{Brown12,
 author = {W. M. Brown and A. Kohlmeyer and S. J. Plimpton and A. N. Tharrington},
 title = {Implementing Molecular Dynamics on Hybrid High Performance Computers - Particle-Particle Particle-Mesh},
 journal = {Comput.\ Phys.\ Commun.},
 year =    2012,
 volume =  183,
 doi =     {10.1016/j.cpc.2011.10.012},
 pages =   {449--459}
}

@Article{Brown13,
 author = {W. M. Brown and Y. Masako},
 title = {Implementing Molecular Dynamics on Hybrid High Performance Computers---Three-Body Potentials},
 journal = {Comput.\ Phys.\ Commun.},
 year =    2013,
 volume =  184,
 pages =   {2785--2793},
 doi =     {10.1016/j.cpc.2013.08.002},
}

@Article{Trung15,
 author = {T. D. Nguyen and S. J. Plimpton},
 title = {Accelerating Dissipative Particle Dynamics Simulations for Soft Matter Systems},
 journal = {Comput.\ Mater.\ Sci.},
 year =    2015,
 doi =     {10.1016/j.commatsci.2014.10.068},
 volume =  100,
 pages =   {173--180}
}

@Article{Trung17,
 author = {T. D. Nguyen},
 title = {{GPU}-Accelerated {T}ersoff Potentials for Massively Parallel
    Molecular Dynamics Simulations},
 journal = {Comput.\ Phys.\ Commun.},
 year =    2017,
 doi =     {10.1016/j.cpc.2016.10.020},
 volume =  212,
 pages =   {113--122}
}

@inproceedings{Nikolskiy19,
 author = {V. Nikolskiy and V. Stegailov},
 title = {{GPU} Acceleration of Four-Site Water Models in {LAMMPS}},
 booktitle = {Proceedings of the International Conference on Parallel
    Computing (ParCo 2019), Prague, Czech Republic},
 doi =     {10.3233/APC200086},
 year =    2019
}

CITE-CITE-CITE-CITE-CITE-CITE-CITE-CITE-CITE-CITE-CITE-CITE-CITE

Generated 3 of 3 mixed pair_coeff terms from arithmetic mixing rule
Per MPI rank memory allocation (min/avg/max) = 22.67 | 22.67 | 22.67 Mbytes
   Step          Time           Temp          Press         Enthalpy        TotEng         KinEng         PotEng         E_bond        E_angle        E_dihed        E_impro         E_vdwl         E_coul         E_long         E_tail         Volume           Lx             Ly             Lz          Density          Pxx            Pyy            Pzz      
         0   0              478.00003      49808.571      127076.01      27084.738      11454.186      15630.552      4430.4341      4434.0026      10573.006      0             -3806.8907      0              0             -422.25865      137651.87      51.633002      51.633002      51.633002      1.3122987      49253.613      50409.985      49762.116    
      1000   2000           484.10737      49622.75       126880.65      27428.744      11600.535      15828.209      4488.51        4564.0466      10596.022      0             -3820.3693      0              0             -422.96485      137422.04      51.60425       51.60425       51.60425       1.3144935      50247.298      49785.498      48835.452    
      2000   4000           479.2388       49716.392      126969.32      27353.72       11483.871      15869.849      4566.2006      4426.0445      10530.917      0             -3653.3132      0              0             -423.06669      137388.96      51.600109      51.600109      51.600109      1.31481        48668.069      50882.68       49598.426    
      3000   6000           483.19592      49452.087      126581.75      27429.777      11578.694      15851.082      4545.3175      4379.6136      10565.837      0             -3639.6855      0              0             -422.78526      137480.42      51.611556      51.611556      51.611556      1.3139353      49233.884      48939.138      50183.239    
      4000   8000           479.00765      48685.798      124833.1       27096.512      11478.332      15618.18       4499.7246      4472.4432      10494.599      0             -3848.5862      0              0             -422.2617       137650.88      51.632878      51.632878      51.632878      1.3123082      48241.867      49282.487      48533.04     
      5000   10000          476.25797      50113.114      127829.24      27352.67       11412.442      15940.228      4612.9131      4442.792       10587.431      0             -3702.9081      0              0             -422.78851      137479.36      51.611423      51.611423      51.611423      1.3139454      50605.799      50377.914      49355.628    
      6000   12000          473.86156      48930.591      125204.14      27023.022      11355.018      15668.005      4535.3543      4437.7389      10476.175      0             -3781.2636      0              0             -422.46337      137585.17      51.62466       51.62466       51.62466       1.312935       48216.512      49680.607      48894.655    
      7000   14000          481.22851      48498.498      124609.09      27123.204      11531.55       15591.655      4570.5427      4385.358       10520.761      0             -3885.0067      0              0             -421.71897      137828.03      51.655018      51.655018      51.655018      1.3106215      50050.476      48475.241      46969.777    
      8000   16000          482.4913       48532.245      124767.98      27270.949      11561.81       15709.139      4400.9763      4423.7088      10628.139      0             -3743.6842      0              0             -421.96416      137747.94      51.645011      51.645011      51.645011      1.3113835      49073.058      48501.64       48022.038    
      9000   18000          480.11473      49308.132      126370.5       27375.954      11504.861      15871.093      4685.7785      4461.1795      10446.813      0             -3722.6772      0              0             -422.22493      137662.87      51.634376      51.634376      51.634376      1.3121939      49023.644      49310.769      49589.985    
     10000   20000          475.11679      48226.852      123883.91      26904.728      11385.096      15519.632      4455.2847      4520.5476      10396.579      0             -3852.7795      0              0             -421.54795      137883.95      51.662002      51.662002      51.662002      1.31009        48483.494      48596.215      47600.847    
     11000   22000          482.12035      48319.59       124284.12      27273.63       11552.921      15720.709      4635.0473      4449.7982      10480.277      0             -3844.4135      0              0             -422.22226      137663.74      51.634485      51.634485      51.634485      1.3121856      48593.094      48545.563      47820.114    
     12000   24000          481.04341      48264.296      124332.68      27214.06       11527.114      15686.945      4599.1967      4483.5556      10524.959      0             -3920.7656      0              0             -421.26954      137975.07      51.673381      51.673381      51.673381      1.3092247      48609.807      48469.636      47713.444    
     13000   26000          476.0911       48835.946      125293.7       27021.495      11408.443      15613.052      4671.1395      4336.499       10518.756      0             -3913.343       0              0             -421.2554       137979.7       51.673959      51.673959      51.673959      1.3091808      48581.358      49148.279      48778.201    
     14000   28000          477.44914      48754.119      125217.41      27299.287      11440.986      15858.301      4625.2643      4384.9885      10626.571      0             -3778.5226      0              0             -422.07033      137713.29      51.64068       51.64068       51.64068       1.3117135      48423.84       49831.229      48007.288    
     15000   30000          475.28894      47932.353      123261.26      26787.487      11389.221      15398.266      4490.4844      4339.8834      10560.474      0             -3992.5761      0              0             -421.16867      138008.12      51.677506      51.677506      51.677506      1.3089113      48524.198      48422.288      46850.573    
     16000   32000          480.72659      48544.861      124859.3       27203.264      11519.522      15683.742      4544.5655      4457.5564      10626.51       0             -3944.89        0              0             -421.38664      137936.73      51.668594      51.668594      51.668594      1.3095887      48673.55       48909.4        48051.635    
     17000   34000          480.07863      48403.458      124598.4       27094.038      11503.996      15590.042      4587.2257      4455.3544      10532.233      0             -3984.7711      0              0             -420.81277      138124.83      51.69207       51.69207       51.69207       1.3078052      48426.596      48494.116      48289.664    
     18000   36000          477.88042      47033.101      121746.51      26835.303      11451.32       15383.983      4516.1442      4550.1357      10498.292      0             -4180.5893      0              0             -420.07101      138368.74      51.722478      51.722478      51.722478      1.3054999      47331.172      46957.461      46810.671    
     19000   38000          473.50411      47579.914      122822.52      26900.777      11346.452      15554.325      4609.9481      4486.6005      10592.631      0             -4134.8549      0              0             -420.47788      138234.84      51.70579       51.70579       51.70579       1.3067644      46628.345      47872.864      48238.533    
     20000   40000          479.2868       48414.053      124548.38      26964.563      11485.021      15479.542      4548.6575      4475.3557      10482.988      0             -4027.4596      0              0             -420.56217      138207.14      51.702335      51.702335      51.702335      1.3070264      48260.9        48454.288      48526.971    
     21000   42000          483.67195      47190.876      122109.3       27059.635      11590.101      15469.534      4452.6213      4511.4029      10608.807      0             -4103.2967      0              0             -420.86619      138107.3       51.689883      51.689883      51.689883      1.3079712      46424.261      48222.262      46926.106    
     22000   44000          486.80328      47186.228      122106.69      26947.118      11665.137      15281.982      4391.9252      4437.5795      10591.251      0             -4138.7744      0              0             -420.33869      138280.62      51.711496      51.711496      51.711496      1.3063319      45950.22       48251.56       47356.904    
     23000   46000          479.32915      47406.845      122540.59      26845.684      11486.036      15359.648      4431.1701      4484.6277      10558.037      0             -4114.1869      0              0             -419.94151      138411.41      51.727794      51.727794      51.727794      1.3050975      46573.335      47888.611      47758.588    
     24000   48000          474.25632      47048.591      121401.49      26445.32       11364.477      15080.843      4430.4694      4339.2877      10517.854      0             -4206.7681      0              0             -420.01039      138388.71      51.724967      51.724967      51.724967      1.3053115      47422.191      46648.942      47074.64     
     25000   50000          475.87387      46670.668      121114.33      26885.098      11403.238      15481.86       4532.2995      4500.4852      10524.767      0             -4075.6921      0              0             -419.85077      138441.32      51.73152       51.73152       51.73152       1.3048155      46789.473      47060.678      46161.854    
     26000   52000          476.04607      46771.485      121199.72      26639.421      11407.364      15232.056      4559.9953      4395.8442      10560.134      0             -4283.9174      0              0             -419.28459      138628.27      51.754795      51.754795      51.754795      1.3030559      47102.246      46033.6        47178.607    
     27000   54000          479.09334      45974.894      119404.27      26471.128      11480.385      14990.742      4376.2275      4291.1795      10464.823      0             -4141.4874      0              0             -419.3597       138603.43      51.751705      51.751705      51.751705      1.3032893      45879.303      45901.451      46143.928    
     28000   56000          474.18143      47020.185      121600.96      26587.029      11362.683      15224.346      4519.2738      4346.1616      10582.909      0             -4223.998       0              0             -419.50162      138556.54      51.745868      51.745868      51.745868      1.3037304      46297.36       47844.131      46919.065    
     29000   58000          484.42367      47690.258      123137.33      26937.784      11608.115      15329.669      4573.019       4399.8968      10531.167      0             -4174.4143      0              0             -420.23597      138314.42      51.71571       51.71571       51.71571       1.3060126      47778.103      48630.943      46661.729    
     30000   60000          485.9702       47518.036      122706.35      26824.159      11645.174      15178.986      4556.2618      4396.4686      10446.545      0             -4220.2891      0              0             -420.1043       138357.77      51.721112      51.721112      51.721112      1.3056034      47062.971      47781.305      47709.831    
     31000   62000          482.0257       46284.463      120056.22      26476.78       11550.653      14926.128      4428.9314      4321.9806      10503.563      0             -4328.3476      0              0             -419.26765      138633.87      51.755492      51.755492      51.755492      1.3030032      46025.46       47021.455      45806.474    
     32000   64000          482.35066      46781.337      121153.17      26622.805      11558.44       15064.365      4508.1956      4259.0426      10543.705      0             -4246.5782      0              0             -419.50572      138555.19      51.7457        51.7457        51.7457        1.3037431      46986.019      47779.829      45578.163    
     33000   66000          475.22408      46282.141      120131.17      26482.369      11387.667      15094.702      4494.7351      4305.4512      10527.382      0             -4232.8666      0              0             -418.93612      138743.57      51.769141      51.769141      51.769141      1.3019729      45488.079      47742.967      45615.377    
     34000   68000          481.87214      46330.747      120350.88      26543.222      11546.973      14996.249      4524.4507      4326.5144      10518.947      0             -4373.6634      0              0             -418.66591      138833.12      51.780276      51.780276      51.780276      1.3011332      46029.595      46669.737      46292.908    
     35000   70000          478.38701      46073.726      120002.31      26766.448      11463.46       15302.989      4520.1949      4464.9281      10560.716      0             -4242.8498      0              0             -418.89667      138756.64      51.770766      51.770766      51.770766      1.3018503      46162.533      46545.665      45512.98     
     36000   72000          477.3447       46779.068      121335.06      26744.636      11438.483      15306.153      4535.7614      4391.5093      10560.723      0             -4181.8413      0              0             -419.21903      138649.94      51.757493      51.757493      51.757493      1.3028521      46079.003      47963.01       46295.19     
     37000   74000          479.88848      46509.892      120792.89      26595.031      11499.439      15095.592      4518.8042      4439.4179      10529.738      0             -4392.3685      0              0             -418.54376      138873.64      51.785313      51.785313      51.785313      1.3007535      46539.025      47065.693      45924.958    
     38000   76000          484.36895      45080.344      117839.36      26442.297      11606.803      14835.493      4439.5677      4353.8061      10457.462      0             -4415.3429      0              0             -418.11095      139017.39      51.803175      51.803175      51.803175      1.2994085      45201.57       44760.365      45279.096    
     39000   78000          481.67562      45796.583      119456.65      26387.843      11542.264      14845.579      4522.0902      4293.4646      10630.053      0             -4600.0286      0              0             -417.12434      139346.21      51.843986      51.843986      51.843986      1.2963423      44220.969      47694.796      45473.986    
     40000   80000          474.50185      46556.797      120626.32      26456.242      11370.361      15085.881      4525.881       4400.0733      10507.337      0             -4347.4097      0              0             -419.08948      138692.8       51.762826      51.762826      51.762826      1.3024495      46919.693      47566.078      45184.62     
     41000   82000          479.93677      45180.175      118026.93      26447.752      11500.596      14947.155      4483.263       4391.6076      10533.597      0             -4461.3122      0              0             -418.20359      138986.6       51.79935       51.79935       51.79935       1.2996964      45515.391      45513.448      44511.686    
     42000   84000          480.68441      45653.004      118885.15      26327.594      11518.512      14809.082      4453.9279      4371.7912      10463.403      0             -4480.0394      0              0             -418.11336      139016.59      51.803076      51.803076      51.803076      1.2994159      46010.651      44766.161      46182.201    
     43000   86000          481.3985       45403.684      118565.05      26471.713      11535.623      14936.09       4538.9331      4265.608       10585.04       0             -4453.4914      0              0             -417.92607      139078.89      51.810813      51.810813      51.810813      1.2988339      45582.869      45748.666      44879.516    
     44000   88000          478.02203      46670.974      120930.67      26411.222      11454.714      14956.508      4463.0214      4379.5801      10532.544      0             -4418.6369      0              0             -418.56438      138866.8       51.784462      51.784462      51.784462      1.3008176      46367.89       47633.933      46011.098    
     45000   90000          484.75956      45864.596      119614.36      26393.303      11616.163      14777.14       4570.9855      4310.766       10597.814      0             -4702.4254      0              0             -417.06152      139367.2       51.846589      51.846589      51.846589      1.296147       46031.813      46191.569      45370.407    
     46000   92000          483.13048      45768.983      119359.94      26487.081      11577.126      14909.955      4528.2705      4355.947       10488.789      0             -4463.0512      0              0             -417.75246      139136.69      51.817989      51.817989      51.817989      1.2982943      45929.312      46541.684      44835.953    
     47000   94000          471.09798      45347.584      117905.68      25868.403      11288.795      14579.609      4311.2865      4320.6994      10515.399      0             -4567.7758      0              0             -417.66394      139166.18      51.82165       51.82165       51.82165       1.2980192      45819.737      45981.503      44241.512    
     48000   96000          485.01119      45898.12       119608.99      26429.249      11622.193      14807.056      4430.2678      4329.6178      10499.723      0             -4452.5534      0              0             -417.55142      139203.68      51.826304      51.826304      51.826304      1.2976696      46427.674      45888.22       45378.467    
     49000   98000          480.35327      44896.947      117490.72      26155.294      11510.577      14644.717      4466.6068      4305.6786      10472.949      0             -4600.5179      0              0             -416.691        139491.12      51.861951      51.861951      51.861951      1.2949955      44525.31       44749.551      45415.98     
     50000   100000         486.29073      45668.405      119130.82      26443.323      11652.854      14790.469      4513.0184      4386.8995      10501.931      0             -4611.3804      0              0             -417.66807      139164.8       51.821479      51.821479      51.821479      1.2980321      46073.132      44658.259      46273.825    
     51000   102000         479.38148      44897.48       117522.28      26202.613      11487.29       14715.323      4560.197       4314.15        10510.203      0             -4669.2269      0              0             -416.76788      139465.39      51.858762      51.858762      51.858762      1.2952345      45729.617      43805.521      45157.302    
     52000   104000         486.05967      45789.502      119277.8       26338.679      11647.318      14691.362      4423.8759      4289.1532      10568.341      0             -4590.008       0              0             -417.64177      139173.57      51.822567      51.822567      51.822567      1.2979504      45906.671      45714.973      45746.861    
     53000   106000         477.75496      44736.972      117264.4       26301.874      11448.314      14853.559      4544.32        4394.9492      10476.246      0             -4561.9561      0              0             -416.90838      139418.39      51.852936      51.852936      51.852936      1.2956711      46301.925      44757.573      43151.418    
     54000   108000         483.34812      44950.23       117594.16      26302.693      11582.341      14720.352      4496.6048      4274.9195      10562.784      0             -4613.9566      0              0             -417.38641      139258.71      51.833133      51.833133      51.833133      1.2971567      45544.487      44767.382      44538.822    
     55000   110000         474.90338      43211.75       113970.26      25961.174      11379.982      14581.191      4365.0542      4390.9937      10494.658      0             -4669.514       0              0             -416.20849      139652.83      51.881985      51.881985      51.881985      1.293496       43841.116      42779.861      43014.275    
     56000   112000         474.98976      43150.327      113669.82      25538.618      11382.052      14156.566      4288.2674      4294.4134      10439.683      0             -4865.7975      0              0             -415.041        140045.67      51.930587      51.930587      51.930587      1.2898676      42612.486      43573.592      43264.903    
     57000   114000         474.06066      44896.971      117384.8       26121.583      11359.788      14761.795      4472.0347      4342.5279      10518.9        0             -4571.6681      0              0             -417.02091      139380.77      51.848272      51.848272      51.848272      1.2960208      44704.416      45029.345      44957.151    
     58000   116000         481.68989      42876.901      113401.58      25898.032      11542.606      14355.426      4372.6964      4368.767       10429.879      0             -4815.916       0              0             -415.36923      139935         51.916904      51.916904      51.916904      1.2908877      42653.006      43080.618      42897.079    
     59000   118000         484.0621       44012.008      115732.77      26063.741      11599.45       14464.29       4455.1049      4318.2053      10393.798      0             -4702.8176      0              0             -416.06895      139699.67      51.887784      51.887784      51.887784      1.2930623      44489.455      43587.675      43958.893    
     60000   120000         481.20648      43581.26       114810.3       25966.67       11531.022      14435.648      4317.7413      4300.0701      10469.675      0             -4651.8385      0              0             -415.8245       139781.8       51.89795       51.89795       51.89795       1.2923026      43651.286      44159.219      42933.276    
     61000   122000         483.3661       45001.799      117834.87      26366.827      11582.772      14784.054      4514.586       4337.8865      10554.87       0             -4623.288       0              0             -417.05857      139368.18      51.846711      51.846711      51.846711      1.2961379      44897.684      44831.828      45275.884    
     62000   124000         478.74179      43962.738      115637.6       26008.496      11471.961      14536.535      4442.9393      4360.5612      10366.057      0             -4633.0224      0              0             -415.7883       139793.96      51.899456      51.899456      51.899456      1.2921901      43957.478      44691.252      43239.483    
     63000   126000         479.10212      43927.781      115773.35      26016.798      11480.596      14536.202      4440.988       4382.527       10447.45       0             -4734.763       0              0             -414.86775      140104.15      51.937814      51.937814      51.937814      1.2893292      44505.549      44263.407      43014.388    
     64000   128000         477.26554      42552.556      112990.95      26093.388      11436.586      14656.801      4434.2183      4405.1332      10470.778      0             -4653.3281      0              0             -415.10181      140025.15      51.928051      51.928051      51.928051      1.2900566      44440.483      41855.774      41361.411    
     65000   130000         479.29203      43034.452      113956.38      26037.487      11485.146      14552.341      4474.8597      4363.0464      10516.21       0             -4801.775       0              0             -414.92597      140084.49      51.935385      51.935385      51.935385      1.2895102      43646.394      42467.055      42989.907    
     66000   132000         479.9866       44385.282      116557.97      26064.611      11501.79       14562.821      4517.3111      4340.527       10491.591      0             -4786.6087      0              0             -415.77544      139798.29      51.899991      51.899991      51.899991      1.2921501      45515.815      44263.573      43376.458    
     67000   134000         477.15954      43445.622      114699.97      26151.038      11434.046      14716.992      4531.132       4374.761       10569.3        0             -4758.2014      0              0             -415.9099       139753.09      51.894398      51.894398      51.894398      1.292568       44022.962      43188.346      43125.558    
     68000   136000         477.81594      43356.423      114525.55      25951.061      11449.775      14501.286      4440.5212      4348.7493      10510.197      0             -4798.181       0              0             -414.93622      140081.03      51.934957      51.934957      51.934957      1.289542       44147.842      43459.532      42461.896    
     69000   138000         482.14087      43096.834      114014.57      26059.235      11553.412      14505.823      4497.2259      4356.3461      10515.626      0             -4863.3745      0              0             -415.3553       139939.7       51.917485      51.917485      51.917485      1.2908444      43006.104      43623.809      42660.588    
     70000   140000         472.26385      43340.43       114405.49      26053.979      11316.732      14737.247      4478.1442      4372.1106      10574.005      0             -4687.0129      0              0             -415.82999      139779.95      51.897722      51.897722      51.897722      1.2923197      43123.944      43780.628      43116.717    
     71000   142000         482.15627      43108.1        113929.41      25925.018      11553.781      14371.237      4384.3201      4266.6541      10497.488      0             -4777.2257      0              0             -415.23227      139981.16      51.922612      51.922612      51.922612      1.2904621      42185.812      43510.838      43627.65     
     72000   144000         474.7167       42707.179      113231.2       25839.831      11375.509      14464.322      4557.4168      4384.3755      10535.22       0             -5012.6902      0              0             -414.25609      140311.02      51.963364      51.963364      51.963364      1.2874283      42778.024      42848.321      42495.191    
     73000   146000         481.17067      42376.55       112457.09      25878.222      11530.164      14348.059      4400.8555      4316.9815      10458.238      0             -4828.0166      0              0             -414.90653      140091.06      51.936196      51.936196      51.936196      1.2894497      42246.096      42286.685      42596.869    
     74000   148000         477.51106      43241.348      114127.95      25703.497      11442.47       14261.028      4507.3492      4240.2598      10493.662      0             -4980.243       0              0             -414.5371       140215.91      51.95162       51.95162       51.95162       1.2883016      43011.141      43685.576      43027.327    
     75000   150000         477.31481      43118.196      113847.53      25646.479      11437.767      14208.713      4455.058       4186.9691      10471.641      0             -4904.9556      0              0             -414.40347      140261.12      51.957203      51.957203      51.957203      1.2878863      42752.534      43708.726      42893.328    
     76000   152000         474.73007      42730.197      113155.04      25555.822      11375.83       14179.993      4507.6341      4268.9155      10477.935      0             -5074.4918      0              0             -413.49591      140568.97      51.995188      51.995188      51.995188      1.2850658      42708.277      42813.116      42669.197    
     77000   154000         483.53912      41544.445      110839.02      25675.411      11586.918      14088.493      4330.0147      4235.1016      10528.422      0             -5005.0454      0              0             -413.51901      140561.12      51.99422       51.99422       51.99422       1.2851376      42088.124      40950.388      41594.824    
     78000   156000         481.24158      43500.269      114983.71      26051.485      11531.863      14519.622      4547.195       4281.3157      10500.035      0             -4808.9229      0              0             -414.63822      140181.71      51.947396      51.947396      51.947396      1.2886159      43729.873      43459.673      43311.26     
     79000   158000         478.11366      42957.956      113552.42      25557.064      11456.91       14100.154      4361.7165      4260.9505      10508.079      0             -5030.5916      0              0             -413.82855      140455.98      51.981253      51.981253      51.981253      1.2860996      42609.652      43655.869      42608.347    
     80000   160000         477.76331      41630.661      111221.16      25849.91       11448.514      14401.395      4474.8038      4422.9891      10566.917      0             -5063.3147      0              0             -413.36932      140612.02      52.000495      52.000495      52.000495      1.2846724      42361.322      41963.277      40567.384    
     81000   162000         481.43607      42545.653      112945.54      25814.303      11536.524      14277.78       4458.8885      4289.8052      10568.057      0             -5038.9708      0              0             -413.9214       140424.47      51.977366      51.977366      51.977366      1.2863881      42667.713      42656.174      42313.072    
     82000   164000         483.64136      41473.196      110896.98      25640.071      11589.368      14050.703      4346.9679      4356.0627      10494.185      0             -5146.5123      0              0             -412.35807      140956.85      52.042969      52.042969      52.042969      1.2815296      40903.294      41747.956      41768.339    
     83000   166000         479.33097      41817.77       111574.9       25810.858      11486.08       14324.778      4603.7225      4225.3634      10488.278      0             -4992.5858      0              0             -413.32548      140626.93      52.002334      52.002334      52.002334      1.2845362      42786.934      40489.798      42176.579    
     84000   168000         479.69144      40946.173      109647.11      25459.836      11494.717      13965.118      4450.0748      4270.7231      10470.159      0             -5225.8388      0              0             -412.29059      140979.92      52.045808      52.045808      52.045808      1.2813199      40710.078      41915.292      40213.148    
     85000   170000         485.51413      41682.441      111321.23      25807.82       11634.245      14173.575      4321.8244      4334.3706      10563.615      0             -5046.235       0              0             -413.19541      140671.2       52.00779       52.00779       52.00779       1.2841319      41669.569      41392.084      41985.669    
     86000   172000         479.72517      40656.69       109128.15      25497.983      11495.526      14002.457      4360.9566      4220.9246      10576.945      0             -5156.369       0              0             -412.10287      141044.14      52.053709      52.053709      52.053709      1.2807365      39867.659      41663.666      40438.744    
     87000   174000         474.14105      41237.545      110283.39      25569.862      11361.715      14208.147      4505.3488      4257.3059      10546.618      0             -5101.1261      0              0             -412.64503      140858.83      52.030902      52.030902      52.030902      1.2824214      40618.169      42024.588      41069.878    
     88000   176000         480.22746      41266.2        110527.01      25658.688      11507.562      14151.126      4493.445       4313.1178      10537.158      0             -5192.5938      0              0             -412.17861      141018.22      52.050521      52.050521      52.050521      1.2809719      40726.701      42040.294      41031.603    
     89000   178000         480.41492      41173.028      110015.24      25362.162      11512.054      13850.108      4253.6611      4284.0254      10497.642      0             -5185.2212      0              0             -412.29366      140978.87      52.045679      52.045679      52.045679      1.2813294      40258.333      42179.115      41081.637    
     90000   180000         479.84946      41259.636      110161.58      25399.278      11498.504      13900.774      4280.6087      4303.6055      10517.801      0             -5201.2414      0              0             -412.62848      140864.48      52.031598      52.031598      52.031598      1.28237        41422.448      40161.342      42195.116    
     91000   182000         485.26288      41551.859      111108.34      25708.193      11628.224      14079.969      4360.5966      4403.595       10484.517      0             -5168.7402      0              0             -412.44726      140926.37      52.039217      52.039217      52.039217      1.2818068      42022.23       40899.374      41733.973    
     92000   184000         480.82634      42004.957      111791.42      25519.502      11521.913      13997.589      4412.5175      4159.7295      10515.462      0             -5090.1197      0              0             -412.73157      140829.29      52.027265      52.027265      52.027265      1.2826904      42252.964      42897.294      40864.614    
     93000   186000         485.56777      40365.685      108555.08      25470.938      11635.53       13835.408      4366.2942      4203.2316      10522.561      0             -5256.6787      0              0             -411.84211      141133.44      52.064693      52.064693      52.064693      1.2799261      40842.506      40096.852      40157.698    
     94000   188000         480.6771       40689.933      109362.73      25498.421      11518.337      13980.085      4409.2014      4252.0173      10557.619      0             -5238.7531      0              0             -411.28833      141323.47      52.08805       52.08805       52.08805       1.2782051      41662.245      40982.468      39425.087    
     95000   190000         480.63806      40230.963      108436.96      25382.424      11517.401      13865.023      4393.5276      4277.1306      10520.66       0             -5326.2959      0              0             -410.6139       141555.6       52.116553      52.116553      52.116553      1.2761091      40286.522      40528.563      39877.804    
     96000   192000         483.00299      40316.661      108514.12      25490.733      11574.071      13916.661      4291.9638      4270.324       10518.427      0             -5164.0536      0              0             -411.64293      141201.73      52.073089      52.073089      52.073089      1.2793071      40097.63       39462.039      41390.315    
     97000   194000         484.39857      40601.219      109314.78      25781.259      11607.513      14173.746      4413.7834      4223.1991      10565.955      0             -5029.1917      0              0             -412.01673      141073.63      52.057337      52.057337      52.057337      1.2804688      41183.624      40059.009      40561.025    
     98000   196000         480.01578      39749.989      107316.71      25231.704      11502.49       13729.215      4348.4187      4196.8309      10510.101      0             -5326.1363      0              0             -410.49676      141595.99      52.121509      52.121509      52.121509      1.275745       40014.132      39851.831      39384.003    
     99000   198000         478.34221      39445.791      106693.95      25214.842      11462.386      13752.456      4377.2136      4281.0816      10491.317      0             -5397.1559      0              0             -410.38453      141634.71      52.12626       52.12626       52.12626       1.2753962      40174.869      38757.605      39404.899    
    100000   200000         481.12429      39806.437      107476.07      25354.149      11529.052      13825.096      4351.5928      4275.5435      10506.317      0             -5308.3573      0              0             -410.89495      141458.77      52.104667      52.104667      52.104667      1.2769825      39703.244      39887.769      39828.299    
    101000   202000         482.0028       39008.799      105964.52      25319.385      11550.104      13769.281      4413.1298      4256.1475      10512.925      0             -5412.9209      0              0             -410.03505      141755.43      52.141065      52.141065      52.141065      1.2743101      39266.117      38798.233      38962.047    
    102000   204000         486.66224      40090.072      108146.24      25353.907      11661.757      13692.151      4274.7295      4327.8578      10489.813      0             -5400.2501      0              0             -410.47177      141604.61      52.122567      52.122567      52.122567      1.2756673      40305.424      40734.795      39229.996    
    103000   206000         476.71632      39348.09       106489.13      25095.863      11423.425      13672.437      4254.5526      4368.9014      10456.891      0             -5407.9078      0              0             -409.79982      141836.8       52.15104       52.15104       52.15104       1.2735791      38715.506      39574.181      39754.584    
    104000   208000         477.99604      40027.357      107774.74      25006.199      11454.091      13552.108      4351.77        4201.7152      10420.105      0             -5421.4819      0              0             -409.94744      141785.72      52.144779      52.144779      52.144779      1.2740378      39987.203      39422.272      40672.595    
    105000   210000         478.01936      38551.499      104804.61      24938.102      11454.65       13483.452      4309.1471      4229.6185      10415.798      0             -5471.1111      0              0             -409.17883      142052.06      52.177409      52.177409      52.177409      1.2716492      38934.729      38568.547      38151.222    
    106000   212000         475.56283      39070.634      105863.3       25048.03       11395.785      13652.245      4250.1546      4250.7434      10561.389      0             -5410.0424      0              0             -409.82041      141829.67      52.150167      52.150167      52.150167      1.2736431      39256.87       39926.21       38028.823    
    107000   214000         488.35981      39235.528      106502.92      25386.691      11702.435      13684.256      4363.7185      4280.2407      10449.399      0             -5409.1018      0              0             -410.02308      141759.57      52.141573      52.141573      52.141573      1.2742729      40416.528      38177.807      39112.248    
    108000   216000         484.34581      40168.088      108399.89      25394.275      11606.249      13788.026      4330.3882      4329.2829      10532.095      0             -5403.7399      0              0             -410.21378      141693.67      52.133492      52.133492      52.133492      1.2748656      41282.643      39511.82       39709.802    
    109000   218000         484.63559      38949.332      105896.71      25290.415      11613.193      13677.222      4316.1691      4291.7042      10591.946      0             -5522.5967      0              0             -409.60723      141903.49      52.159212      52.159212      52.159212      1.2729805      39732.795      38266.181      38849.02     
    110000   220000         474.15144      39635.357      107118.94      25217.589      11361.964      13855.625      4387.8189      4311.4243      10523.5        0             -5367.118       0              0             -410.23079      141687.79      52.132771      52.132771      52.132771      1.2749184      38737.551      40515.7        39652.82     
    111000   222000         486.73733      39831.933      107648.7       25322.885      11663.556      13659.329      4411.6482      4251.6333      10524.738      0             -5528.6909      0              0             -410.13981      141719.22      52.136625      52.136625      52.136625      1.2746357      39475.441      40548.542      39471.816    
    112000   224000         477.4715       38868.039      105558         24983.759      11441.522      13542.237      4313.0037      4319.5643      10558.179      0             -5648.5093      0              0             -408.91493      142143.73      52.188631      52.188631      52.188631      1.270829       39319.875      38733.395      38550.847    
    113000   226000         477.54174      38205.461      104129.35      24914.542      11443.205      13471.337      4197.5627      4210.5484      10557.737      0             -5494.5116      0              0             -408.84213      142169.04      52.191728      52.191728      52.191728      1.2706028      38630.527      37789.726      38196.131    
    114000   228000         478.87194      38464.363      104843.03      25103.785      11475.08       13628.705      4369.3073      4224.8319      10627.275      0             -5592.7091      0              0             -408.90555      142146.99      52.18903       52.18903       52.18903       1.2707999      39756.692      37999.369      37637.027    
    115000   230000         475.99836      38411.609      104733.16      25025.595      11406.221      13619.373      4347.2394      4308.4517      10547.759      0             -5584.0765      0              0             -408.50702      142285.67      52.205996      52.205996      52.205996      1.2695613      38030.596      38418.289      38785.944    
    116000   232000         474.62729      37925.595      103490.78      24692.903      11373.367      13319.537      4321.7496      4151.5795      10563.48       0             -5717.2724      0              0             -407.99462      142464.36      52.227842      52.227842      52.227842      1.2679689      38028.704      38067.883      37680.199    
    117000   234000         479.37796      37988.115      103885.89      24961.182      11487.206      13473.976      4344.644       4201.8992      10484.229      0             -5556.7961      0              0             -408.01048      142458.83      52.227166      52.227166      52.227166      1.2680181      37592.765      37967.099      38404.481    
    118000   236000         472.24047      38029.723      103706.14      24739.356      11316.172      13423.184      4328.7392      4305.8757      10406.646      0             -5618.0769      0              0             -408.23974      142378.83      52.217387      52.217387      52.217387      1.2687306      38538.31       37570.671      37980.189    
    119000   238000         475.53719      38238.203      104171.41      24707.438      11395.17       13312.268      4285.617       4149.3866      10483.605      0             -5606.3405      0              0             -407.90949      142494.1       52.231475      52.231475      52.231475      1.2677043      39165.005      37055.134      38494.47     
    120000   240000         477.39465      38013.51       103978.72      24972.948      11439.68       13533.268      4246.8283      4391.9202      10490.533      0             -5596.0143      0              0             -407.86431      142509.88      52.233404      52.233404      52.233404      1.2675639      39070.537      37134.751      37835.243    
    121000   242000         476.07222      36770.488      101241.64      24663.462      11407.991      13255.471      4357.5476      4254.778       10449.315      0             -5806.1701      0              0             -407.03426      142800.5       52.268886      52.268886      52.268886      1.2649842      37111.757      36098.503      37101.203    
    122000   244000         481.50786      37241.416      102142.84      24634.896      11538.244      13096.652      4221.1093      4095.0418      10397.407      0             -5616.9063      0              0             -407.30198      142706.64      52.257431      52.257431      52.257431      1.2658162      37132.147      37442.642      37149.459    
    123000   246000         484.90696      38384.281      104869.11      25031.441      11619.696      13411.745      4367.9418      4325.8586      10458.003      0             -5740.0583      0              0             -407.55114      142619.39      52.246779      52.246779      52.246779      1.2665906      38257.316      38031.617      38863.91     
    124000   248000         482.62153      37663.587      103228.75      24895.543      11564.93       13330.612      4391.4221      4199.4352      10463.786      0             -5724.0311      0              0             -407.57952      142609.46      52.245567      52.245567      52.245567      1.2666788      38482.05       36891.94       37616.772    
    125000   250000         475.56801      37524.46       102882.87      24656.673      11395.909      13260.764      4419.4348      4150.8543      10479.794      0             -5789.3185      0              0             -406.62943      142942.67      52.286226      52.286226      52.286226      1.2637261      37386.821      37986.798      37199.762    
    126000   252000         479.98645      37306.808      102166.39      24556.417      11501.787      13054.631      4172.4374      4130.0362      10479.85       0             -5727.6927      0              0             -407.48079      142644.01      52.249786      52.249786      52.249786      1.266372       37714.967      36565.94       37639.515    
    127000   254000         478.9972       36280.009      100319.87      24589.627      11478.082      13111.545      4287.1665      4216.5986      10454.264      0             -5846.4837      0              0             -406.1015       143128.49      52.308873      52.308873      52.308873      1.2620854      36134.558      35683.909      37021.559    
    128000   256000         474.1079       36734.641      101176.99      24494.262      11360.92       13133.341      4299.035       4226.8788      10439.208      0             -5831.7811      0              0             -406.08299      143135.01      52.309668      52.309668      52.309668      1.2620279      37531.001      36742.658      35930.264    
    129000   258000         482.48262      37351.579      102598.97      24748.822      11561.602      13187.22       4283.0092      4184.6342      10475.147      0             -5755.5703      0              0             -406.71117      142913.94      52.282723      52.282723      52.282723      1.2639801      37107.136      37067.064      37880.537    
    130000   260000         483.86345      37527.561      103054.27      24883.195      11594.69       13288.505      4337.6613      4264.5951      10466.238      0             -5779.9895      0              0             -406.94981      142830.13      52.272501      52.272501      52.272501      1.2647218      37285.357      36942.227      38355.097    
    131000   262000         483.10708      36013.347      100105.23      24837.217      11576.566      13260.651      4425.5772      4406.9805      10366.765      0             -5938.6715      0              0             -405.59221      143308.21      52.330758      52.330758      52.330758      1.2605026      35674.194      35779.423      36586.423    
    132000   264000         477.22413      37642.595      103022.88      24633.146      11435.594      13197.552      4361.7578      4305.0752      10496.83       0             -5966.1105      0              0             -407.05862      142791.95      52.267843      52.267843      52.267843      1.2650599      37534.828      37272.587      38120.371    
    133000   266000         483.02129      35851.032      99472.462      24537.697      11574.51       12963.187      4288.6859      4248.6811      10424.806      0             -5998.9861      0              0             -405.55978      143319.67      52.332153      52.332153      52.332153      1.2604018      35657.826      36434.203      35461.066    
    134000   268000         477.30261      37543.012      102942.01      24725.552      11437.475      13288.078      4368.2772      4236.4414      10438.454      0             -5755.0951      0              0             -406.88114      142854.24      52.275442      52.275442      52.275442      1.2645084      38484.607      37718.454      36425.974    
    135000   270000         483.15356      36253.665      100302.78      24588.115      11577.679      13010.436      4212.0804      4246.0056      10429.863      0             -5877.5131      0              0             -405.8901       143203.04      52.317953      52.317953      52.317953      1.2614284      35386.491      36652.943      36721.56     
    136000   272000         479.87433      35891.294      99671.408      24613.194      11499.1        13114.094      4294.345       4306.3552      10526.54       0             -6013.146       0              0             -405.34747      143394.74      52.341288      52.341288      52.341288      1.259742       36290.565      35127.187      36256.129    
    137000   274000         481.89579      35761.939      99172.665      24524.716      11547.54       12977.177      4215.7676      4193.971       10361.631      0             -5794.1928      0              0             -406.10632      143126.79      52.308666      52.308666      52.308666      1.2621004      35851.859      35497.774      35936.182    
    138000   276000         485.51657      36639.272      101265.78      24603.709      11634.304      12969.405      4361.1426      4288.7413      10492.845      0             -6173.324       0              0             -405.1379       143468.91      52.350312      52.350312      52.350312      1.2590907      36701.156      36734.998      36481.662    
    139000   278000         481.54962      36712.322      101112.98      24322.592      11539.245      12783.347      4157.9394      4209.0001      10357.883      0             -5941.4755      0              0             -405.26729      143423.11      52.34474       52.34474       52.34474       1.2594928      36044.92       36534.714      37557.333    
    140000   280000         477.97124      36345.602      100426.28      24457.592      11453.497      13004.095      4262.9061      4203.953       10414.019      0             -5876.7824      0              0             -405.55878      143320.03      52.332196      52.332196      52.332196      1.2603987      36808.968      36458.688      35769.15     
    141000   282000         481.52935      35903.388      99443.549      24241.01       11538.759      12702.251      4272.0962      4203.5944      10365.854      0             -6139.2936      0              0             -404.70586      143622.07      52.368934      52.368934      52.368934      1.257748       35788.29       36488.006      35433.866    
    142000   284000         479.2504       35568.212      99137.319      24547.377      11484.149      13063.229      4462.7897      4181.5052      10557.761      0             -6138.8272      0              0             -404.22051      143794.52      52.389885      52.389885      52.389885      1.2562397      35297.692      35931.758      35475.188    
    143000   286000         476.83491      35022.184      97604.215      24108.731      11426.267      12682.464      4225.6272      4213.9929      10341.86       0             -6099.0158      0              0             -403.94213      143893.62      52.401917      52.401917      52.401917      1.2553745      34053.475      35404.28       35608.797    
    144000   288000         479.63942      35222.837      98003.339      24249.716      11493.471      12756.245      4255.9735      4213.8957      10374.996      0             -6088.6207      0              0             -404.83453      143576.43      52.363385      52.363385      52.363385      1.2581479      35156.687      35096.943      35414.881    
    145000   290000         485.38237      35546.988      99104.25       24584.793      11631.088      12953.706      4380.1529      4280.2337      10429.1        0             -6135.7807      0              0             -404.36141      143744.42      52.383799      52.383799      52.383799      1.2566775      36978.214      34930.849      34731.901    
    146000   292000         477.34391      34626.513      96774.144      24088.385      11438.464      12649.921      4300.4404      4132.4002      10401.755      0             -6184.6744      0              0             -403.82761      143934.42      52.40687       52.40687       52.40687       1.2550186      34380.867      33767.898      35730.776    
    147000   294000         478.94077      35421.443      98671.598      24412.217      11476.729      12935.488      4284.2611      4184.2263      10545.103      0             -6078.103       0              0             -404.34445      143750.44      52.384532      52.384532      52.384532      1.2566248      34759.518      35974.637      35530.172    
    148000   296000         476.13743      35672.047      99187.71       24426.875      11409.554      13017.321      4342.3552      4214.3103      10477.485      0             -6016.8292      0              0             -404.47386      143704.45      52.378945      52.378945      52.378945      1.257027       35870.77       35814.791      35330.579    
    149000   298000         480.18924      33957.02       95546.459      24121.155      11506.646      12614.508      4254.5041      4179.5816      10352.699      0             -6172.2762      0              0             -403.00835      144227.02      52.442358      52.442358      52.442358      1.2524725      33878.621      33149.389      34843.05     
    150000   300000         476.56526      34421.776      96496.295      24177.929      11419.806      12758.123      4273.1718      4284.9152      10418.874      0             -6218.8371      0              0             -403.47929      144058.68      52.421947      52.421947      52.421947      1.2539361      34309.78       34116.355      34839.193    
    151000   302000         478.6308       36564.412      100898.21      24306.239      11469.302      12836.937      4325.137       4103.0409      10451.51       0             -6042.7511      0              0             -404.68017      143631.19      52.370042      52.370042      52.370042      1.2576682      37122.112      36124.719      36446.403    
    152000   304000         476.4126       34291.32       96287.61       24145.709      11416.147      12729.562      4305.1275      4230.8221      10467.399      0             -6273.787       0              0             -402.93333      144253.88      52.445613      52.445613      52.445613      1.2522393      33532.9        34746.792      34594.267    
    153000   306000         477.4319       35274.444      98283.178      24225.461      11440.573      12784.888      4257.1643      4201.644       10432.819      0             -6106.7392      0              0             -403.76292      143957.49      52.409669      52.409669      52.409669      1.2548175      34771.156      35417.243      35634.933    
    154000   308000         479.69982      34749.596      97302.656      24270.997      11494.918      12776.079      4334.3259      4153.3777      10463.77       0             -6175.3944      0              0             -403.34359      144107.15      52.427825      52.427825      52.427825      1.2535144      35865.532      34793.299      33589.956    
    155000   310000         483.34766      34458.774      96918.849      24298.428      11582.33       12716.098      4313.4402      4163.1022      10478.753      0             -6239.1976      0              0             -402.23294      144505.06      52.476035      52.476035      52.476035      1.2500627      33625.737      35451.158      34299.428    
    156000   312000         486.76416      34515.555      97020.089      24328.187      11664.199      12663.988      4258.9487      4098.6567      10506.344      0             -6199.9619      0              0             -402.49955      144409.34      52.464447      52.464447      52.464447      1.2508912      33744.508      34593.856      35208.3      
    157000   314000         482.11314      33554.072      95001.176      24089.11       11552.748      12536.362      4248.6936      4155.1373      10500.333      0             -6367.8018      0              0             -401.10831      144910.22      52.525034      52.525034      52.525034      1.2465675      33477.829      33722.692      33461.693    
    158000   316000         481.89507      33617.692      95027.178      24129.141      11547.522      12581.619      4268.9815      4198.4333      10432.719      0             -6318.5145      0              0             -401.94837      144607.37      52.488417      52.488417      52.488417      1.2491783      33525.346      33613.21       33714.522    
    159000   318000         478.87882      33859.415      95521.776      24106.869      11475.245      12631.624      4212.9065      4242.8231      10508.291      0             -6332.3966      0              0             -401.90846      144621.73      52.490154      52.490154      52.490154      1.2490542      32951.685      34866.962      33759.597    
    160000   320000         484.45894      34369.73       96717.193      24287.223      11608.96       12678.264      4328.0925      4183.4648      10495.916      0             -6329.2093      0              0             -402.24846      144499.48      52.475361      52.475361      52.475361      1.2501109      34202.246      34267.205      34639.738    
    161000   322000         475.71452      33721.777      95036.149      23942.871      11399.42       12543.451      4219.7851      4233.1336      10413.356      0             -6322.8239      0              0             -402.08557      144558.02      52.482446      52.482446      52.482446      1.2496047      33846.32       33300.745      34018.265    
    162000   324000         479.43365      33901.528      95661.084      24054.117      11488.54       12565.577      4338.8064      4096.6681      10480.855      0             -6350.7534      0              0             -401.32903      144830.53      52.515403      52.515403      52.515403      1.2472535      34091.243      34220.085      33393.256    
    163000   326000         475.77439      34195.778      95983.687      23886.963      11400.854      12486.109      4219.5029      4087.4782      10516.768      0             -6337.6402      0              0             -402.06246      144566.33      52.483451      52.483451      52.483451      1.2495328      34324.579      34870.947      33391.808    
    164000   328000         472.5275       33616.502      94781.204      23772.737      11323.05       12449.688      4222.5909      4132.2742      10406.477      0             -6311.6539      0              0             -401.30906      144837.73      52.516274      52.516274      52.516274      1.2471914      34123.005      33150.907      33575.595    
    165000   330000         477.13348      33241.718      94224.066      23943.725      11433.422      12510.303      4229.9153      4238.972       10464.159      0             -6422.7433      0              0             -400.94627      144968.79      52.532109      52.532109      52.532109      1.2460639      33334.205      33291.303      33099.645    
    166000   332000         482.20085      33161.442      94093.394      23995.33       11554.85       12440.48       4263.2845      4031.5342      10420.166      0             -6274.504       0              0             -401.01808      144942.83      52.528973      52.528973      52.528973      1.2462871      33548.718      33526.829      32408.778    
    167000   334000         471.17836      33283.748      94108.827      23715.555      11290.721      12424.834      4287.8405      4085.1776      10471.385      0             -6419.5691      0              0             -400.80917      145018.38      52.538098      52.538098      52.538098      1.2456378      32397.647      34180.987      33272.61     
    168000   336000         482.37352      32938.954      93512.347      23895.059      11558.987      12336.071      4180.5235      4113.1666      10415.221      0             -6372.8402      0              0             -401.0784       144921.03      52.526339      52.526339      52.526339      1.2464746      32376.106      33546.244      32894.513    
    169000   338000         481.67781      33142.362      94116.436      23872.153      11542.316      12329.836      4184.9917      4153.8706      10438.047      0             -6447.073       0              0             -399.95307      145328.79      52.575557      52.575557      52.575557      1.2429773      32824.626      34155.956      32446.503    
    170000   340000         485.22971      33328.165      94557.453      23999.483      11627.43       12372.053      4218.2778      4219.3494      10348.041      0             -6413.6152      0              0             -400.40722      145163.95      52.555672      52.555672      52.555672      1.2443887      33050.042      32987.223      33947.232    
    171000   342000         482.63695      32590.582      92922.438      23981.041      11565.3        12415.741      4236.8263      4122.7063      10422.771      0             -6366.5624      0              0             -400.727        145048.11      52.541688      52.541688      52.541688      1.2453825      32529.651      32948.132      32293.962    
    172000   344000         477.53996      33521.762      94660.644      23787.907      11443.162      12344.745      4206.4872      4088.6687      10375.599      0             -6326.0099      0              0             -400.94445      144969.45      52.532188      52.532188      52.532188      1.2460583      33911.5        33409.188      33244.597    
    173000   346000         479.33678      33328.871      94475.089      23876.141      11486.219      12389.923      4296.6641      4147.1629      10474.76       0             -6528.6645      0              0             -400.18329      145245.18      52.565473      52.565473      52.565473      1.2436927      32626.156      33777.95       33582.507    
    174000   348000         481.0672       32350.296      92542.546      23884.729      11527.684      12357.044      4268.202       4120.6717      10476.6        0             -6508.429       0              0             -399.41543      145524.41      52.599137      52.599137      52.599137      1.2413064      33142.708      32521.25       31386.93     
    175000   350000         475.88067      32748.95       93182.27       23844.967      11403.401      12441.566      4232.0166      4130.8066      10399.493      0             -6320.7499      0              0             -400.37505      145175.62      52.55708       52.55708       52.55708       1.2442887      32065.361      33603.76       32577.728    
    176000   352000         478.53304      31481.844      90501.284      23599.349      11466.959      12132.389      4180.2858      4080.9381      10386.488      0             -6515.3223      0              0             -398.89451      145714.45      52.622023      52.622023      52.622023      1.2396875      31391.587      32133.376      30920.57     
    177000   354000         484.02722      31194.394      90099.982      23729.677      11598.615      12131.063      4141.7055      4105.5441      10452.399      0             -6568.5858      0              0             -398.41834      145888.6       52.642979      52.642979      52.642979      1.2382076      32383.877      30658.101      30541.205    
    178000   356000         483.01334      33094.151      94083.163      23949.394      11574.319      12375.075      4252.4572      4022.0531      10515.794      0             -6415.2297      0              0             -400.0006       145311.52      52.573475      52.573475      52.573475      1.243125       33831.137      32575.04       32876.276    
    179000   358000         481.68128      31925.123      91511.329      23588.163      11542.4        12045.764      4170.206       4130.8784      10361.829      0             -6617.1502      0              0             -398.42926      145884.6       52.642498      52.642498      52.642498      1.2382416      32567.247      30869.823      32338.298    
    180000   360000         481.49976      31920.426      91675.194      23766.467      11538.05       12228.417      4141.0408      4227.602       10485.832      0             -6626.0584      0              0             -398.45534      145875.05      52.641349      52.641349      52.641349      1.2383226      30902.656      31990.024      32868.596    
    181000   362000         479.36228      31123.312      89827.295      23567.218      11486.83       12080.388      4181.3238      4129.7181      10442.7        0             -6673.3536      0              0             -398.17175      145978.95      52.653844      52.653844      52.653844      1.2374413      31168.828      31134.796      31066.312    
    182000   364000         476.31827      31541.144      90564.34       23466.499      11413.887      12052.612      4096.9937      4104.3222      10389.716      0             -6538.419       0              0             -398.47902      145866.39      52.640306      52.640306      52.640306      1.2383962      32346.092      31362.887      30914.451    
    183000   366000         474.28372      29907.821      87215.957      23395.606      11365.134      12030.473      4240.4763      4168.9872      10446.528      0             -6825.5188      0              0             -397.24841      146318.26      52.694607      52.694607      52.694607      1.2345717      29067.39       31753.437      28902.637    
    184000   368000         473.89407      31253          90019.493      23375.037      11355.797      12019.24       4302.1661      4062.5576      10401.117      0             -6746.6006      0              0             -397.52483      146216.51      52.682391      52.682391      52.682391      1.2354308      31217.038      31100.389      31441.573    
    185000   370000         488.23014      31846.472      91558.072      23696.25       11699.328      11996.922      4288.5015      4105.1957      10429.963      0             -6826.7382      0              0             -397.80697      146112.81      52.669933      52.669933      52.669933      1.2363076      31910.098      31941.361      31687.958    
    186000   372000         481.22706      31146.709      89980.737      23623.457      11531.515      12091.941      4270.0245      4187.5601      10406.7        0             -6772.3434      0              0             -397.88738      146083.28      52.666385      52.666385      52.666385      1.2365575      30804.93       31239.633      31395.564    
    187000   374000         475.35075      31210.853      90103.732      23542.68       11390.703      12151.977      4302.171       4213.2551      10390.991      0             -6754.4399      0              0             -397.48618      146230.73      52.684098      52.684098      52.684098      1.2353106      31794.924      30634.124      31203.512    
    188000   376000         466.18081      30749.37       88756.963      23142.085      11170.966      11971.119      4246.2728      4121.1242      10375.033      0             -6771.3111      0              0             -397.256        146315.46      52.694272      52.694272      52.694272      1.2345953      30436.784      31071.926      30739.399    
    189000   378000         479.94332      31003.634      89436.082      23490.727      11500.753      11989.974      4194.8686      4078.7525      10436.893      0             -6720.5397      0              0             -398.53363      145846.4       52.637902      52.637902      52.637902      1.2385659      30002.251      31756.373      31252.279    
    190000   380000         474.25838      31152.076      89761.964      23358.941      11364.526      11994.415      4275.0289      4131.2565      10382.521      0             -6794.392       0              0             -397.6818       146158.8       52.675458      52.675458      52.675458      1.2359186      31900.143      30695.42       30860.664    
    191000   382000         490.53146      31817.835      91750.951      23898.62       11754.474      12144.147      4311.173       4100.1919      10445.071      0             -6712.2895      0              0             -397.50485      146223.86      52.683273      52.683273      52.683273      1.2353687      32081.278      32150.754      31221.475    
    192000   384000         487.06352      31386.922      90630.336      23635.004      11671.373      11963.632      4267.6949      4081.0634      10417.616      0             -6802.7423      0              0             -397.13737      146359.17      52.699518      52.699518      52.699518      1.2342266      30971.528      32607.497      30581.74     
    193000   386000         482.37083      31321.641      90343.946      23550.252      11558.923      11991.329      4130.9608      4164.0468      10418.122      0             -6721.8006      0              0             -397.50777      146222.79      52.683144      52.683144      52.683144      1.2353777      30811.699      31472.617      31680.607    
    194000   388000         489.28034      31075.038      90044.119      23679.855      11724.494      11955.362      4197.7006      4117.1762      10475.479      0             -6834.9939      0              0             -396.93003      146435.62      52.708692      52.708692      52.708692      1.2335822      31104.66       31503.918      30616.536    
    195000   390000         480.06054      30840.598      89421.552      23565.729      11503.562      12062.167      4258.223       4129.8993      10469.7        0             -6795.6553      0              0             -396.97685      146418.35      52.70662       52.70662       52.70662       1.2337278      30771.268      30826.575      30923.952    
    196000   392000         476.78309      29887.201      87113.823      23181.616      11425.025      11756.591      4116.1337      4104.6138      10360.334      0             -6824.4909      0              0             -396.27998      146675.83      52.737498      52.737498      52.737498      1.231562       29905.514      30629.761      29126.329    
    197000   394000         480.37524      29827.14       87229.166      23150.013      11511.103      11638.91       4212.778       3948.2971      10356.482      0             -6878.6472      0              0             -394.5767       147308.99      52.813273      52.813273      52.813273      1.2262685      28267.748      30775.39       30438.283    
    198000   396000         483.39687      30618.284      89170.814      23583.376      11583.51       11999.867      4238.5134      4161.4292      10424.221      0             -6824.2971      0              0             -395.72798      146880.43      52.762007      52.762007      52.762007      1.2298465      30490.087      30367.524      30997.241    
    199000   398000         482.63685      29898.424      87609.677      23382.233      11565.298      11816.935      4122.3935      4137.814       10407.657      0             -6850.9292      0              0             -394.6065       147297.87      52.811944      52.811944      52.811944      1.2263611      29389.818      30284.838      30020.618    
[...]
    458000   916000         472.5185       4419.5157      32087.451      20231.125      11322.834      8908.291       3919.7795      3826.5021      10165.972      0             -9003.9623      0              0             -315.98113      183949.89      56.872176      56.872176      56.872176      0.98200861     4849.7905      3797.1913      4611.5655    
    459000   918000         486.82491      3384.6543      29552.649      20438.115      11665.655      8772.4606      3861.0447      3908.6847      10101.675      0             -9098.9442      0              0             -314.78675      184647.84      56.944014      56.944014      56.944014      0.97829671     3066.1976      3570.0374      3517.7279    
    460000   920000         478.8178       4367.34        32014.19       20226.277      11473.783      8752.494       3979.9692      3693.1482      10079.777      0             -9000.4008      0              0             -314.06291      185073.41      56.987728      56.987728      56.987728      0.97604716     4628.3206      4513.0197      3960.6797    
    461000   922000         478.18525      3497.4893      29976.277      20511.531      11458.625      9052.9059      3938.7101      3893.7497      10163.447      0             -8943.0005      0              0             -313.24488      185556.72      57.037292      57.037292      57.037292      0.97350489     3457.0545      3266.053       3769.3605    
    462000   924000         485.38235      4259.4003      32080.096      20455.1        11631.087      8824.0127      3868.1414      3835.1753      10094.49       0             -8973.7938      0              0             -310.5934       187140.79      57.199139      57.199139      57.199139      0.96526458     4471.815       4171.7006      4134.6853    
    463000   926000         479.70304      3271.8015      29271.44       20336.701      11494.995      8841.7053      3806.7214      3813.3934      10164.476      0             -8942.8851      0              0             -310.41425      187248.8       57.21014       57.21014       57.21014       0.96470782     3147.3803      3449.2766      3218.7477    
    464000   928000         479.21291      3838.6448      30936.182      20426.448      11483.251      8943.1976      3883.8998      3937.5341      10113.859      0             -8992.0952      0              0             -309.61557      187731.82      57.259291      57.259291      57.259291      0.96222567     4358.8675      3549.4976      3607.5691    
    465000   930000         478.87615      2752.0953      27989.105      20416.411      11475.181      8941.2305      3905.1548      3892.8046      10113.356      0             -8970.0845      0              0             -308.07016      188673.56      57.354877      57.354877      57.354877      0.95742284     2980.1144      2634.7752      2641.3963    
    466000   932000         478.37603      3835.0746      31102.729      20550.524      11463.197      9087.3275      3959.9587      3845.1638      10178.958      0             -8896.753       0              0             -308.08259      188665.95      57.354105      57.354105      57.354105      0.95746148     3606.4036      3650.9335      4247.8868    
    467000   934000         481.86037      2661.5384      27873.093      20523.102      11546.691      8976.4108      3968.699       3748.629       10191.977      0             -8932.8941      0              0             -306.96051      189355.61      57.423906      57.423906      57.423906      0.95397425     2718.5066      2418.3503      2847.7584    
    468000   936000         482.87846      3854.7038      31352.329      20664.564      11571.087      9093.4766      3954.2777      3881.5888      10098.472      0             -8840.8619      0              0             -305.73183      190116.59      57.500728      57.500728      57.500728      0.95015577     4053.409       3451.7086      4058.9938    
    469000   938000         482.35004      3174.9475      29668.133      20817.151      11558.425      9258.7266      4080.9845      3873.1806      10153.336      0             -8848.7745      0              0             -304.07568      191152.07      57.604932      57.604932      57.604932      0.94500875     3612.0334      2587.5344      3325.2749    
    470000   940000         482.49326      2943.717       28807.334      20603.666      11561.857      9041.8089      3919.5464      3908.5053      10142.553      0             -8928.7954      0              0             -304.17569      191089.22      57.598618      57.598618      57.598618      0.94531958     2839.7441      2316.536       3674.8707    
    471000   942000         477.38816      3555.2814      30538.484      20677.295      11439.525      9237.7709      4083.5415      3932.8079      10096.785      0             -8875.3639      0              0             -305.61966      190186.37      57.507762      57.507762      57.507762      0.94980715     3498.674       3678.9149      3488.2551    
    472000   944000         483.85984      2322.4439      27124.672      20636.977      11594.604      9042.3729      3953.3669      3815.1649      10124.722      0             -8850.8811      0              0             -303.45292      191544.36      57.644311      57.644311      57.644311      0.94307336     1754.0143      2314.8705      2898.4469    
    473000   946000         476.01769      2185.9929      26688.193      20540.249      11406.684      9133.5648      4018.8355      3870.7343      10119.867      0             -8875.8722      0              0             -301.40847      192843.6       57.774351      57.774351      57.774351      0.93671959     1891.6301      2490.5544      2175.7943    
    474000   948000         485.23502      2868.7537      28678.005      20618.168      11627.557      8990.6115      3909.4782      3844.4817      10070.847      0             -8834.1954      0              0             -301.71964      192644.72      57.754483      57.754483      57.754483      0.93768663     3496.2514      2270.0559      2839.9538    
    475000   950000         474.67934      1847.8106      25708.535      20487.96       11374.614      9113.3466      3886.2114      3889.3197      10115.394      0             -8777.5785      0              0             -300.03763      193724.68      57.862206      57.862206      57.862206      0.93245929     2296.601       1598.2048      1648.6262    
    476000   952000         489.48078      2537.8439      28167.826      20954.338      11729.297      9225.0408      3900.0069      3915.2193      10127.518      0             -8717.7038      0              0             -298.23331      194896.73      57.978661      57.978661      57.978661      0.92685179     2614.3598      2187.723       2811.449     
    477000   954000         479.29519      2079.209       26575.282      20653.014      11485.222      9167.7913      3938.1926      3836.5125      10095.235      0             -8702.1485      0              0             -297.6094       195305.31      58.019148      58.019148      58.019148      0.9249128      2684.2831      1619.634       1933.7099    
    478000   956000         476.30855      2724.1283      28385.848      20625.693      11413.654      9212.0385      3952.6609      3787.4931      10159.138      0             -8687.2531      0              0             -297.57313      195329.11      58.021505      58.021505      58.021505      0.92480008     2672.9927      3214.6689      2284.7233    
    479000   958000         480.28901      1995.5455      26477.862      20730.326      11509.037      9221.2889      3889.9632      3810.4753      10167.563      0             -8646.7129      0              0             -294.31778      197489.58      58.23464       58.23464       58.23464       0.91468309     2268.8858      2019.0346      1698.7161    
    480000   960000         485.52533      2262.1202      27516.101      20971.037      11634.513      9336.5234      3943.2383      3798.0045      10199.731      0             -8604.4502      0              0             -292.98022      198391.19      58.323126      58.323126      58.323126      0.91052621     1956.3821      2959.3775      1870.6009    
    481000   962000         491.9295       2052.618       27008.365      21045.576      11787.975      9257.6015      3925.4731      3792.1616      10153.484      0             -8613.5177      0              0             -291.80672      199189.02      58.401203      58.401203      58.401203      0.90687921     1717.3673      2165.3264      2275.1603    
    482000   964000         473.26232      1749.3015      25692.933      20603.765      11340.658      9263.1067      3892.2237      3785.2305      10168.053      0             -8582.4008      0              0             -291.37644      199483.16      58.429937      58.429937      58.429937      0.90554197     1639.0363      1738.1132      1870.755     
    483000   966000         476.21993      2364.8885      27801.899      20904.698      11411.531      9493.1671      3985.3871      3894.1302      10162.005      0             -8548.3549      0              0             -290.65267      199979.91      58.478397      58.478397      58.478397      0.90329263     2157.4591      1572.379       3364.8273    
    484000   968000         479.32651      1615.7641      25576.866      20841.195      11485.973      9355.2224      3902.3483      3794.3422      10202.116      0             -8543.5841      0              0             -289.2231       200968.37      58.574587      58.574587      58.574587      0.89884981     1756.4075      1957.981       1132.9038    
    485000   970000         475.31575      1815.117       26094.863      20747.587      11389.864      9357.7231      3890.2412      3813.5727      10095.488      0             -8441.5791      0              0             -287.74552      202000.35      58.674677      58.674677      58.674677      0.89425775     1789.5313      2082.8272      1572.9926    
    486000   972000         478.69312      1150.9942      24363.306      20952.498      11470.795      9481.7029      3886.4559      3871.3801      10213.974      0             -8490.1074      0              0             -286.0569       203192.77      58.789904      58.789904      58.789904      0.88900986     1009.0889      1704.5154      739.3783     
    487000   974000         475.75321      741.14993      22982.878      20764.249      11400.347      9363.9025      3921.995       3685.7651      10071.911      0             -8315.7688      0              0             -283.17699      205259.24      58.98853       58.98853       58.98853       0.88005966     1068.7302      408.36691      746.3527     
    488000   976000         480.96574      1702.2193      26270.924      21193.346      11525.253      9668.0926      4128.6741      3823.8463      10100.742      0             -8385.1695      0              0             -284.18125      204533.88      58.918962      58.918962      58.918962      0.8831807      1895.4773      1413.826       1797.3546    
    489000   978000         484.85202      745.41963      23298.338      21054.875      11618.379      9436.4963      3929.303       3687.8857      10137.465      0             -8318.1571      0              0             -281.65576      206367.85      59.094539      59.094539      59.094539      0.87533197     843.39785      674.86383      717.99722    
    490000   980000         468.32405      897.79886      23554.986      20834.058      11222.324      9611.7339      3916.3428      3870.1245      10137.984      0             -8312.7177      0              0             -279.70392      207807.93      59.231679      59.231679      59.231679      0.86926603     1155.0606      599.02069      939.3153     
    491000   982000         473.57529      1022.2548      24094.028      20977.336      11348.158      9629.178       3927.8673      3837.011       10156.371      0             -8292.0711      0              0             -278.0365       209054.19      59.34985       59.34985       59.34985       0.86408399     947.60797      690.41424      1428.7422    
    492000   984000         477.50046      970.2567       24168.813      21202.848      11442.216      9760.6321      3947.7624      3901.9086      10098.769      0             -8187.8083      0              0             -277.30469      209605.88      59.402012      59.402012      59.402012      0.86180968     634.2859       1104.8557      1171.6285    
    493000   986000         474.63073      308.50965      22006.527      21058.868      11373.449      9685.4187      3903.709       3869.9182      10079.718      0             -8167.9268      0              0             -275.96438      210623.9       59.498025      59.498025      59.498025      0.85764426     562.3004      -345.47585      708.7044     
    494000   988000         480.37104      611.62001      23342.921      21432.772      11511.003      9921.7693      4086.9928      3795.3478      10039.325      0             -7999.8963      0              0             -271.4257       214145.88      59.827828      59.827828      59.827828      0.8435389      302.08201      1031.6686      501.10943    
    495000   990000         476.62263      508.59007      23055.752      21451.347      11421.18       10030.167      3978.9421      3885.9368      10152.596      0             -7987.3082      0              0             -268.71409      216306.84      60.028397      60.028397      60.028397      0.83511174     217.67003      205.88074      1102.2194    
    496000   992000         479.0909       279.15005      22227.556      21345.525      11480.327      9865.1979      3934.3406      3796.2723      10091.482      0             -7956.8972      0              0             -268.28109      216655.95      60.060675      60.060675      60.060675      0.83376606     523.57959     -430.90932      744.77987    
    497000   994000         474.89148     -294.44784      20452.097      21385.819      11379.697      10006.122      3940.268       3862.3324      10078.925      0             -7875.4042      0              0             -267.31746      217436.95      60.132757      60.132757      60.132757      0.83077129    -305.9815       24.971746     -602.33376    
    498000   996000         473.91349      139.87283      22059.076      21611.876      11356.262      10255.614      3942.3926      3866.7798      10233.494      0             -7787.0519      0              0             -265.13602      219225.95      60.297224      60.297224      60.297224      0.82399177     173.8837       163.42149      82.313306    
    499000   998000         478.65595      368.42779      22814.739      21625.721      11469.904      10155.817      4006.2695      3752.0624      10143.824      0             -7746.3397      0              0             -262.66403      221289.13      60.485791      60.485791      60.485791      0.8163093     -106.42101      430.82542      780.87896    
    500000   1000000        487.50546      306.45009      22792.928      21790.224      11681.963      10108.261      3918.73        3813.1822      10027.644      0             -7651.2955      0              0             -259.07376      224355.78      60.763916      60.763916      60.763916      0.80515145     1064.2714     -499.30685      354.38567    
Loop time of 877.814 on 1 procs for 500000 steps with 8040 atoms

Performance: 98.426 ns/day, 0.244 hours/ns, 569.597 timesteps/s, 4.580 Matom-step/s
99.5% CPU use with 1 MPI tasks x 1 OpenMP threads

MPI task timing breakdown:
Section |  min time  |  avg time  |  max time  |%varavg| %total
---------------------------------------------------------------
Pair    | 98.406     | 98.406     | 98.406     |   0.0 | 11.21
Bond    | 607.81     | 607.81     | 607.81     |   0.0 | 69.24
Neigh   | 0.35659    | 0.35659    | 0.35659    |   0.0 |  0.04
Comm    | 61.914     | 61.914     | 61.914     |   0.0 |  7.05
Output  | 8.1085     | 8.1085     | 8.1085     |   0.0 |  0.92
Modify  | 76.918     | 76.918     | 76.918     |   0.0 |  8.76
Other   |            | 24.3       |            |       |  2.77

Nlocal:           8040 ave        8040 max        8040 min
Histogram: 1 0 0 0 0 0 0 0 0 0
Nghost:          20742 ave       20742 max       20742 min
Histogram: 1 0 0 0 0 0 0 0 0 0
Neighs:              0 ave           0 max           0 min
Histogram: 1 0 0 0 0 0 0 0 0 0

Total # of neighbors = 0
Ave neighs/atom = 0
Ave special neighs/atom = 5.9701493
Neighbor list builds = 17332
Dangerous builds = 0

# --- Cleanup ---
unfix npt_fix

undump dump_npt

# --- Write Output ---
write_dump all custom npt_pppm_last.dump id type mol x y z xu yu zu vx vy vz modify sort id
write_data /home/arz2/PolyJarvis/data/cis-PBD2/lammps/equil/npt_pppm/npt_pppm_out.data
System init for write_data ...
Generated 3 of 3 mixed pair_coeff terms from arithmetic mixing rule

print "STAGE COMPLETE: NPT T=480.0->480.0K P=50000.0->1.0atm steps=500000"
STAGE COMPLETE: NPT T=480.0->480.0K P=50000.0->1.0atm steps=500000
quit
  | 0.35659    | 0.35659    |   0.0 |  0.04
Comm    | 61.914     | 61.914     | 61.914     |   0.0 |  7.05
Output  | 8.1085     | 8.1085     | 8.1085     |   0.0 |  0.92
Modify  | 76.918     | 76.918     | 76.918     |   0.0 |  8.76
Other   |            | 24.3       |            |       |  2.77

Nlocal:           8040 ave        8040 max        8040 min
Histogram: 1 0 0 0 0 0 0 0 0 0
Nghost:          20742 ave       20742 max       20742 min
Histogram: 1 0 0 0 0 0 0 0 0 0
Neighs:              0 ave           0 max           0 min
Histogram: 1 0 0 0 0 0 0 0 0 0

Total # of neighbors = 0
Ave neighs/atom = 0
Ave special neighs/atom = 5.9701493
Neighbor list builds = 17332
Dangerous builds = 0
System init for write_data ...


---------------------------------------------------------------------
      Device Time Info (average): 
---------------------------------------------------------------------
Data Transfer:   46.8485 s.
Neighbor copy:   2.8308 s.
Neighbor build:  12.8216 s.
Force calc:      330.4796 s.
Device Overhead: 15.5168 s.
CPU Neighbor:    5.6989 s.
CPU Cast/Pack:   40.5501 s.
CPU Driver_Time: 6.4020 s.
CPU Idle_Time:   0.8748 s.
Average split:   1.0000.
Max Mem / Proc:  116.80 MB.
Prefetch mode:   None.
Vector width:    32.
Lanes / atom:    4.
Pair block:      256.
Neigh block:     128.
Neigh mode:      Hybrid (binning on host) with subgroup support.
Neigh sorting:   Unavailable or disabled.
---------------------------------------------------------------------


--------------------------------------------------------------------------
- Using acceleration for lj/cut:
-  with 1 proc(s) per device.
-  with 1 thread(s) per proc.
-  Horizontal vector operations: ENABLED
-  Shared memory system: No
--------------------------------------------------------------------------
Device 0: Quadro RTX 6000, 72 CUs, 23/24 GB, 1.8 GHZ (Mixed Precision)
--------------------------------------------------------------------------

Initializing Device and compiling on process 0...Done.
Initializing Device 0 on core 0...Done.

Generated 3 of 3 mixed pair_coeff terms from arithmetic mixing rule
STAGE COMPLETE: NPT T=480.0->480.0K P=50000.0->1.0atm steps=500000
Cuda driver error 4 in call at file '/home/arz2/lammps/lib/gpu/geryon/nvd_timer.h' in line 98.
Cuda driver error 4 in call at file '/home/arz2/lammps/lib/gpu/geryon/nvd_timer.h' in line 99.
Cuda driver error 4 in call at file '/home/arz2/lammps/lib/gpu/geryon/nvd_timer.h' in line 98.
Cuda driver error 4 in call at file '/home/arz2/lammps/lib/gpu/geryon/nvd_timer.h' in line 99.
Cuda driver error 4 in call at file '/home/arz2/lammps/lib/gpu/geryon/nvd_timer.h' in line 98.
Cuda driver error 4 in call at file '/home/arz2/lammps/lib/gpu/geryon/nvd_timer.h' in line 99.
