LAMMPS data file via write_data, version 22 Jul 2025, timestep = 1000000, units = real

2020 atoms
6 atom types
2010 bonds
7 bond types
3800 angles
12 angle types
4770 dihedrals
14 dihedral types
2400 impropers
11 improper types

0.567398974987217 29.579085125014736 xlo xhi
0.567398974987217 29.579085125014736 ylo yhi
0.567398974987217 29.579085125014736 zlo zhi

Masses

1 12.01115
2 12.01115
3 1.00797
4 1.00797
5 32.064
6 32.064

Pair Coeffs # lj/class2/coul/long/gpu

1 0.054 4.01
2 0.054 4.01
3 0.02 2.995
4 0.02 2.995
5 0.071 4.027
6 0.071 4.027

Bond Coeffs # class2

1 1.53 299.67 -501.77 679.81
2 1.101 345 -691.89 844.6
3 1.823 225.277 -327.706 488.972
4 1.101 345 -691.89 844.6
5 1.823 225.277 -327.706 488.972
6 1.823 225.277 -327.706 488.972
7 1.3261 275.112 -531.318 562.963

Angle Coeffs # class2

1 112.67 39.516 -7.443 -9.5583
2 110.77 41.453 -10.604 5.129
3 112.564 47.0276 -10.679 -10.1687
4 112.564 47.0276 -10.679 -10.1687
5 97.5 57.6938 -5.0559 -11.8206
6 110.77 41.453 -10.604 5.129
7 112.564 47.0276 -10.679 -10.1687
8 96.8479 56.7336 14.2713 0
9 107.66 39.641 -12.921 -2.4318
10 107.852 51.4949 -13.527 7.026
11 107.852 51.4949 -13.527 7.026
12 107.852 51.4949 -13.527 7.026

BondBond Coeffs

1 0 1.53 1.53
2 3.3872 1.53 1.101
3 10.9186 1.53 1.823
4 10.9186 1.53 1.823
5 -22.3144 1.823 1.823
6 3.3872 1.53 1.101
7 10.9186 1.53 1.823
8 -0.57 1.823 1.3261
9 5.3316 1.101 1.101
10 7.0463 1.101 1.823
11 7.0463 1.101 1.823
12 7.0463 1.101 1.823

BondAngle Coeffs

1 8.016 8.016 1.53 1.53
2 20.754 11.421 1.53 1.101
3 -3.5621 22.3865 1.53 1.823
4 -3.5621 22.3865 1.53 1.823
5 -13.0015 -13.0015 1.823 1.823
6 20.754 11.421 1.53 1.101
7 -3.5621 22.3865 1.53 1.823
8 10.7325 5.1221 1.823 1.3261
9 18.103 18.103 1.101 1.101
10 9.3225 44.9874 1.101 1.823
11 9.3225 44.9874 1.101 1.823
12 9.3225 44.9874 1.101 1.823

Dihedral Coeffs # class2

1 0 0 0.0316 0 -0.1681 0
2 -0.7017 0 0.0201 0 0.104 0
3 -0.4871 0 -0.4514 0 -0.1428 0
4 -0.5073 0 0.0155 0 -0.0671 0
5 -0.3338 0 -0.0684 0 -0.1706 0
6 -0.5073 0 0.0155 0 -0.0671 0
7 -0.3338 0 -0.0684 0 -0.1706 0
8 -0.1432 0 0.0617 0 -0.1083 0
9 -0.2078 0 -0.106 0 -0.3595 0
10 -0.2078 0 -0.106 0 -0.3595 0
11 -0.2078 0 -0.106 0 -0.3595 0
12 -0.5374 0 -0.5091 0 -0.1361 0
13 -1.2002 0 -1.2999 0 -0.1626 0
14 -1.2002 0 -1.2999 0 -0.1626 0

AngleAngleTorsion Coeffs

1 -16.164 112.67 110.77
2 -26.71 112.67 112.564
3 -28.1728 112.564 96.8479
4 -32.8949 112.564 97.5
5 -26.49 97.5 107.852
6 -32.8949 112.564 97.5
7 -26.49 97.5 107.852
8 -12.564 110.77 110.77
9 -13.1026 110.77 112.564
10 -13.1026 110.77 112.564
11 -13.1026 110.77 112.564
12 -18.6334 107.852 96.8479
13 -13.9674 112.564 112.564
14 -13.9674 112.564 112.564

EndBondTorsion Coeffs

1 0.2486 0.2422 -0.0925 0.0814 0.0591 0.2219 1.53 1.101
2 -0.1586 -0.7244 -0.2608 -0.7991 -0.959 0.5855 1.53 1.823
3 0.1026 0.0936 -0.0404 -0.3008 0.0606 0.4501 1.53 1.3261
4 -0.2542 -0.7984 -0.6525 -0.3047 -0.0109 -0.3763 1.53 1.823
5 0.2592 -0.0166 0.1306 -0.41 0.0668 0.4187 1.823 1.101
6 -0.2542 -0.7984 -0.6525 -0.3047 -0.0109 -0.3763 1.53 1.823
7 0.2592 -0.0166 0.1306 -0.41 0.0668 0.4187 1.823 1.101
8 0.213 0.312 0.0777 0.213 0.312 0.0777 1.101 1.101
9 -0.1526 -0.371 0.1048 1.0661 0.3298 0.425 1.101 1.823
10 -0.1526 -0.371 0.1048 1.0661 0.3298 0.425 1.101 1.823
11 -0.1526 -0.371 0.1048 1.0661 0.3298 0.425 1.101 1.823
12 0.4376 0.2001 -1.0696 0.2902 0.0695 0.1726 1.101 1.3261
13 -0.3252 0.5008 0.5191 -0.3252 0.5008 0.5191 1.823 1.823
14 -0.3252 0.5008 0.5191 -0.3252 0.5008 0.5191 1.823 1.823

MiddleBondTorsion Coeffs

1 -14.879 -3.6581 -0.3138 1.53
2 -4.2593 -5.6468 -3.3835 1.53
3 0.502 -1.0204 -0.9177 1.823
4 -2.5172 -2.0107 -2.8547 1.823
5 -0.6955 -2.9427 -1.2372 1.823
6 -2.5172 -2.0107 -2.8547 1.823
7 -0.6955 -2.9427 -1.2372 1.823
8 -14.261 -0.5322 -0.4864 1.53
9 -5.7537 -2.0104 0.2813 1.53
10 -5.7537 -2.0104 0.2813 1.53
11 -5.7537 -2.0104 0.2813 1.53
12 -0.3729 0.5373 -0.7035 1.823
13 1.7001 -3.3479 -0.8067 1.53
14 1.7001 -3.3479 -0.8067 1.53

BondBond13 Coeffs

1 0 1.53 1.101
2 0 1.53 1.823
3 0 1.53 1.3261
4 0 1.53 1.823
5 0 1.823 1.101
6 0 1.53 1.823
7 0 1.823 1.101
8 0 1.101 1.101
9 0 1.101 1.823
10 0 1.101 1.823
11 0 1.101 1.823
12 0 1.101 1.3261
13 0 1.823 1.823
14 0 1.823 1.823

AngleTorsion Coeffs

1 -0.2454 0 -0.1136 0.3113 0.4516 -0.1988 112.67 110.77
2 -2.0927 -0.1498 -1.7848 1.1179 0.3638 0.9423 112.67 112.564
3 -0.6045 3.8941 0.8885 1.0193 -0.6016 0.2097 112.564 96.8479
4 5.1289 2.0927 -2.4004 -4.5489 0.0886 0.6237 112.564 97.5
5 -1.0888 -0.2 -0.0909 0.5962 3.3479 0.2265 97.5 107.852
6 5.1289 2.0927 -2.4004 -4.5489 0.0886 0.6237 112.564 97.5
7 -1.0888 -0.2 -0.0909 0.5962 3.3479 0.2265 97.5 107.852
8 -0.8085 0.5569 -0.2466 -0.8085 0.5569 -0.2466 110.77 110.77
9 -2.0382 0.2102 -0.9023 0.3322 -0.0519 -0.3553 110.77 112.564
10 -2.0382 0.2102 -0.9023 0.3322 -0.0519 -0.3553 110.77 112.564
11 -2.0382 0.2102 -0.9023 0.3322 -0.0519 -0.3553 110.77 112.564
12 -2.2533 2.6948 -0.1723 1.434 -0.1915 -0.2611 107.852 96.8479
13 -5.0565 -0.6355 0.6015 -5.0565 -0.6355 0.6015 112.564 112.564
14 -5.0565 -0.6355 0.6015 -5.0565 -0.6355 0.6015 112.564 112.564

Improper Coeffs # class2

1 0 0
2 0 0
3 0 0
4 0 0
5 0 0
6 0 0
7 0 0
8 0 0
9 0 0
10 0 0
11 0 0

AngleAngle Coeffs

1 0.2738 -0.4825 0.2738 110.77 110.77 107.66
2 2.7985 -3.0031 -0.0668 110.77 112.564 107.852
3 -0.3157 -0.3157 -0.3157 107.66 107.66 107.66
4 0.5086 0.5086 -0.064 107.66 107.852 107.852
5 -1.3199 -1.3199 0.1184 112.67 110.77 110.77
6 -0.2564 -0.2564 -0.8766 112.67 112.564 112.564
7 -0.2564 -0.2564 -0.8766 112.67 112.564 112.564
8 2.7985 -3.0031 -0.0668 110.77 112.564 107.852
9 2.7985 -3.0031 -0.0668 110.77 112.564 107.852
10 -0.0668 -3.0031 2.7985 112.564 110.77 107.852
11 -0.0668 -3.0031 2.7985 112.564 110.77 107.852

Atoms # full

1149 6 3 0.053 4.620468898632658 5.174286267762531 4.643872371731072 1 1 -1
1146 6 1 -0.159 5.036028587778625 4.49682824596171 5.428163343278263 1 1 -1
1148 6 3 0.053 4.538626563550476 3.5253727435686364 5.248638122141288 1 1 -1
1152 6 3 0.053 5.916104939219656 5.54873939871153 2.8029681345739528 1 1 -1
1161 6 1 -0.041 4.934818383885345 1.552451648746588 1.9319578115058353 1 1 -1
1160 6 6 -0.13 4.319119556467076 3.2536341189976867 1.6916715092705825 1 1 -1
1154 6 2 0.012 5.920942944927616 4.047889767135858 1.2370527029463863 1 1 -1
202 1 4 0.1392 1.7820503838785149 5.1776651504706805 4.380942057573906 0 1 0
200 1 5 -0.2042 1.424168455726471 4.005284596885165 4.02276241539845 0 1 0
198 1 3 0.053 1.8760113185041705 1.7976935236862623 5.388871276655301 0 1 0
1165 6 3 0.053 3.376279322922912 0.789390841838754 3.215389363188893 1 1 -1
1172 6 3 0.053 1.1147722627305312 1.3850580850958631 2.464629356053969 1 1 -1
196 1 1 -0.159 0.84897691506171 1.959037315137329 5.728663098258465 0 1 0
1163 6 3 0.053 5.6515926001011225 1.6232871338601322 2.782054663338121 1 1 -1
635 4 3 0.053 2.7527030769917538 5.7294680138270735 0.8279548419493318 1 0 1
194 1 2 0.012 0.5926232548553919 3.504810137057466 5.550513202974576 0 1 0
632 4 1 -0.159 1.7409185927267772 6.168075620725274 0.8667241799120444 1 0 1
1162 6 3 0.053 5.446363673115851 1.1394627225192029 1.0367260643037433 1 1 -1
634 4 3 0.053 1.0642142761963258 5.2354163014081925 0.7611154421999471 1 0 1
1145 6 3 0.053 6.893805121610039 5.587599802264269 5.3373406508142835 1 1 -1
1144 6 2 0.012 6.534099068329075 4.5728269458633095 5.354686465397515 1 1 -1
1151 6 1 -0.041 6.579166929065785 4.767078504901961 2.4260939829470876 1 1 -1
1153 6 3 0.053 7.373160072507652 5.443754033570812 2.069118418996602 1 1 -1
1150 6 6 -0.13 7.132361976883979 3.7001623169663995 3.8580242225219505 1 1 -1
1155 6 3 0.053 6.613877148267514 3.1668825731591284 0.9047089225419104 1 1 -1
1261 7 3 0.053 11.06434177755979 2.5836630557154923 2.9583424391955737 0 0 1
1253 7 1 -0.041 10.924116830955578 1.3875912647067925 5.345158720164593 0 0 1
1259 7 3 0.053 11.020691631829825 3.943031353129397 4.202385506256061 0 0 1
771 4 3 0.053 10.82613028412504 1.147972268029016 1.2178484768166689 1 1 1
1255 7 3 0.053 10.398225829583614 2.1024141460867387 6.038979502717946 0 0 1
763 4 3 0.053 11.978602006496587 5.656973669476181 1.497115069289539 1 1 1
1258 7 1 -0.159 11.645063490894461 3.129807020937075 3.701254399429102 0 0 1
1254 7 3 0.053 10.26496632285073 1.0591988847390865 4.419962634359294 0 0 1
1143 6 3 0.053 8.321330617972531 3.5984707151929944 6.23226591858947 1 1 -1
1264 7 3 0.053 12.733154500881536 5.211041278961912 6.19119770233197 0 0 1
1256 7 2 0.012 12.113880832191493 2.114180880422078 4.71820783755885 0 0 1
1260 7 3 0.053 12.454050892608382 3.535972552334378 3.1206844541217276 0 0 1
1262 7 6 -0.13 13.306372422167943 2.7799861593530757 6.061757070970411 0 0 1
272 2 6 -0.13 14.88897785470391 5.638293193509781 3.2869914941158607 0 0 0
1257 7 3 0.053 12.811460573680717 1.2846251003228342 4.286484928809482 0 0 1
633 4 3 0.053 1.5221198495783865 6.619721045272405 1.8901130988399204 1 0 1
639 4 3 0.053 1.0939398406082255 9.458254366087623 1.581671130566221 1 0 1
1907 10 3 0.053 1.6748055983612802 7.240520289972246 6.027087390979855 0 0 1
1762 9 1 -0.159 5.153366815619384 11.70249546525995 3.170300427657354 0 0 0
1760 9 2 0.012 5.226292407747562 11.378140124659794 1.6144521597609323 0 0 0
1764 9 3 0.053 5.0197217460058425 10.826787944860406 3.8397926378408296 0 0 0
1761 9 3 0.053 4.211622928599004 11.044601628306603 1.359075530323083 0 0 0
1900 10 3 0.053 2.3983416261983246 9.54853941764307 5.675213767203145 0 0 1
649 4 3 0.053 1.1283169732631342 11.925849685166986 1.7791347062601872 1 0 1
1927 10 3 0.053 10.679537286279212 6.441823468371156 4.055480759277783 0 0 1
1925 10 3 0.053 9.113945851753785 6.771942624141543 3.365407137527674 0 0 1
1924 10 1 -0.159 10.144739373150085 7.2796815392205465 3.689642223372255 0 0 1
1923 10 3 0.053 8.891717706096536 9.045704983630506 3.869688678127161 0 0 1
1922 10 2 0.012 9.759131321920446 8.556467467172347 4.486036294872896 0 0 1
1921 10 3 0.053 8.566215451950807 7.137932210917978 5.664726933387843 0 0 1
1933 10 3 0.053 9.659618695782944 10.736029909771919 2.0956617527366497 0 0 1
1928 10 6 -0.13 11.062002299870475 9.737208978397598 4.813491864372439 0 0 1
1931 10 3 0.053 9.22357030430697 11.30152582980818 4.573480264257292 0 0 1
1929 10 1 -0.041 10.229802034474051 11.203846763374617 4.232004262183411 0 0 1
1932 10 2 0.012 10.242774089564195 11.512537387119503 2.670504329905202 0 0 1
1926 10 3 0.053 10.741458326462041 7.56072137265724 2.79550714715874 0 0 1
1919 10 1 -0.041 9.176965387366417 8.076857176237208 5.845480657476573 0 0 1
1930 10 3 0.053 10.781942490533224 12.019180962611252 4.85242960659549 0 0 1
1766 9 6 -0.13 6.436841230094703 10.030845211124642 1.3552346440496856 0 0 0
1938 10 6 -0.13 11.937374703186052 11.673074413403583 1.9451454245994695 0 0 1
269 2 3 0.053 13.325192272750314 7.864785631456247 2.6747245235462063 0 0 0
265 2 3 0.053 13.959875448964278 7.730770492390834 5.275609199592658 0 0 0
268 2 1 -0.159 14.328116394167068 8.09915408712604 2.3514364269673314 0 0 0
264 2 3 0.053 14.826313603417976 9.264298331237107 4.432564157246997 0 0 0
270 2 3 0.053 14.45743690593566 7.602438452045789 1.33661902877843 0 0 0
271 2 3 0.053 14.529666052730459 9.198349377642492 2.3343371037232714 0 0 0
263 2 1 -0.041 14.866886053880455 8.143223212117013 4.7584000893398715 0 0 0
1765 9 3 0.053 4.259124076329869 12.302620259867151 3.425529155524507 0 0 0
1757 9 1 -0.041 5.619181245586985 12.632152171774054 0.8786512891047464 0 0 0
1763 9 3 0.053 6.103373939201162 12.137013609225892 3.5554916526793208 0 0 0
656 4 6 -0.13 2.3167430057956926 14.585479772784314 0.5858743129882353 1 0 1
1885 10 3 0.053 2.5267835247039456 14.563745568289942 3.315729746415189 0 0 1
1758 9 3 0.053 5.079714273936723 13.498861452128637 1.3370830989948528 0 0 0
1887 10 3 0.053 1.9102152042976146 13.078622619712368 3.899844160601127 0 0 1
1884 10 1 -0.159 1.9210605374879657 14.165228463517085 4.146314461648173 0 0 1
1886 10 3 0.053 0.8985507630152147 14.608865799201961 4.127615971329131 0 0 1
1882 10 2 0.012 2.5479676135553624 14.404647756884987 5.436679187216945 0 0 1
1883 10 3 0.053 3.4891265490779753 13.821972164532237 5.5058021060761275 0 0 1
1007 5 3 0.053 5.728162776625044 13.753499060261719 6.162052528095951 0 1 0
1001 5 3 0.053 9.20412730433691 14.516543226001323 5.323813976650254 0 1 0
1759 9 3 0.053 6.673209129885143 12.874798879450047 1.0965262996918428 0 0 0
1936 10 3 0.053 9.615910620289812 13.20991008209449 1.4149019158202718 0 0 1
1934 10 1 -0.159 9.401152052703907 12.82871606241483 2.4894969569395786 0 0 1
1935 10 3 0.053 8.289422877662636 12.581628678235875 2.547998453295218 0 0 1
1937 10 3 0.053 9.613309978646027 13.66703849719545 3.166041933331104 0 0 1
1006 5 3 0.053 6.660520017900494 14.116313158490685 4.7587151428881365 0 1 0
1005 5 3 0.053 6.974243595676638 12.631379846325574 5.625619135926266 0 1 0
1004 5 1 -0.159 6.702019769091138 13.676424295414067 5.711843464004111 0 1 0
1147 6 3 0.053 4.575322573359078 4.772948994449523 6.462567900446631 1 1 -1
195 1 3 0.053 1.1973773140516344 4.163311390189838 6.362734905141947 0 1 0
1124 6 2 0.012 5.343037493625431 0.8818520560184842 10.432541391991874 1 1 -1
1121 6 1 -0.041 4.0603696559400735 0.9184313754237552 11.27084222400268 1 1 -1
1125 6 3 0.053 4.993421788697335 0.974359553840465 9.359550273730372 1 1 -1
1122 6 3 0.053 3.516000909824418 1.889108911435338 11.110720046835285 1 1 -1
1905 10 3 0.053 2.2647477658037376 6.147939411100645 7.2562076256862005 0 0 1
63 1 3 0.053 3.5091482664501554 6.051227135450156 11.489203773838351 0 1 0
70 1 6 -0.13 1.1605414836343408 5.53071172148181 9.95179037710774 0 1 0
197 1 3 0.053 0.7984939388406035 1.6335860421071284 6.828436472423278 0 1 0
1130 6 6 -0.13 6.326142488083826 2.430716891343478 10.795182380098664 1 1 -1
1138 6 3 0.053 8.387484029021024 4.530135028279977 10.955574387463633 1 1 -1
1140 6 6 -0.13 7.349764130479334 4.53232780030504 8.091061130536156 1 1 -1
1141 6 1 -0.041 7.296175616159591 3.7796369397902057 6.445735319779841 1 1 -1
1142 6 3 0.053 6.759280031855303 2.9025477760181606 6.557346359877567 1 1 -1
1132 6 3 0.053 7.108281858128139 1.6316472899580914 8.626741645157347 1 1 -1
1134 6 2 0.012 8.446095335190652 3.356688599077382 9.093139802985924 1 1 -1
1131 6 1 -0.041 7.6218554091539685 2.1500472373601314 9.49222422147171 1 1 -1
1136 6 1 -0.159 9.123033926359847 4.109125480236589 10.204949224407466 1 1 -1
1265 7 3 0.053 11.486473423941067 4.278350786568592 6.846943889888947 0 0 1
1135 6 3 0.053 9.176441005038736 2.943788317528824 8.309973613836167 1 1 -1
1133 6 3 0.053 8.32844253304986 1.3734828930976317 9.896829512247443 1 1 -1
1139 6 3 0.053 9.889748930168487 3.564080289569897 10.787936348247932 1 1 -1
1247 7 3 0.053 9.915014774461747 0.9134195432731658 8.13518365724494 0 0 1
1137 6 3 0.053 9.54896688348129 4.993284702460048 9.819392934878294 1 1 -1
1270 7 3 0.053 11.503032558484218 5.902522885824502 8.814444637092867 0 0 1
1251 7 3 0.053 8.193837154900862 0.901361952867897 6.401994154624776 0 0 1
1272 7 6 -0.13 12.701767665042302 3.2278854797311767 9.43190531346744 0 0 1
1263 7 1 -0.041 12.602289349612288 4.320981780295147 6.8039705572954885 0 0 1
1268 7 1 -0.159 12.570463506919834 5.869078461416613 8.774859028519357 0 0 1
1266 7 2 0.012 13.144085546653704 4.574863207947123 8.249086389952456 0 0 1
1267 7 3 0.053 14.198516873452755 4.620729650950319 8.325640071352936 0 0 1
1273 7 1 -0.041 14.168945149935693 3.2134237053445447 10.631275878380354 0 0 1
1275 7 3 0.053 14.822070404040389 4.064919216603203 10.520241674348641 0 0 1
1269 7 3 0.053 12.932980308413974 6.185267529013289 9.76631739971225 0 0 1
1281 7 3 0.053 13.579330345395084 0.8793348959072144 11.443246435351627 0 0 1
1274 7 3 0.053 14.808374799508899 2.399826859163899 10.270522902374257 0 0 1
66 1 1 -0.159 0.9989491106664448 8.38345410071388 10.465298662084948 0 1 0
65 1 3 0.053 1.1128522345879315 6.852600793542122 12.039412090695713 0 1 0
1894 10 1 -0.159 3.030957327500498 11.690988263050519 9.886165334508986 0 0 1
62 1 3 0.053 3.449416092466474 7.399058106895203 10.212319604344273 0 1 0
1908 10 6 -0.13 4.894079132812173 7.994332831522014 6.4697576772295164 0 0 1
1904 10 1 -0.159 2.1186747291261865 7.174076033238392 7.035652424417697 0 0 1
1906 10 3 0.053 1.2301582025277709 7.367881793372246 7.687142275097364 0 0 1
1902 10 2 0.012 3.2097245096581224 8.337064541988353 7.2187723737303555 0 0 1
1899 10 1 -0.041 2.5922081656722558 9.649924363724333 6.698870207230154 0 0 1
1901 10 3 0.053 1.585510775319668 9.780641419345109 7.12791159079698 0 0 1
58 1 3 0.053 5.602884850935075 10.295125420469144 11.400675201417341 0 1 0
1903 10 3 0.053 3.4034909567052503 8.551614398178582 8.307859888299904 0 0 1
1898 10 6 -0.13 3.564683605793382 11.187274275207539 7.08822345669697 0 0 1
1910 10 3 0.053 5.435971101222529 7.608580337033024 8.819969375842843 0 0 1
1911 10 3 0.053 5.579157533885894 9.317434314701798 8.336053822777611 0 0 1
64 1 2 0.012 1.546564371235453 7.028150280178781 11.016438659804171 0 1 0
61 1 1 -0.041 3.125728024893531 7.06189391400022 11.189196105752247 0 1 0
55 1 3 0.053 5.606251588364096 7.6362678620049484 11.5930192935355 0 1 0
1897 10 3 0.053 2.2544442114147154 12.016334798832792 10.55484887208382 0 0 1
1895 10 3 0.053 3.3060464955435633 10.554278047252705 10.02958170806916 0 0 1
1909 10 1 -0.041 5.774587939262681 8.254683209558918 8.004045647178312 0 0 1
1893 10 3 0.053 1.6016343288319832 11.284272087766688 8.403985472297567 0 0 1
1892 10 2 0.012 2.5206714757322684 11.900669292413365 8.487843001696561 0 0 1
67 1 3 0.053 1.229924375894198 9.200560706193555 11.139129688692364 0 1 0
69 1 3 0.053 1.4187350953615248 8.584003525206176 9.449390572434933 0 1 0
1920 10 3 0.053 9.959275677617232 7.7773931305442 6.615761230606723 0 0 1
1918 10 6 -0.13 8.0113343525568 9.192589815642606 6.636182081897624 0 0 1
1913 10 3 0.053 7.460292829980982 7.048256790388964 7.461659273397811 0 0 1
1912 10 2 0.012 7.348182540783104 8.044516474161707 7.837035520207864 0 0 1
1915 10 3 0.053 9.107518743721144 7.77554771440541 9.185632179184266 0 0 1
1914 10 1 -0.159 8.060056261155466 8.120616121491656 9.211056522876538 0 0 1
1916 10 3 0.053 7.640822486725187 7.520041428553048 10.057394515979714 0 0 1
1917 10 3 0.053 8.052479788758458 9.15111565285796 9.562193721272047 0 0 1
603 3 3 0.053 10.540220523077837 9.642980151999616 12.035035426070127 -1 0 -1
1301 7 3 0.053 14.370885205758947 10.274944887750781 10.828399489899523 0 0 1
1298 7 1 -0.159 14.594591742767507 9.241222806571788 11.089732748606682 0 0 1
1271 7 3 0.053 12.800407495012934 6.702531196074036 8.15186538412119 0 0 1
1299 7 3 0.053 14.790155998657747 8.750844609330583 10.128173796857025 0 0 1
1300 7 3 0.053 13.733736345723345 8.820308832075176 11.548471407745488 0 0 1
260 2 3 0.053 14.838508508283182 10.442299626351522 6.320771434741895 0 0 0
1359 7 3 0.053 5.310115087882938 14.760281147928627 10.82549803914 0 0 1
1896 10 3 0.053 3.9623848443950247 12.260606730822802 10.113756780134697 0 0 1
1891 10 3 0.053 1.8856969851481922 13.888651820380124 8.990332816915783 0 0 1
459 3 3 0.053 0.6224476701039416 14.653739387105391 11.44382146953197 0 0 0
1361 7 3 0.053 4.80372220326334 13.313997649846852 11.711583088122682 0 0 1
1890 10 3 0.053 3.2747486940115036 13.839614705893027 7.936496462143563 0 0 1
1889 10 1 -0.041 2.311375456269937 13.339266324454918 8.149624448591958 0 0 1
1888 10 6 -0.13 1.3905359418872147 13.676695012784469 6.668282185580092 0 0 1
1358 7 1 -0.159 5.20854658444975 14.30845022229995 11.810548468843432 0 0 1
1000 5 3 0.053 9.430850449531857 13.34685304693561 6.6869840280139865 0 1 0
1336 7 2 0.012 11.939961390578258 14.652493825855789 10.776697529510926 0 0 1
1002 5 2 0.012 7.648538441760691 14.420143267787054 6.699017257333761 0 1 0
1008 5 5 -0.2042 7.210496675094029 13.872172553423189 8.315701975287556 0 1 0
1010 5 4 0.1392 7.218888956083294 12.542470684230276 8.051959258504901 0 1 0
1337 7 3 0.053 11.260893148218818 14.268139818548205 10.00448458803449 0 0 1
999 5 1 -0.041 9.087287184242339 14.320154856059782 6.374366498036984 0 1 0
1333 7 1 -0.041 13.317957342935976 14.861624533802367 10.144757985651836 0 0 1
1335 7 3 0.053 13.636325653337604 13.915485666626425 9.606937205064318 0 0 1
996 5 3 0.053 12.963887613635421 15.010644983114494 6.7687702724144385 0 1 0
825 5 3 0.053 1.2015905907803655 4.907796306717312 13.168703539100976 1 2 -1
826 5 3 0.053 2.1723696052739387 6.286325436250167 13.837630355445953 1 2 -1
50 1 6 -0.13 5.363669521904348 6.086669978191283 14.03780214498939 0 1 0
824 5 1 -0.159 1.8511640217726806 5.243023233208742 13.990029018465389 1 2 -1
827 5 3 0.053 2.7800506193369543 4.628565637398008 13.80794405132652 1 2 -1
1123 6 3 0.053 4.204928153146193 0.807015238741039 12.43028329390341 1 1 -1
43 1 3 0.053 8.18265622101846 5.5915631176661424 14.500500547043075 0 1 0
37 1 3 0.053 9.637261137912612 0.8523000394115876 13.603276665549377 0 1 0
36 1 1 -0.159 10.001599060781524 1.6426225730831412 14.235070673500783 0 1 0
39 1 3 0.053 10.553198244217015 2.3178448310812794 13.638116954923284 0 1 0
40 1 6 -0.13 7.840863901184121 3.262133214882016 14.256018478696477 0 1 0
38 1 3 0.053 10.847555638385675 1.2196416970249582 14.884136982899351 0 1 0
1284 7 3 0.053 14.40282605684747 3.7844970557314017 14.669423638514177 0 0 1
1279 7 3 0.053 12.101179806449995 1.6117905308438756 12.151108277180246 0 0 1
1276 7 2 0.012 13.861350796112264 2.970434297851274 12.128424782216257 0 0 1
1278 7 1 -0.159 13.243957779983612 1.5889122626715002 12.237834735610669 0 0 1
1282 7 6 -0.13 12.916851175562003 4.214861893515787 12.95258067164928 0 0 1
1283 7 1 -0.041 13.992802000969661 4.691317043653648 14.359812346970555 0 0 1
1280 7 3 0.053 13.365573895842388 1.0194029241493463 13.219872062477991 0 0 1
1277 7 3 0.053 14.851570747401787 2.8564071914845046 12.68269796574123 0 0 1
1285 7 3 0.053 13.358524300432153 5.248982914141841 15.062291752090598 0 0 1
56 1 1 -0.159 5.98987584965433 9.635969729865783 12.196948694060223 0 1 0
52 1 3 0.053 6.184982175085493 8.370529108145597 14.560568660401634 0 1 0
54 1 2 0.012 5.479843297247658 8.255890510553815 12.43089138530083 0 1 0
57 1 3 0.053 5.699428385563126 10.197112984630161 13.114098477410487 0 1 0
51 1 1 -0.041 6.176823400998425 7.6747380600657715 13.673676780857852 0 1 0
60 1 6 -0.13 3.561303850695018 8.246889634935565 12.543400957325845 0 1 0
598 3 2 0.012 10.875370717638972 8.723744548889526 14.031786133804378 -1 0 -1
599 3 3 0.053 11.85918361250927 9.092615110001175 13.97581868133603 -1 0 -1
604 3 5 -0.2042 10.923231146528256 7.061791080754512 13.413429158303375 -1 0 -1
53 1 3 0.053 7.24683010809021 7.555915157734003 13.550973904765208 0 1 0
606 3 4 0.1392 11.801747372292501 6.620153118953962 14.33889277760518 -1 0 -1
59 1 3 0.053 7.092430406739592 9.57938511699797 12.083942247461454 0 1 0
602 3 3 0.053 9.082979806593443 9.261304148173336 12.830749932976548 -1 0 -1
601 3 3 0.053 10.054094469815558 10.706842346110115 13.458564566361048 -1 0 -1
600 3 1 -0.159 10.141410195228097 9.607869454597406 13.078870404834095 -1 0 -1
1292 7 6 -0.13 14.742008883943424 7.359093022458118 13.622357229282631 0 0 1
1683 9 3 0.053 14.107915344431412 10.549781708879888 14.533726960412299 0 0 -1
1360 7 3 0.053 4.328764336304122 14.778901920130853 12.235288686199567 0 0 1
1365 7 3 0.053 3.747903835107423 14.18702334423415 14.907171543193439 0 0 1
461 3 3 0.053 1.4452872580686855 12.726106337574635 12.719640404160169 0 0 0
456 3 3 0.053 1.2431796768309675 14.76304226123624 14.023601473023188 0 0 0
1362 7 6 -0.13 6.165426339919857 13.693751144873051 14.5122049047679 0 0 1
1364 7 3 0.053 4.1584246724405 12.722305124794158 13.894523044554873 0 0 1
1363 7 1 -0.041 4.461933966006498 13.347025418709896 14.737490377762787 0 0 1
1357 7 3 0.053 7.305572349125454 14.089454133028505 12.530291093716171 0 0 1
1338 7 1 -0.159 11.97698089883668 13.872269708513015 12.140837115697511 0 0 1
1356 7 2 0.012 6.3344035676974215 14.526621126724448 12.840621285270112 0 0 1
1339 7 3 0.053 10.9923422399885 13.575168023920368 12.5011294185436 0 0 1
1340 7 3 0.053 12.451454050087468 14.509011110605218 12.888230712183494 0 0 1
1341 7 3 0.053 12.572477404753613 12.950311112919172 12.088258817180556 0 0 1
1684 9 3 0.053 13.731219035255075 12.231406780711557 14.409187668639815 0 0 -1
29 1 3 0.053 4.261332211665479 2.3532889615007004 16.81659780915188 0 1 0
26 1 1 -0.159 4.625974689498817 1.2750314126760103 16.652781897597432 0 1 0
28 1 3 0.053 5.074343957132781 1.2676651060767803 15.679027109070235 0 1 0
22 1 3 0.053 4.827198210294963 1.7066197820775117 19.390357579500723 0 1 0
823 5 3 0.053 2.016716903724915 5.261650191138292 16.218754197696782 1 2 -1
21 1 1 -0.041 5.373937750440686 0.7464866730135108 19.091177612907604 0 1 0
24 1 2 0.012 5.837168240127168 0.9261903575388234 17.581257006620042 0 1 0
614 4 3 0.053 2.3583573627490395 6.031448784491928 19.36789804648273 1 0 0
822 5 2 0.012 1.2935710436581878 4.945752174240863 15.411720214503378 1 2 -1
833 5 3 0.053 1.3338259097818508 1.1584004183865453 17.751810793841408 1 2 -1
830 5 3 0.053 0.8363540486878076 3.633537325652551 18.084275148789686 1 2 -1
828 5 6 -0.13 0.9833466490499171 3.1555136412986617 15.681513893340824 1 2 -1
44 1 2 0.012 6.306572920653442 5.3357956433750005 15.403366539111765 0 1 0
46 1 1 -0.159 6.232869999674757 6.298386313761464 16.598542547222927 0 1 0
807 4 3 0.053 4.693499605255805 6.072354267694476 20.222738211747824 1 0 0
835 5 3 0.053 1.2004210800989095 2.151028643601805 19.893452251010203 1 2 -1
612 4 1 -0.159 1.8997179254797232 5.885753773272636 20.32894076396378 1 0 0
615 4 3 0.053 1.7312075459608218 4.7942078640013275 20.293333318729946 1 0 0
45 1 3 0.053 5.758343061250187 4.430070586642407 15.633066820982654 0 1 0
48 1 3 0.053 6.6655107453192874 5.952308051444403 17.510938985256246 0 1 0
42 1 3 0.053 8.310831505342884 4.8926850492540765 16.024832089336513 0 1 0
30 1 6 -0.13 7.223171440818947 2.144480639983372 17.37201699131113 0 1 0
31 1 1 -0.041 8.176859424088732 1.2773464146514462 16.10594838686731 0 1 0
744 4 3 0.053 8.762133565029595 4.1194601562373405 19.847443587083784 1 1 0
745 4 3 0.053 10.220352556496854 3.2350831888066685 20.052576323313403 1 1 0
743 4 3 0.053 8.632380900041941 2.4452066755875386 20.38702279136035 1 1 0
742 4 1 -0.159 9.182936069877833 3.381655022102287 20.468970035961313 1 1 0
41 1 1 -0.041 7.6891938000762 4.904331659253373 15.150816878867133 0 1 0
35 1 3 0.053 9.614537785005016 2.8878816543015287 16.004948605256395 0 1 0
34 1 2 0.012 9.068479518833646 2.2940760223277463 15.237406709979822 0 1 0
32 1 3 0.053 7.420707016616761 0.8388655713487214 15.426279166597935 0 1 0
572 3 3 0.053 13.01635455698529 4.791685908265451 18.137632634760855 -1 0 -1
570 3 1 -0.159 13.75025098660349 4.645692039388688 19.00379831681373 -1 0 -1
573 3 3 0.053 14.592738462012369 4.051992245410867 18.607093612456165 -1 0 -1
568 3 2 0.012 14.18115317422215 6.0600472426784835 19.532316120907325 -1 0 -1
571 3 3 0.053 13.44337871333882 4.083845565860487 19.89651836236492 -1 0 -1
812 5 2 0.012 0.816538467009911 8.565338036678398 16.284558382751648 1 2 -1
47 1 3 0.053 5.165815117395453 6.490930179814484 16.869348044712343 0 1 0
1372 7 6 -0.13 5.408103755958896 10.848484929823353 15.870772810417325 0 0 1
1374 7 3 0.053 4.933719676150053 10.237526860760099 18.18579685892315 0 0 1
1373 7 1 -0.041 5.866275427443239 10.4226882451893 17.586884349361004 0 0 1
815 5 3 0.053 2.680273381874552 7.389851602070567 16.381922986320582 1 2 -1
1799 9 3 0.053 3.416888653178114 11.79943315139757 19.442874086015475 0 0 -1
814 5 1 -0.159 2.1100116449411486 8.02445002025366 17.044020529633357 1 2 -1
816 5 3 0.053 1.9132319182932285 7.584416100173765 17.999928050572844 1 2 -1
817 5 3 0.053 2.7717425750841156 8.818651945395018 17.44356863117147 1 2 -1
813 5 3 0.053 1.1049862653260245 9.407190973655451 15.649454301048292 1 2 -1
1370 7 3 0.053 2.7503609626369414 11.732419887569142 17.27882028855313 0 0 1
613 4 3 0.053 0.8613205634709258 6.328304311411066 20.36450062457756 1 0 0
1798 9 3 0.053 4.724179751418494 11.912892927343856 20.739384790169648 0 0 -1
1797 9 1 -0.041 3.62580891840737 12.02261214800474 20.489169792685143 0 0 -1
1371 7 3 0.053 2.398600467757004 11.981758831700263 15.673956808711088 0 0 1
597 3 3 0.053 9.31452920392918 8.588780592839486 15.58086525238374 -1 0 -1
49 1 3 0.053 6.611808928252241 7.265840826024543 16.41527842289081 0 1 0
1375 7 3 0.053 6.460883538350527 9.518291840300355 17.548190887058805 0 0 1
593 3 3 0.053 9.924443128071765 6.386879484571872 18.41909483115707 -1 0 -1
594 3 6 -0.13 11.346902670613147 8.01838601281912 16.778498782659074 -1 0 -1
588 3 2 0.012 10.309862440840117 8.48893432310363 18.258182303355742 -1 0 -1
590 3 1 -0.159 9.327423824431596 7.302611608414915 18.505125496451438 -1 0 -1
592 3 3 0.053 8.508894772190066 7.299354571683957 17.75439745218375 -1 0 -1
586 3 3 0.053 10.781544342430749 8.770845168264568 20.415270234628583 -1 0 -1
589 3 3 0.053 9.810981870355768 9.460199552154357 17.877332389816917 -1 0 -1
585 3 1 -0.041 11.282729428142513 8.791655820427787 19.50057457015397 -1 0 -1
591 3 3 0.053 8.879518423917412 7.338152990840999 19.528865420559473 -1 0 -1
587 3 3 0.053 11.919910482218189 7.892218218070675 19.616216051554694 -1 0 -1
1379 7 3 0.053 7.986279901181648 10.499635851506998 19.49647261740635 0 0 1
1376 7 2 0.012 6.660859283273008 11.590392705176763 18.211405031149514 0 0 1
1378 7 1 -0.159 7.129992398463058 11.138385568846411 19.609011341946868 0 0 1
1381 7 3 0.053 6.415945501362848 10.6136720636515 20.218472588751673 0 0 1
596 3 3 0.053 10.405384827788101 9.968271862336005 15.61484571702149 -1 0 -1
1380 7 3 0.053 7.3909898184559255 12.015341693180272 20.199007019189075 0 0 1
1382 7 6 -0.13 8.067664852798677 11.96418513376457 17.067858862306643 0 0 1
595 3 1 -0.041 10.350183549384084 8.904636364205617 15.443069784450005 -1 0 -1
582 3 3 0.053 14.940488407544766 11.190397525551067 20.499760638840286 -1 0 -1
584 3 6 -0.13 12.37141890876441 10.185284735403378 19.47606984719328 -1 0 -1
1685 9 3 0.053 13.493624417133994 11.291018946476173 16.019836716755997 0 0 -1