LAMMPS data file via write_data, version 22 Jul 2025, timestep = 2000000, units = real

7020 atoms
5 atom types
7010 bonds
5 bond types
13000 angles
8 angle types
14970 dihedrals
9 dihedral types
8000 impropers
7 improper types

4.137878173078363 45.18325474692246 xlo xhi
4.137878173078363 45.18325474692246 ylo yhi
4.137878173078363 45.18325474692246 zlo zhi

Masses

1 12.01115
2 1.00797
3 1.00797
4 15.9994
5 15.9994

Pair Coeffs # lj/class2/coul/long/gpu

1 0.054 4.01
2 0.02 2.995
3 0.013 1.098
4 0.24 3.535
5 0.24 3.535

Bond Coeffs # class2

1 1.53 299.67 -501.77 679.81
2 1.101 345 -691.89 844.6
3 1.42 400.395 -835.195 1313.01
4 1.42 400.395 -835.195 1313.01
5 0.965 532.506 -1282.9 2004.77

Angle Coeffs # class2

1 110.77 41.453 -10.604 5.129
2 111.27 54.5381 -8.3642 -13.0838
3 111.27 54.5381 -8.3642 -13.0838
4 104.5 35.7454 -10.0067 -6.2729
5 105.8 52.7061 -12.109 -9.8681
6 107.66 39.641 -12.921 -2.4318
7 108.728 58.5446 -10.8088 -12.4006
8 108.728 58.5446 -10.8088 -12.4006

BondBond Coeffs

1 3.3872 1.53 1.101
2 11.4318 1.53 1.42
3 11.4318 1.53 1.42
4 -7.1131 1.42 1.42
5 -9.6879 1.42 0.965
6 5.3316 1.101 1.101
7 23.1979 1.101 1.42
8 23.1979 1.101 1.42

BondAngle Coeffs

1 20.754 11.421 1.53 1.101
2 2.6868 20.4033 1.53 1.42
3 2.6868 20.4033 1.53 1.42
4 -2.8112 -2.8112 1.42 1.42
5 28.58 18.9277 1.42 0.965
6 18.103 18.103 1.101 1.101
7 4.6189 55.327 1.101 1.42
8 4.6189 55.327 1.101 1.42

Dihedral Coeffs # class2

1 -0.5203 0 -0.3028 0 -0.345 0
2 -0.6732 0 -0.4778 0 -0.167 0
3 0.5302 0 0 0 -0.3966 0
4 -0.1432 0 0.0617 0 -0.1083 0
5 -0.1435 0 0.253 0 -0.0905 0
6 -0.1435 0 0.253 0 -0.0905 0
7 0.1863 0 -0.4338 0 -0.2121 0
8 -0.182 0 -0.1084 0 -0.7047 0
9 -0.182 0 -0.1084 0 -0.7047 0

AngleAngleTorsion Coeffs

1 -19.0059 111.27 104.5
2 -12.1038 111.27 105.8
3 -16.4438 104.5 108.728
4 -12.564 110.77 110.77
5 -20.2006 110.77 111.27
6 -20.2006 110.77 111.27
7 -10.5093 108.728 105.8
8 -14.0484 111.27 111.27
9 -14.0484 111.27 111.27

EndBondTorsion Coeffs

1 -0.2456 1.0517 -0.7795 0.4741 1.2635 0.5576 1.53 1.42
2 -0.58 0.9004 0 0 0.5343 0.9025 1.53 0.965
3 -0.162 0.1564 -1.1408 -0.6054 1.3339 0.9648 1.42 1.101
4 0.213 0.312 0.0777 0.213 0.312 0.0777 1.101 1.101
5 0.9681 0.9551 0.0436 0.5903 0.6669 0.8584 1.101 1.42
6 0.9681 0.9551 0.0436 0.5903 0.6669 0.8584 1.101 1.42
7 -1.7554 1.3145 0.2263 0.2493 0.6803 0 1.101 0.965
8 1.0165 0.7553 -0.4609 1.0165 0.7553 -0.4609 1.42 1.42
9 1.0165 0.7553 -0.4609 1.0165 0.7553 -0.4609 1.42 1.42

MiddleBondTorsion Coeffs

1 -5.9288 -2.7007 -0.3175 1.42
2 1.2472 0 0.7485 1.42
3 -6.8007 -4.6546 -1.4101 1.42
4 -14.261 -0.5322 -0.4864 1.53
5 -16.7975 -1.2296 -0.275 1.53
6 -16.7975 -1.2296 -0.275 1.53
7 0 0.9241 -0.5889 1.42
8 -17.2585 -3.6157 -0.8364 1.53
9 -17.2585 -3.6157 -0.8364 1.53

BondBond13 Coeffs

1 0 1.53 1.42
2 0 1.53 0.965
3 0 1.42 1.101
4 0 1.101 1.101
5 0 1.101 1.42
6 0 1.101 1.42
7 0 1.101 0.965
8 0 1.42 1.42
9 0 1.42 1.42

AngleTorsion Coeffs

1 -2.7466 1.4877 -0.8955 0.5676 0.945 0.0703 111.27 104.5
2 -3.5903 2.5225 0.4888 0.8726 -0.3577 0.3888 111.27 105.8
3 -0.7777 0.434 -0.6653 -1.8234 1.6393 0.5144 104.5 108.728
4 -0.8085 0.5569 -0.2466 -0.8085 0.5569 -0.2466 110.77 110.77
5 2.3668 2.492 -1.0122 -0.1892 0.4918 0.7273 110.77 111.27
6 2.3668 2.492 -1.0122 -0.1892 0.4918 0.7273 110.77 111.27
7 -3.406 1.6396 0.0737 0 -0.281 -0.5944 108.728 105.8
8 0.5511 0.9737 -0.6673 0.5511 0.9737 -0.6673 111.27 111.27
9 0.5511 0.9737 -0.6673 0.5511 0.9737 -0.6673 111.27 111.27

Improper Coeffs # class2

1 0 0
2 0 0
3 0 0
4 0 0
5 0 0
6 0 0
7 0 0

AngleAngle Coeffs

1 0.2738 -0.4825 0.2738 110.77 110.77 107.66
2 3.9177 2.5926 0.1689 110.77 111.27 108.728
3 0.1689 2.5926 3.9177 111.27 110.77 108.728
4 0.1689 2.5926 3.9177 111.27 110.77 108.728
5 -0.3157 -0.3157 -0.3157 107.66 107.66 107.66
6 2.4259 2.4259 2.1283 107.66 108.728 108.728
7 2.4259 2.4259 2.1283 107.66 108.728 108.728

Atoms # full

5173 8 4 -0.266 7.118951775346215 5.175992835974859 7.836666257338322 1 1 0
5170 8 1 0.027 6.023369370144637 5.672879326888498 7.148277974951567 1 1 0
5167 8 1 0.027 5.945745631861685 5.442193745923571 5.5812092730396055 1 1 0
5174 8 1 0.027 7.409578740604845 5.606331315012039 9.13658741258878 1 1 0
5172 8 2 0.053 5.891793328645942 6.7887055594208 7.2329941705441865 1 1 0
5411 8 4 -0.266 8.571799471119814 9.040803173742752 5.781605069809627 1 1 0
5169 8 2 0.053 6.830823018327985 5.802161943602084 5.063761547723684 1 1 0
5406 8 2 0.053 8.753775415545462 6.83729233867879 6.8740562817788025 1 1 0
5171 8 2 0.053 5.1215236612924935 5.256214693819089 7.630568532948361 1 1 0
5168 8 2 0.053 5.915742142967406 4.357971637348647 5.305847988811858 1 1 0
5166 8 4 -0.266 4.8692452708180225 6.187479253557962 5.078287372878862 1 1 0
5410 8 2 0.053 9.12788066570425 9.313127826062408 7.802673770773149 1 1 0
5408 8 1 0.027 9.442949872725867 8.855651227320525 6.842700282322985 1 1 0
1845 3 4 -0.266 6.071512109151346 9.41914573317307 8.084214533506367 0 0 1
5177 8 1 0.027 8.459293011153344 4.669485528757014 9.682998460164558 1 1 0
5405 8 1 0.027 9.631936626456003 7.360844375836766 7.094370556035029 1 1 0
5407 8 2 0.053 9.908589420478553 7.18688201732887 8.126604955376987 1 1 0
5412 8 1 0.027 8.727382380415975 10.334509402738774 5.322164393589315 1 1 0
639 1 2 0.053 31.55764393699317 24.065685978505766 4.596587017637589 -1 0 1
5175 8 2 0.053 7.783759747815594 6.669845601456791 9.140511702773738 1 1 0
5409 8 2 0.053 10.476976338636726 9.148636026326672 6.6262082418923764 1 1 0
5403 8 2 0.053 9.834015194703802 5.256885481043959 5.382516126000755 1 1 0
5404 8 4 -0.266 10.749341927096475 6.960028797143724 6.310342354290925 1 1 0
933 2 4 -0.266 14.716208924412475 9.230274402445348 8.38993650246372 0 0 0
932 2 2 0.053 13.325560677552177 8.549054406610269 6.974849566310605 0 0 0
930 2 1 0.027 14.231767481681528 9.152951256998463 7.081164160527008 0 0 0
934 2 1 0.027 14.938733910984768 7.9133373615430145 9.009463595622588 0 0 0
931 2 2 0.053 14.920338150515247 8.622353688771206 6.362763986838366 0 0 0
5401 8 1 0.027 10.305648364372907 6.190345700461107 5.1000091696113605 1 1 0
935 2 2 0.053 13.982746856586683 7.323350971629903 9.188978050050537 0 0 0
936 2 2 0.053 15.421304014987347 7.343470413223541 8.20163812958394 0 0 0
5484 8 2 0.053 14.38572444088916 4.2006231194817465 8.615498457612121 1 1 0
928 2 2 0.053 13.240312533721609 10.74855684525436 5.825758851748391 0 0 0
927 2 1 0.027 14.048713959270925 10.621916603681198 6.599584849531351 0 0 0
1857 3 2 0.053 10.429127334070072 9.679954647611986 9.817542573759471 0 0 1
5399 8 2 0.053 12.238381182772182 5.378367264064846 4.816991834347757 1 1 0
4269 7 1 0.027 19.21719381326774 5.78610237371493 7.406453166048612 0 0 0
4272 7 1 0.027 18.071635679404203 6.748880849053041 6.977199904962539 0 0 0
4273 7 2 0.053 17.033566003181207 6.420195489927668 7.040857602950302 0 0 0
4274 7 2 0.053 18.2379676843883 6.925840787815821 5.925130023184776 0 0 0
4275 7 4 -0.266 18.14186861723082 8.020976300432089 7.661371297700246 0 0 0
4276 7 1 0.027 18.3225615050984 9.281703130629413 7.00980396803738 0 0 0
4271 7 2 0.053 19.088682585200985 4.832668505668411 6.851966075313416 0 0 0
4270 7 2 0.053 19.229794414909726 5.56645479396277 8.452157170014637 0 0 0
4268 7 4 -0.266 20.46951005566406 6.4178961813724 7.044495637640987 0 0 0
4277 7 2 0.053 17.965159324668114 9.305063336067466 5.949621007497275 0 0 0
4281 7 2 0.053 20.497815687088803 9.310226759771297 6.528417766854798 0 0 0
4278 7 2 0.053 17.66937547555645 9.938690761421332 7.601910221347195 0 0 0
4279 7 1 0.027 19.772781880890676 10.001128115513518 7.027661249364865 0 0 0
4282 7 4 -0.266 20.147326669812756 10.546570866974424 8.306775911738237 0 0 0
5451 8 2 0.053 40.83080001229404 4.9867343234755035 4.514725562682145 0 1 0
4267 7 2 0.053 21.577040936475466 5.661966599010409 8.59652186500743 0 0 0
4265 7 1 0.027 21.62125687243483 5.807365669274542 7.504632313905686 0 0 0
4261 7 4 -0.266 23.095086397951334 6.674411308664935 5.720612021851174 0 0 0
4262 7 1 0.027 22.82709147701191 6.672977627479364 7.15524895960562 0 0 0
4264 7 2 0.053 22.537376488365982 7.7115109876935115 7.447114122926807 0 0 0
4263 7 2 0.053 23.651669149304173 6.40857285362349 7.871592064001483 0 0 0
4258 7 1 0.027 23.77643379529965 5.524765539437112 5.220284642882399 0 0 0
4260 7 2 0.053 23.08491799470045 4.62120412672897 5.018051851343852 0 0 0
4266 7 2 0.053 21.659270001544957 4.741751936026727 7.095666248605376 0 0 0
880 2 2 0.053 26.42179386358388 5.440980633725447 9.62395778298185 0 0 0
4259 7 2 0.053 24.681815572400833 5.23647207687742 5.919038031272063 0 0 0
893 2 2 0.053 27.521169912067155 8.17401226057597 6.102813373007475 0 0 0
48 1 2 0.053 10.921701968950016 19.487993488115507 4.434345108036912 0 0 1
742 2 2 0.053 32.29238289091399 8.45137085940621 5.783916807018366 0 0 0
746 2 2 0.053 30.77873996120106 7.558582053173352 4.45330232188232 0 0 0
912 2 4 -0.266 20.345947099181842 12.428405252824046 4.354880374099628 0 0 0
889 2 2 0.053 30.01596460772797 7.508485665325299 6.861923525035429 0 0 0
884 2 4 -0.266 28.421152872985857 7.18792307580551 8.954285565371103 0 0 0
885 2 1 0.027 29.522584882018606 8.076622434262374 8.844814812803424 0 0 0
890 2 2 0.053 30.81055927864373 8.93378192650527 7.469211092735987 0 0 0
888 2 1 0.027 29.819278404618107 8.470592612754452 7.44112298803049 0 0 0
891 2 4 -0.266 28.925414111016515 9.481478554027053 6.866671172947099 0 0 0
892 2 1 0.027 28.05400472905307 9.055149053352531 5.844863623830895 0 0 0
886 2 2 0.053 30.34962407646555 7.507969295818382 9.254892053554101 0 0 0
3593 6 2 0.053 32.03117330456374 5.180258116535845 7.918673084469245 0 1 1
743 2 2 0.053 32.53914699818323 6.688916740646722 6.06061888244033 0 0 0
894 2 2 0.053 28.693727666316807 8.73500724379796 4.975884186716272 0 0 0
887 2 2 0.053 29.35756964115427 9.059637322611245 9.293981616994984 0 0 0
741 2 1 0.027 32.92122062776402 7.567802754093503 5.525620805444064 0 0 0
879 2 2 0.053 27.846685185728784 4.466693618517217 9.655839156317533 0 0 0
6233 9 1 0.027 43.69447769699232 19.977641292904863 4.522357075699977 -1 0 0
3591 6 1 0.027 32.81183342348949 4.615967580521231 8.396557804007816 0 1 1
739 2 2 0.053 35.05729307203208 7.175786506249857 5.606109437371881 0 0 0
737 2 4 -0.266 34.224622212282284 7.96424206481511 7.370589982176366 0 0 0
3878 6 1 0.027 37.75509572440842 4.543254840379237 7.690862127053467 -1 1 1
738 2 1 0.027 34.32241408257386 7.9256196481388965 5.940953714038283 0 0 0
735 2 2 0.053 36.25222448697306 8.69388565678448 7.421591343979706 0 0 0
3880 6 2 0.053 37.243045457714246 4.653514530369266 6.763620894970877 -1 1 1
3875 6 1 0.027 37.85054289331131 5.870332537777186 8.502757099024407 -1 1 1
734 2 1 0.027 35.204072985833676 8.904879347303224 7.816918068237706 0 0 0
736 2 2 0.053 34.94372722155852 9.992573287179834 7.352545397946297 0 0 0
3876 6 2 0.053 38.550822596739124 6.531851255023427 7.973908721439685 -1 1 1
740 2 2 0.053 34.49220656516363 8.881978967873371 5.441114648266973 0 0 0
3592 6 2 0.053 33.47502800873562 5.404250973551691 8.631183135496325 0 1 1
731 2 1 0.027 35.1505428163201 8.990189192095961 9.32316571585465 0 0 0
733 2 2 0.053 35.481321120351694 8.022752219875933 9.830597804738506 0 0 0
3877 6 2 0.053 36.86499471327102 6.333793399901709 8.47175667001893 -1 1 1
964 2 2 0.053 20.43483087144095 4.707851893826782 21.454178810831124 0 0 0
3874 6 4 -0.266 38.17430302481935 5.683989792897863 9.868413812189814 -1 1 1
33 1 2 0.053 5.898749215987188 23.418833126992855 4.378990169150063 0 0 1
6988 10 2 0.053 39.39402099303934 8.674678821788069 5.947345392238653 -1 1 1
3508 5 5 -0.5571 43.40130240707854 22.172064465360112 22.07494070689513 0 -1 -1
6987 10 1 0.027 40.05249915992529 8.32910447088311 5.151020839451147 -1 1 1
6992 10 2 0.053 40.86832603895383 7.9477795595129255 7.711571199687815 -1 1 1
6991 10 1 0.027 41.69930780742757 7.83903275850709 6.885361193821778 -1 1 1
6994 10 1 0.027 42.59521539171551 6.724829019539531 7.293704701030187 -1 1 1
6997 10 4 -0.266 43.097048221734724 7.038930384192605 8.600713567275122 -1 1 1
6995 10 2 0.053 41.95421703745425 5.801556406699833 7.497462805994408 -1 1 1
6996 10 2 0.053 43.40009336460278 6.598209071564224 6.472169844680665 -1 1 1
6993 10 2 0.053 42.29954321075487 8.71130257079895 6.688509361485561 -1 1 1
6990 10 4 -0.266 41.08485340682035 7.414551774417056 5.689773435417667 -1 1 1
6989 10 2 0.053 40.64099180315505 9.18163322597422 4.80428785080928 -1 1 1
6999 10 2 0.053 44.5002224920555 5.5574833352495725 8.823386871553426 -1 1 1
673 1 1 0.027 33.13394929587464 12.249643592589225 4.611323254247315 -1 0 1
6998 10 1 0.027 43.770951847780516 6.10826395609732 9.446836245654385 -1 1 1
7000 10 2 0.053 43.01637043593028 5.49385919704348 9.976863903573573 -1 1 1
2154 4 2 0.053 24.855329299811466 22.361446537485254 5.13920084883774 0 0 1
3872 6 2 0.053 40.074658071072086 4.74965283312029 9.875462658699938 -1 1 1
1827 3 2 0.053 39.872183365110274 9.210511040465313 10.664306253037678 -1 0 1
1840 3 2 0.053 44.545053107723 9.201242085516526 7.537310821203606 -1 0 1
1843 3 2 0.053 5.5957063747199465 8.789743140800676 6.244972760814328 0 0 1
1847 3 2 0.053 6.422754452730393 11.44604754731902 8.540676930360549 0 0 1
1846 3 1 0.027 6.002219465622829 10.520714572871452 8.951048316137157 0 0 1
1844 3 2 0.053 6.0223761357947625 10.544202874080142 6.29653963056412 0 0 1
1842 3 1 0.027 5.486132951246485 9.70424376539556 6.819767260250028 0 0 1
5225 8 2 0.053 4.7924968865362825 14.32499866362755 6.279281309476904 1 1 0
5223 8 1 0.027 5.845129716549683 14.620381104609159 6.607963150876059 1 1 0
1739 3 2 0.053 9.105711056204225 13.457795477489851 6.194620045222314 0 0 1
5224 8 2 0.053 6.420192121776858 13.772670650082285 6.892568781457671 1 1 0
5413 8 2 0.053 8.481987167750866 11.037594653455141 6.101452508491138 1 1 0
1745 3 2 0.053 9.470325341899436 14.46092577262055 8.637846860635406 0 0 1
5219 8 1 0.027 5.073642515956895 15.559597960069704 8.708873969745326 1 1 0
5226 8 1 0.027 6.518434200471679 15.24664216190556 5.275273494557069 1 1 0
5414 8 2 0.053 9.818418216864865 10.54529116952627 5.06733663369226 1 1 0
1738 3 2 0.053 10.237919991424999 14.820594139259134 6.4097461451868245 0 0 1
1742 3 2 0.053 9.998029812637185 11.99190628191564 8.43685314741273 0 0 1
5216 8 1 0.027 5.16412295228528 14.14927575890671 9.387491768331024 1 1 0
1737 3 1 0.027 10.190032372311558 13.776673051001499 6.13486013971279 0 0 1
1839 3 1 0.027 44.94361345192258 9.922628582119255 6.75681960482761 -1 0 1
954 2 4 -0.266 19.144618900364755 4.2392482203489195 16.039251377682746 0 0 0
1848 3 2 0.053 4.926253735601795 10.762760898346118 9.205030202908796 0 0 1
5217 8 2 0.053 4.860224648995943 13.342613844248216 8.722603004781408 1 1 0
5218 8 2 0.053 6.194966051543759 14.025546753098496 9.79788509352095 1 1 0
3506 5 2 0.053 41.92073378827768 23.17941621114842 21.19715422376741 0 -1 -1
2151 4 2 0.053 27.781378631645854 21.448403736419213 4.621358951462831 0 0 1
1744 3 1 0.027 10.330876792443409 14.009719820186259 9.138543663751083 0 0 1
929 2 2 0.053 13.614296645480282 11.154357050864586 7.475187288107114 0 0 0
1741 3 1 0.027 10.74075368236226 12.81883376820216 8.323157050881123 0 0 1
1743 3 2 0.053 11.620001631145003 12.34790960214545 8.756307987718532 0 0 1
1740 3 4 -0.266 11.11856111222621 13.014882203846305 6.937351869309511 0 0 1
924 2 2 0.053 14.66998426583301 12.903035064805238 6.980178145208953 0 0 0
923 2 1 0.027 15.2608456771542 12.578259592248314 6.107174516026512 0 0 0
925 2 2 0.053 14.568104409302022 12.841833585165046 5.246294616389993 0 0 0
926 2 4 -0.266 15.398478768729401 11.202629474533783 6.3494639000806945 0 0 0
1746 3 2 0.053 11.077701257413484 14.763838040400328 9.312947852435855 0 0 1
59 1 2 0.053 14.85114720730712 15.288497889279178 8.101619736277458 0 0 1
502 1 2 0.053 14.15662343440175 12.14082193459097 9.80705820642493 0 0 1
922 2 2 0.053 16.38115519721876 14.43870349507809 6.131412780703441 0 0 0
920 2 1 0.027 16.588605442283203 13.360132545305666 6.14621897983228 0 0 0
123 1 1 0.027 15.644073836233337 24.419620494073364 20.419356397691367 0 0 1
1804 3 1 0.027 40.68213491686703 4.606043051088946 18.55271120585985 -1 0 1
3507 5 2 0.053 43.349173287341934 24.252055527459657 21.651394353133448 0 -1 -1
4280 7 2 0.053 19.669173935895458 10.913538896468559 6.359996882264596 0 0 0
921 2 2 0.053 17.011903870237738 13.086463508477129 7.176046803799402 0 0 0
919 2 4 -0.266 17.5210819744752 13.007965259320477 5.173881234980814 0 0 0
917 2 2 0.053 19.196428641721734 14.001737194972883 6.075425846000305 0 0 0
916 2 1 0.027 18.593099302984104 13.899947658788202 5.136666043855121 0 0 0
499 1 2 0.053 16.466041960968067 11.263250965323628 9.467935564864206 0 0 1
3616 6 1 0.027 24.7990054762798 4.2790830597538525 18.161562504306602 0 1 1
4288 7 2 0.053 20.789636311303163 12.518027130122936 6.9364883647555535 0 0 0
65 1 2 0.053 18.880874783577713 15.629926262992148 9.051719342510998 0 0 1
500 1 2 0.053 16.529879358954275 12.969699057128102 9.436378718483681 0 0 1
63 1 4 -0.266 16.917795095368497 16.091290255251526 9.569204246974692 0 0 1
789 2 2 0.053 19.356282908840257 5.022076720132442 4.324202529389538 0 0 0
5417 8 2 0.053 6.821449015586787 10.299096222862655 4.332107157527825 1 1 0
898 2 4 -0.266 26.10656677443796 9.519118093380825 4.557441463504524 0 0 0
895 2 1 0.027 27.0548163396958 10.175364769006107 5.418015496770458 0 0 0
4285 7 2 0.053 22.14099975960572 10.38846783671279 7.857318139213642 0 0 0
471 1 2 0.053 26.52582566903694 8.80183906779178 8.556642547488984 0 0 1
4287 7 2 0.053 21.30922065614719 13.298084163151703 8.414755238447563 0 0 0
4284 7 2 0.053 21.745192728512958 11.08939777342349 9.380252133002589 0 0 0
4283 7 1 0.027 21.45215589785326 11.081886997013871 8.370800146067959 0 0 0
4286 7 1 0.027 21.53236211434436 12.502423706240785 7.722573792392536 0 0 0
4289 7 4 -0.266 22.861383236102164 12.675345542071149 7.31279010570511 0 0 0
4290 7 1 0.027 23.040726074703098 13.785495368706425 6.41815089053497 0 0 0
4294 7 2 0.053 25.25692359900687 13.702996248843206 6.761211936789593 0 0 0
4292 7 2 0.053 22.31498502862478 14.55879337114452 6.369763362909092 0 0 0
4293 7 1 0.027 24.500605415566394 14.499954558743644 6.642810479991887 0 0 0
4291 7 2 0.053 23.107656525856555 13.422071062913421 5.394130961900521 0 0 0
4295 7 2 0.053 24.444088837747344 15.04030864413878 7.58734552183736 0 0 0
901 2 2 0.053 24.68799908582197 10.989142405736178 4.990759365207885 0 0 0
467 1 2 0.053 27.071643690344192 12.39613358132511 8.311159017542177 0 0 1
466 1 1 0.027 26.743778413833404 11.97644572341346 9.34231443163366 0 0 1
896 2 2 0.053 26.577960490028527 10.716546313919908 6.278096228202251 0 0 0
908 2 2 0.053 22.4029908574888 11.34873199302071 4.641444026349412 0 0 0
4202 6 2 0.053 22.72530348015113 16.670467266752016 4.528400701384447 0 0 1
666 1 1 0.027 30.59744998243988 12.454192428446484 6.4512949044536185 -1 0 1
667 1 2 0.053 29.804132056346184 11.862082495336999 6.921160374133624 -1 0 1
665 1 4 -0.266 30.13554450983297 13.836868405655416 6.541120978262047 -1 0 1
668 1 2 0.053 31.42242669127936 12.408633630912233 7.126806380771974 -1 0 1
669 1 1 0.027 30.841425932355513 11.977493476677141 5.015709147659145 -1 0 1
465 1 2 0.053 28.651533092610677 12.605269768769451 10.210976197540294 0 0 1
671 1 2 0.053 30.863516729862734 10.864802908398906 4.965809135225902 -1 0 1
6273 9 2 0.053 32.16449769660535 14.532191926333336 8.626115417380237 -1 0 0
462 1 4 -0.266 27.155923963759733 14.16552102349647 10.234469366455087 0 0 1
897 2 2 0.053 27.5535783862966 10.958234596093 4.850448620046883 0 0 0
6269 9 2 0.053 33.68108570114343 14.126705618342948 10.588650670642348 -1 0 0
4408 7 4 -0.266 35.851807086148256 4.5878200969978895 12.440422849271563 0 1 0
3870 6 2 0.053 39.44416324765528 4.649348868424871 12.199068808706256 -1 1 1
283 1 2 0.053 18.84198322638701 24.10347961127341 13.49256303429848 0 0 1
732 2 2 0.053 34.112006917964685 9.08899996929128 9.710917141311253 0 0 0
675 1 2 0.053 33.357704924424326 12.595438806629678 5.632488154380295 -1 0 1
6264 9 1 0.027 35.70791227456478 14.014517456585853 7.914224336561386 -1 0 0
6261 9 1 0.027 36.16373569070018 12.909175020779532 7.018188583839475 -1 0 0
6262 9 2 0.053 35.354535821274084 12.176126011475091 6.67118273689875 -1 0 0
6267 9 4 -0.266 34.66818746106034 13.553685830668462 8.831355728693431 -1 0 0
6268 9 1 0.027 34.09677125324642 14.606997771532283 9.677854989328619 -1 0 0
6266 9 2 0.053 35.27468000839191 14.797544739919095 7.36268521782009 -1 0 0
6265 9 2 0.053 36.59954766401606 14.410443472115844 8.443579499457684 -1 0 0
6260 9 4 -0.266 36.890149353831724 13.409786967200697 5.828750384611456 -1 0 0
6271 9 1 0.027 32.89005470378071 15.299470350436524 8.997835762981861 -1 0 0
6270 9 2 0.053 34.853509283224774 15.308046164835147 10.012882003285402 -1 0 0
6263 9 2 0.053 36.854776525683704 12.277738865188565 7.586153074578856 -1 0 0
6257 9 1 0.027 37.38874744932195 12.322318035865617 5.071747910796569 -1 0 0
28 1 4 -0.266 4.532986654427405 23.705600571315294 6.462168862137519 0 0 1
2934 5 4 -0.266 37.34328505996397 24.467242971885344 23.685177822171926 0 0 -1
6888 10 2 0.053 14.086180265829825 23.918253464113594 5.30843564523029 0 0 1
6250 9 1 0.027 40.41923871216442 13.071010259725352 4.316720261551478 -1 0 0
6247 9 1 0.027 41.5276095863891 14.082246153273037 4.309237836772954 -1 0 0
1837 3 2 0.053 42.49688737257427 10.999550214837718 6.633406453359968 -1 0 1
1836 3 2 0.053 43.1278288942951 12.530269446334724 7.380359305871637 -1 0 1
1835 3 1 0.027 43.21390646680274 11.422230681699574 7.453567333125384 -1 0 1
1832 3 1 0.027 42.71776609969674 11.07920945697564 8.896215571780337 -1 0 1
1831 3 4 -0.266 41.30553063017354 11.30373944655883 8.885173745890732 -1 0 1
1833 3 2 0.053 43.004911264540745 9.995286164114999 9.251421928280449 -1 0 1
6252 9 2 0.053 40.42844914688898 12.500588512338156 5.297855309612085 -1 0 0
1834 3 2 0.053 43.27039110044374 11.765650936149974 9.57408841170595 -1 0 1
6246 9 4 -0.266 41.950408372480645 14.584685694826515 5.538370204284359 -1 0 0
545 1 2 0.053 40.146500884208024 13.763865713974464 8.84465031522577 -1 0 1
544 1 2 0.053 39.91582496887352 14.795170743528224 7.436875552907464 -1 0 1
6258 9 2 0.053 38.04741155963855 11.794222823902345 5.722220639726132 -1 0 0
4962 8 2 0.053 5.874141385212996 24.575794640935808 10.092634853039849 1 0 0
1826 3 2 0.053 41.60474008141391 9.352931999048687 10.833377580346706 -1 0 1
1829 3 2 0.053 39.71487564942626 11.62840993080182 10.120296357828707 -1 0 1
1828 3 1 0.027 40.6937766774064 11.238658791022232 10.199382256420805 -1 0 1
4919 8 2 0.053 35.02638164933744 24.05761892147643 14.79635005230345 0 0 0
1841 3 2 0.053 44.580481442444956 9.780464235572303 5.7889934826469585 -1 0 1
5220 8 2 0.053 45.05892872838696 15.738121638443147 8.460689881481326 0 1 0
1838 3 4 -0.266 44.61014692752003 11.248414244974205 7.2147490203214915 -1 0 1
45 1 2 0.053 8.540581310162732 17.55442167704883 5.292203918710942 0 0 1
5222 8 4 -0.266 5.90400499507709 15.70286759904362 7.5505022912314885 1 1 0
5227 8 2 0.053 7.440174231911364 15.783616516255316 5.586306561661416 1 1 0
5221 8 2 0.053 5.515289792637664 16.3431170160382 9.353904771520845 1 1 0
2680 4 4 -0.266 6.315155801993977 18.702938229592185 8.343958134865527 0 -1 0
2677 4 1 0.027 7.235552648701327 19.354757287096014 9.163234834040747 0 -1 0
2679 4 2 0.053 7.561089602942406 20.29520308624985 8.667489076028183 0 -1 0
2674 4 1 0.027 8.472971729325046 18.418427602480733 9.193566369665358 0 -1 0
2675 4 2 0.053 8.990805876537177 18.42759878065796 8.16550726966885 0 -1 0
2676 4 2 0.053 8.22384327919981 17.439837385784845 9.506056063698237 0 -1 0
2682 4 2 0.053 5.499630981219207 20.530745864242235 7.694992849915391 0 -1 0
5228 8 2 0.053 5.813659109353198 16.039271220764896 5.073548825141315 1 1 0
918 2 2 0.053 18.210499802938088 14.8862784559201 4.9285845101358206 0 0 0
44 1 2 0.053 9.012693163868981 19.177825167064157 5.9187171178942535 0 0 1
43 1 1 0.027 9.059208708974829 18.489258228720516 5.032756752934261 0 0 1
2681 4 1 0.027 5.214323181888107 19.508134121933296 7.9408838715368715 0 -1 0
4150 6 2 0.053 26.7167536062284 8.951108528186602 24.388700070942626 0 0 1
2673 4 4 -0.266 9.445535098777388 18.845709421149202 10.140944653778647 0 -1 0
2678 4 2 0.053 6.8249779327625335 19.549072699714305 10.126908715886806 0 -1 0
55 1 2 0.053 12.797042217274647 15.960162720116886 6.750380778939457 0 0 1
57 1 1 0.027 15.03441086003773 16.356269290073385 8.149603002307288 0 0 1
58 1 2 0.053 14.48215180901707 16.705729779462473 9.03207589604225 0 0 1
54 1 2 0.053 12.823020342187753 17.312763493842233 7.810126210904492 0 0 1
56 1 4 -0.266 14.573080870633728 17.00921489335599 6.9849441691174565 0 0 1
53 1 1 0.027 13.188394354504458 16.96327589823116 6.867165977270089 0 0 1
50 1 1 0.027 12.656270332087358 17.888957723701605 5.741571697319957 0 0 1
51 1 2 0.053 13.174760724658373 18.852217946619653 5.854484896334247 0 0 1
352 1 2 0.053 12.53759326311661 20.992505681724744 8.971854845457916 0 0 1
2672 4 2 0.053 11.064329128197437 18.869065789269726 8.865964800404786 0 -1 0
49 1 4 -0.266 11.27783908449617 18.073583562105696 5.92312304793216 0 0 1
5529 8 2 0.053 16.291075360355578 20.001111859126816 6.964831009572122 1 1 0
2661 4 2 0.053 15.404290502132339 18.79500608984427 9.76698582746701 0 -1 0
349 1 2 0.053 15.094708983488491 22.279391827548256 8.239347367966563 0 0 1
46 1 1 0.027 10.575826970123442 18.477496537644164 4.7767121088517515 0 0 1
2670 4 1 0.027 10.738625083336377 18.340676795902464 9.797159963507973 0 -1 0
2671 4 2 0.053 10.77157826234934 17.282104258085447 9.641731966347457 0 -1 0
6241 9 2 0.053 42.30896069416193 17.491855650849143 5.77431951231789 -1 0 0
4840 7 2 0.053 5.748494080350251 4.2131117410249965 17.507205958436387 1 1 0
61 1 2 0.053 17.124203469827524 16.295687021742904 7.44061416700025 0 0 1
4199 6 2 0.053 20.413811276265758 16.678172714998713 5.334718080501966 0 0 1
4194 6 2 0.053 20.08034770568163 16.97197075841991 7.640671783876112 0 0 1
60 1 1 0.027 16.517016249117876 16.66307156500039 8.347944839357048 0 0 1
62 1 2 0.053 16.68622956680817 17.765393176967443 8.395233403762546 0 0 1
5527 8 1 0.027 16.477946922149965 20.734254285335062 6.232661222548861 1 1 0
4195 6 2 0.053 20.225513695190042 18.79480522417933 7.580055818457257 0 0 1
4193 6 1 0.027 20.7603231655981 17.881869314760035 7.636752414202579 0 0 1
4197 6 1 0.027 20.995501972918976 17.595546506402677 5.3026856035288 0 0 1
4198 6 2 0.053 20.296141547694198 18.43527850816863 5.039487051271823 0 0 1
2644 4 2 0.053 21.322616499731392 20.413404287963274 7.057531031215994 0 -1 0
2642 4 1 0.027 21.66225900653637 21.478314221007672 6.954227401037422 0 -1 0
5530 8 4 -0.266 17.46437735567264 21.66438283068284 6.798408735095601 1 1 0
2638 4 4 -0.266 21.506536770770836 21.236571386524894 4.515431926764762 0 -1 0
66 1 2 0.053 18.659987255933103 17.17442128459667 10.037363384501948 0 0 1
4196 6 4 -0.266 21.644189581468655 17.835087046051292 6.599866315962469 0 0 1
64 1 1 0.027 18.300298291322882 16.13455282518837 9.855913963841113 0 0 1
2658 4 2 0.053 17.20867728661657 19.99212901580684 9.489148839908003 0 -1 0
4190 6 1 0.027 21.407157396192083 17.675645579713105 9.049648265124167 0 0 1
4192 6 2 0.053 20.749396854036124 17.939504288664686 9.885917278803426 0 0 1
5524 8 1 0.027 16.930380595429867 20.184988544109263 4.85852710051125 1 1 0
4189 6 4 -0.266 21.753008933027242 16.272754491388106 9.14620310997148 0 0 1
5185 8 2 0.053 11.294489108165497 4.851074354688942 13.233934314268986 1 1 0
5525 8 2 0.053 17.930054548691416 19.738323268481164 5.0015881841687655 1 1 0
3617 6 2 0.053 24.63884093363032 4.5613206687123045 17.163757821899438 0 1 1
4296 7 4 -0.266 24.756061106166435 15.330279230834906 5.555484771157971 0 0 0
4298 7 2 0.053 26.528261106544893 15.853301357527831 6.320050856422572 0 0 0
4299 7 2 0.053 26.410003379985877 16.147708710850754 4.699472618223398 0 0 0
4200 6 1 0.027 22.01164070798727 17.425861456355605 4.200159013340661 0 0 1
4845 7 2 0.053 7.937631099219169 4.354595806617209 20.21131541314244 1 1 0
2643 4 2 0.053 22.74220708362014 21.46685432438323 7.053989782859525 0 -1 0
4297 7 1 0.027 25.844279709737076 16.223253343412814 5.6406734671136345 0 0 0
4191 6 2 0.053 22.333182179694717 18.349355713884563 9.06898859408005 0 0 1
4305 7 2 0.053 24.49188970928074 19.800958805796668 7.369082276048417 0 0 0
4302 7 2 0.053 24.77361961573986 18.025814030077736 5.237269713862878 0 0 0
4304 7 1 0.027 25.451270007120712 19.300086768671868 7.659161244304947 0 0 0
4303 7 4 -0.266 25.51949616547184 17.924079534281965 7.256945090082399 0 0 0
4306 7 2 0.053 26.329933567082005 19.851448339185215 7.252501385813007 0 0 0
4300 7 1 0.027 25.618364906808882 17.73088780326156 5.8729743235183225 0 0 0
4307 7 1 0.027 25.466322002224004 19.317766770057926 9.205345060357342 0 0 0
4301 7 2 0.053 26.52487379959615 18.2421129496093 5.495449608912816 0 0 0
2153 4 2 0.053 25.34964506015403 20.749006775688198 4.708150736058624 0 0 1
4308 7 2 0.053 26.520514610129887 18.995779677689825 9.559451765394911 0 0 0
457 1 2 0.053 27.1781830522324 16.785784963927078 9.979120462354821 0 0 1
662 1 1 0.027 30.888255148021305 14.917631965216822 6.04960786144315 -1 0 1
31 1 2 0.053 6.413681218085189 24.062016939129105 7.182871993724339 0 0 1
6274 9 4 -0.266 32.29167420633874 16.012285402978776 10.059289632024864 -1 0 0
6277 9 2 0.053 30.201499522036173 16.54184211096386 9.51378948446131 -1 0 0
659 1 1 0.027 29.909983082710696 16.008986541696537 5.506986792786358 -1 0 1
664 1 2 0.053 31.575610191412224 15.312895879672608 6.796426771191269 -1 0 1
653 1 2 0.053 30.098579563428665 18.53998746268688 6.881056271196934 -1 0 1
648 1 1 0.027 32.36276747740155 20.51837109002324 6.757022699805383 -1 0 1
650 1 2 0.053 33.10760875747224 20.123182044374012 7.4603951098170365 -1 0 1
6275 9 1 0.027 31.185947127410593 17.01025778624259 9.907227642892646 -1 0 0
651 1 4 -0.266 31.862764829749793 19.3821593814109 6.048195649300999 -1 0 1
652 1 1 0.027 30.47049699157775 19.16940212949788 6.0805021468243305 -1 0 1