units real
atom_style full
boundary p p p

# --- Force Field Styles ---
pair_style lj/class2/coul/long 9.5 9.5
kspace_style pppm 1e-6
dielectric 1.000000
bond_style class2
angle_style class2
dihedral_style class2
improper_style class2
special_bonds lj/coul 0 0 1
pair_modify mix sixthpower tail yes
neighbor 2.0 bin
neigh_modify delay 0 every 1 check yes
neigh_modify one 4000
# KOKKOS: package loaded via -pk kokkos on the command line

read_data /home/alexzhao/PolyJarvis/data/PVC3/lammps/equil/npt_pppm/npt_pppm_out.data
Reading data file ...
  orthogonal box = (5.390312 5.390312 5.390312) to (42.995183 42.995183 42.995183)
  1 by 1 by 1 MPI processor grid
  reading atoms ...
  3620 atoms
  reading velocities ...
  3620 velocities
  scanning bonds ...
  4 = max bonds/atom
  scanning angles ...
  12 = max angles/atom
  scanning dihedrals ...
  24 = max dihedrals/atom
  scanning impropers ...
  10 = max impropers/atom
  orthogonal box = (5.390312 5.390312 5.390312) to (42.995183 42.995183 42.995183)
  1 by 1 by 1 MPI processor grid
  reading bonds ...
  3610 bonds
  reading angles ...
  7200 angles
  reading dihedrals ...
  10710 dihedrals
  reading impropers ...
  4800 impropers
Finding 1-2 1-3 1-4 neighbors ...
  special bond factors lj:    0        0        1       
  special bond factors coul:  0        0        1       
     4 = max # of 1-2 neighbors
     6 = max # of 1-3 neighbors
    10 = max # of special neighbors
  special bonds CPU = 0.002 seconds
  read_data CPU = 0.171 seconds
include /home/alexzhao/PolyJarvis/data/PVC3/lammps/equil/emc_build.params
# LAMMPS parameters created by EMC v9.4.4, build Jul 31 2025 20:33:44

# Variables

variable	seed		index	472913
variable	ntotal		index	3620
variable	fshape		index	1
variable	output		index	emc_build
variable	field		index	pcff/pcff
variable	location1	index	~/emc/field/
variable	nav		index	0.6022141179
variable	temperature	index	300
variable	radius		index	5
variable	nrelax		index	100
variable	weight_nonbond	index	0.0001
variable	weight_bond	index	0.0001
variable	weight_focus	index	1
variable	cutoff		index	9.5
variable	charge_cutoff	index	9.5
variable	kappa		index	4
variable	density1	index	0.55
variable	lprevious	index	0
variable	lphase		index	48.3854950346
variable	f_poly		index	10
variable	chem_repeat	index	*CC(Cl)*
variable	chem_cap	index	*[H]
variable	lg_repeat	index	6
variable	lg_cap		index	1
variable	norm_poly	index	100
variable	l_poly		index	362
variable	mg_repeat	index	50.48806
variable	mg_cap		index	1.00797
variable	m_poly		index	3031.29954
variable	n_poly		index	10
variable	mtotal		index	37519.6854
variable	nphase1		index	3620
variable	mphase1		index	37519.6854
variable	vphase1		index	113277.998291
variable	lbox		index	48.3854950346
variable	lphase1		index	48.3854950346
variable	lxx		index	48.3854950346
variable	lyy		index	48.3854950346
variable	lzz		index	48.3854950346
variable	lzy		index	0
variable	lzx		index	0
variable	lyx		index	0
variable	vtotal		index	113277.998291
variable	nl_poly		index	10

# Types

variable	type_c		index	1
variable	type_c1		index	2
variable	type_cl		index	3
variable	type_hc		index	4

variable	type_bond_c_c	index	1
variable	type_bond_c_c1	index	2
variable	type_bond_c_cl	index	3
variable	type_bond_c_hc	index	4
variable	type_bond_c1_cl	index	5
variable	type_bond_c1_hc	index	6

variable	type_angle_c_c_c1 index	1
variable	type_angle_c_c_cl index	2
variable	type_angle_c_c_hc index	3
variable	type_angle_c_c1_c index	4
variable	type_angle_c_c1_cl index	5
variable	type_angle_c_c1_hc index	6
variable	type_angle_c1_c_c1 index	7
variable	type_angle_c1_c_hc index	8
variable	type_angle_cl_c_hc index	9
variable	type_angle_cl_c1_hc index	10
variable	type_angle_hc_c_hc index	11

# Clusters

variable	n0_poly		index	1
variable	n1_poly		index	10
variable	nl_poly		index	10

# Flags

variable	flag_charged	index	1

# Masses

mass		1    12.01115  # c
mass		2    12.01115  # c1
mass		3    35.45300  # cl
mass		4     1.00797  # hc

# Potentials

pair_modify	mix sixthpower tail yes
special_bonds	lj/coul 0 0 1

# Pair Coeffs

pair_coeff	 1  1    0.05400    4.01000  # c,c
pair_coeff	 2  2    0.05400    4.01000  # c1,c1
pair_coeff	 3  3    0.22470    3.92000  # cl,cl
pair_coeff	 4  4    0.02000    2.99500  # hc,hc

# Bond Coeffs

bond_coeff	1    1.53000  299.67000 -501.77000  679.81000  # c,c
bond_coeff	2    1.53000  299.67000 -501.77000  679.81000  # c,c1
bond_coeff	3    1.79000  194.31900    0.00000    0.00000  # c,cl
bond_coeff	4    1.10100  345.00000 -691.89000  844.60000  # c,hc
bond_coeff	5    1.79000  194.31900    0.00000    0.00000  # c1,cl
bond_coeff	6    1.10100  345.00000 -691.89000  844.60000  # c1,hc

# Angle Coeffs

angle_coeff	 1  112.67000   39.51600   -7.44300   -9.55830  # c,c,c1
angle_coeff	 2  107.00000   61.17450    0.00000    0.00000  # c,c,cl
angle_coeff	 3  110.77000   41.45300  -10.60400    5.12900  # c,c,hc
angle_coeff	 4  112.67000   39.51600   -7.44300   -9.55830  # c,c1,c
angle_coeff	 5  107.00000   61.17450    0.00000    0.00000  # c,c1,cl
angle_coeff	 6  110.77000   41.45300  -10.60400    5.12900  # c,c1,hc
angle_coeff	 7  112.67000   39.51600   -7.44300   -9.55830  # c1,c,c1
angle_coeff	 8  110.77000   41.45300  -10.60400    5.12900  # c1,c,hc
angle_coeff	 9  107.99680   51.09870    0.00000    0.00000  # cl,c,hc
angle_coeff	10  107.99680   51.09870    0.00000    0.00000  # cl,c1,hc
angle_coeff	11  107.66000   39.64100  -12.92100   -2.43180  # hc,c,hc

# BondBond Coeffs

angle_coeff	 1 bb    0.00000    1.53000    1.53000  # c,c,c1
angle_coeff	 2 bb    0.00000    1.53000    1.79000  # c,c,cl
angle_coeff	 3 bb    3.38720    1.53000    1.10100  # c,c,hc
angle_coeff	 4 bb    0.00000    1.53000    1.53000  # c,c1,c
angle_coeff	 5 bb    0.00000    1.53000    1.79000  # c,c1,cl
angle_coeff	 6 bb    3.38720    1.53000    1.10100  # c,c1,hc
angle_coeff	 7 bb    0.00000    1.53000    1.53000  # c1,c,c1
angle_coeff	 8 bb    3.38720    1.53000    1.10100  # c1,c,hc
angle_coeff	 9 bb    0.00000    1.79000    1.10100  # cl,c,hc
angle_coeff	10 bb    0.00000    1.79000    1.10100  # cl,c1,hc
angle_coeff	11 bb    5.33160    1.10100    1.10100  # hc,c,hc

# BondAngle Coeffs

angle_coeff	 1 ba    8.01600    8.01600    1.53000    1.53000  # c,c,c1
angle_coeff	 2 ba    0.00000    0.00000    1.53000    1.79000  # c,c,cl
angle_coeff	 3 ba   20.75400   11.42100    1.53000    1.10100  # c,c,hc
angle_coeff	 4 ba    8.01600    8.01600    1.53000    1.53000  # c,c1,c
angle_coeff	 5 ba    0.00000    0.00000    1.53000    1.79000  # c,c1,cl
angle_coeff	 6 ba   20.75400   11.42100    1.53000    1.10100  # c,c1,hc
angle_coeff	 7 ba    8.01600    8.01600    1.53000    1.53000  # c1,c,c1
angle_coeff	 8 ba   20.75400   11.42100    1.53000    1.10100  # c1,c,hc
angle_coeff	 9 ba    0.00000    0.00000    1.79000    1.10100  # cl,c,hc
angle_coeff	10 ba    0.00000    0.00000    1.79000    1.10100  # cl,c1,hc
angle_coeff	11 ba   18.10300   18.10300    1.10100    1.10100  # hc,c,hc

# Dihedral Coeffs

dihedral_coeff	 1    0.00000    0.00000    0.05140    0.00000   -0.14300    0.00000  # c,c,c1,c
dihedral_coeff	 2    0.00000    0.00000    0.00000    0.00000    0.15000    0.00000  # c,c,c1,cl
dihedral_coeff	 3    0.00000    0.00000    0.03160    0.00000   -0.16810    0.00000  # c,c,c1,hc
dihedral_coeff	 4    0.00000    0.00000    0.05140    0.00000   -0.14300    0.00000  # c,c1,c,c1
dihedral_coeff	 5    0.00000    0.00000    0.03160    0.00000   -0.16810    0.00000  # c,c1,c,hc
dihedral_coeff	 6    0.00000    0.00000    0.00000    0.00000    0.15000    0.00000  # c1,c,c,cl
dihedral_coeff	 7    0.00000    0.00000    0.03160    0.00000   -0.16810    0.00000  # c1,c,c,hc
dihedral_coeff	 8    0.00000    0.00000    0.00000    0.00000    0.15000    0.00000  # c1,c,c1,cl
dihedral_coeff	 9    0.00000    0.00000    0.03160    0.00000   -0.16810    0.00000  # c1,c,c1,hc
dihedral_coeff	10    0.00000    0.00000    0.00000    0.00000   -0.10000    0.00000  # cl,c,c,hc
dihedral_coeff	11    0.00000    0.00000    0.00000    0.00000   -0.10000    0.00000  # cl,c1,c,hc
dihedral_coeff	12   -0.14320    0.00000    0.06170    0.00000   -0.10830    0.00000  # hc,c,c,hc
dihedral_coeff	13   -0.14320    0.00000    0.06170    0.00000   -0.10830    0.00000  # hc,c,c1,hc

# MiddleBondTorsion Coeffs

dihedral_coeff	 1 mbt  -17.78700   -7.18770    0.00000    1.53000  # c,c,c1,c
dihedral_coeff	 2 mbt    0.00000    0.00000    0.00000    1.53000  # c,c,c1,cl
dihedral_coeff	 3 mbt  -14.87900   -3.65810   -0.31380    1.53000  # c,c,c1,hc
dihedral_coeff	 4 mbt  -17.78700   -7.18770    0.00000    1.53000  # c,c1,c,c1
dihedral_coeff	 5 mbt  -14.87900   -3.65810   -0.31380    1.53000  # c,c1,c,hc
dihedral_coeff	 6 mbt    0.00000    0.00000    0.00000    1.53000  # c1,c,c,cl
dihedral_coeff	 7 mbt  -14.87900   -3.65810   -0.31380    1.53000  # c1,c,c,hc
dihedral_coeff	 8 mbt    0.00000    0.00000    0.00000    1.53000  # c1,c,c1,cl
dihedral_coeff	 9 mbt  -14.87900   -3.65810   -0.31380    1.53000  # c1,c,c1,hc
dihedral_coeff	10 mbt    0.00000    0.00000    0.00000    1.53000  # cl,c,c,hc
dihedral_coeff	11 mbt    0.00000    0.00000    0.00000    1.53000  # cl,c1,c,hc
dihedral_coeff	12 mbt  -14.26100   -0.53220   -0.48640    1.53000  # hc,c,c,hc
dihedral_coeff	13 mbt  -14.26100   -0.53220   -0.48640    1.53000  # hc,c,c1,hc

# EndBondTorsion Coeffs

dihedral_coeff	 1 ebt   -0.07320    0.00000    0.00000   -0.07320    0.00000    0.00000    1.53000    1.53000  # c,c,c1,c
dihedral_coeff	 2 ebt    0.00000    0.00000    0.00000    0.00000    0.00000    0.00000    1.53000    1.79000  # c,c,c1,cl
dihedral_coeff	 3 ebt    0.24860    0.24220   -0.09250    0.08140    0.05910    0.22190    1.53000    1.10100  # c,c,c1,hc
dihedral_coeff	 4 ebt   -0.07320    0.00000    0.00000   -0.07320    0.00000    0.00000    1.53000    1.53000  # c,c1,c,c1
dihedral_coeff	 5 ebt    0.24860    0.24220   -0.09250    0.08140    0.05910    0.22190    1.53000    1.10100  # c,c1,c,hc
dihedral_coeff	 6 ebt    0.00000    0.00000    0.00000    0.00000    0.00000    0.00000    1.53000    1.79000  # c1,c,c,cl
dihedral_coeff	 7 ebt    0.24860    0.24220   -0.09250    0.08140    0.05910    0.22190    1.53000    1.10100  # c1,c,c,hc
dihedral_coeff	 8 ebt    0.00000    0.00000    0.00000    0.00000    0.00000    0.00000    1.53000    1.79000  # c1,c,c1,cl
dihedral_coeff	 9 ebt    0.24860    0.24220   -0.09250    0.08140    0.05910    0.22190    1.53000    1.10100  # c1,c,c1,hc
dihedral_coeff	10 ebt    0.00000    0.00000    0.00000    0.00000    0.00000    0.00000    1.79000    1.10100  # cl,c,c,hc
dihedral_coeff	11 ebt    0.00000    0.00000    0.00000    0.00000    0.00000    0.00000    1.79000    1.10100  # cl,c1,c,hc
dihedral_coeff	12 ebt    0.21300    0.31200    0.07770    0.21300    0.31200    0.07770    1.10100    1.10100  # hc,c,c,hc
dihedral_coeff	13 ebt    0.21300    0.31200    0.07770    0.21300    0.31200    0.07770    1.10100    1.10100  # hc,c,c1,hc

# AngleTorsion Coeffs

dihedral_coeff	 1 at    0.38860   -0.31390    0.13890    0.38860   -0.31390    0.13890  112.67000  112.67000  # c,c,c1,c
dihedral_coeff	 2 at    0.00000    0.00000    0.00000    0.00000    0.00000    0.00000  112.67000  107.00000  # c,c,c1,cl
dihedral_coeff	 3 at   -0.24540    0.00000   -0.11360    0.31130    0.45160   -0.19880  112.67000  110.77000  # c,c,c1,hc
dihedral_coeff	 4 at    0.38860   -0.31390    0.13890    0.38860   -0.31390    0.13890  112.67000  112.67000  # c,c1,c,c1
dihedral_coeff	 5 at   -0.24540    0.00000   -0.11360    0.31130    0.45160   -0.19880  112.67000  110.77000  # c,c1,c,hc
dihedral_coeff	 6 at    0.00000    0.00000    0.00000    0.00000    0.00000    0.00000  112.67000  107.00000  # c1,c,c,cl
dihedral_coeff	 7 at   -0.24540    0.00000   -0.11360    0.31130    0.45160   -0.19880  112.67000  110.77000  # c1,c,c,hc
dihedral_coeff	 8 at    0.00000    0.00000    0.00000    0.00000    0.00000    0.00000  112.67000  107.00000  # c1,c,c1,cl
dihedral_coeff	 9 at   -0.24540    0.00000   -0.11360    0.31130    0.45160   -0.19880  112.67000  110.77000  # c1,c,c1,hc
dihedral_coeff	10 at    0.00000    0.00000    0.00000    0.00000    0.00000    0.00000  107.00000  110.77000  # cl,c,c,hc
dihedral_coeff	11 at    0.00000    0.00000    0.00000    0.00000    0.00000    0.00000  107.00000  110.77000  # cl,c1,c,hc
dihedral_coeff	12 at   -0.80850    0.55690   -0.24660   -0.80850    0.55690   -0.24660  110.77000  110.77000  # hc,c,c,hc
dihedral_coeff	13 at   -0.80850    0.55690   -0.24660   -0.80850    0.55690   -0.24660  110.77000  110.77000  # hc,c,c1,hc

# AngleAngleTorsion Coeffs

dihedral_coeff	 1 aat  -22.04500  112.67000  112.67000  # c,c,c1,c
dihedral_coeff	 2 aat    0.00000  112.67000  107.00000  # c,c,c1,cl
dihedral_coeff	 3 aat  -16.16400  112.67000  110.77000  # c,c,c1,hc
dihedral_coeff	 4 aat  -22.04500  112.67000  112.67000  # c,c1,c,c1
dihedral_coeff	 5 aat  -16.16400  112.67000  110.77000  # c,c1,c,hc
dihedral_coeff	 6 aat    0.00000  112.67000  107.00000  # c1,c,c,cl
dihedral_coeff	 7 aat  -16.16400  112.67000  110.77000  # c1,c,c,hc
dihedral_coeff	 8 aat    0.00000  112.67000  107.00000  # c1,c,c1,cl
dihedral_coeff	 9 aat  -16.16400  112.67000  110.77000  # c1,c,c1,hc
dihedral_coeff	10 aat    0.00000  107.00000  110.77000  # cl,c,c,hc
dihedral_coeff	11 aat    0.00000  107.00000  110.77000  # cl,c1,c,hc
dihedral_coeff	12 aat  -12.56400  110.77000  110.77000  # hc,c,c,hc
dihedral_coeff	13 aat  -12.56400  110.77000  110.77000  # hc,c,c1,hc

# BondBond13 Coeffs

dihedral_coeff	 1 bb13    0.00000    1.53000    1.53000  # c,c,c1,c
dihedral_coeff	 2 bb13    0.00000    1.53000    1.79000  # c,c,c1,cl
dihedral_coeff	 3 bb13    0.00000    1.53000    1.10100  # c,c,c1,hc
dihedral_coeff	 4 bb13    0.00000    1.53000    1.53000  # c,c1,c,c1
dihedral_coeff	 5 bb13    0.00000    1.53000    1.10100  # c,c1,c,hc
dihedral_coeff	 6 bb13    0.00000    1.53000    1.79000  # c1,c,c,cl
dihedral_coeff	 7 bb13    0.00000    1.53000    1.10100  # c1,c,c,hc
dihedral_coeff	 8 bb13    0.00000    1.53000    1.79000  # c1,c,c1,cl
dihedral_coeff	 9 bb13    0.00000    1.53000    1.10100  # c1,c,c1,hc
dihedral_coeff	10 bb13    0.00000    1.79000    1.10100  # cl,c,c,hc
dihedral_coeff	11 bb13    0.00000    1.79000    1.10100  # cl,c1,c,hc
dihedral_coeff	12 bb13    0.00000    1.10100    1.10100  # hc,c,c,hc
dihedral_coeff	13 bb13    0.00000    1.10100    1.10100  # hc,c,c1,hc

# Improper Coeffs

improper_coeff	 1    0.00000    0.00000  # c,c,cl,hc
improper_coeff	 2    0.00000    0.00000  # c,c,hc,c1
improper_coeff	 3    0.00000    0.00000  # c,c,hc,cl
improper_coeff	 4    0.00000    0.00000  # c,c,hc,hc
improper_coeff	 5    0.00000    0.00000  # c,c1,c1,hc
improper_coeff	 6    0.00000    0.00000  # c,c1,hc,hc
improper_coeff	 7    0.00000    0.00000  # c,cl,hc,hc
improper_coeff	 8    0.00000    0.00000  # c,hc,hc,hc
improper_coeff	 9    0.00000    0.00000  # c1,c,c,cl
improper_coeff	10    0.00000    0.00000  # c1,c,c,hc
improper_coeff	11    0.00000    0.00000  # c1,c,cl,hc

# AngleAngle Coeffs

improper_coeff	 1 aa    0.00000    0.00000    0.00000  107.00000  110.77000  107.99680  # c,c,cl,hc
improper_coeff	 2 aa    0.11840   -1.31990   -1.31990  110.77000  112.67000  110.77000  # c,c,hc,c1
improper_coeff	 3 aa    0.00000    0.00000    0.00000  110.77000  107.00000  107.99680  # c,c,hc,cl
improper_coeff	 4 aa    0.27380   -0.48250    0.27380  110.77000  110.77000  107.66000  # c,c,hc,hc
improper_coeff	 5 aa   -1.31990   -1.31990    0.11840  112.67000  110.77000  110.77000  # c,c1,c1,hc
improper_coeff	 6 aa    0.27380   -0.48250    0.27380  110.77000  110.77000  107.66000  # c,c1,hc,hc
improper_coeff	 7 aa    0.00000    0.00000    0.00000  107.99680  107.99680  107.66000  # c,cl,hc,hc
improper_coeff	 8 aa   -0.31570   -0.31570   -0.31570  107.66000  107.66000  107.66000  # c,hc,hc,hc
improper_coeff	 9 aa    0.00000    0.00000    0.00000  112.67000  107.00000  107.00000  # c1,c,c,cl
improper_coeff	10 aa   -1.31990   -1.31990    0.11840  112.67000  110.77000  110.77000  # c1,c,c,hc
improper_coeff	11 aa    0.00000    0.00000    0.00000  107.00000  110.77000  107.99680  # c1,c,cl,hc


# --- Thermo Output ---
thermo_style custom step time temp press enthalpy etotal ke pe ebond eangle edihed eimp evdwl ecoul elong etail vol lx ly lz density pxx pyy pzz
thermo_modify flush yes
thermo 1000

# --- Trajectory ---
dump dump_npt all custom 1000 npt_cool.dump id type mol x y z ix iy iz vx vy vz

# --- Restart Checkpointing ---
restart 10000 npt_1.rst npt_2.rst

# --- Initial Velocities (optional) ---
# Velocities read from data file

# --- SHAKE Constraints ---
# SHAKE disabled

# --- NPT Thermostat + Barostat (Nose-Hoover) ---
# T_damp = 100.0 fs  (heat bath coupling)
# P_damp = 1000.0 fs  (pressure bath coupling, ~10x T_damp typical)
# Ramp: T=610.0->530.0K  P=1.0->1.0atm
timestep 1.0
fix npt_fix all npt temp 610.0 530.0 100.0 iso 1.0 1.0 1000.0

run 1000000
PPPM Kokkos initialization ...
  using 12-bit tables for long-range coulomb
  G vector (1/distance) = 0.29476535
  grid = 25 25 25
  stencil order = 5
  estimated absolute RMS force accuracy = 0.00036168639
  estimated relative force accuracy = 1.0892078e-06
  using double precision cuFFT
  3d grid and FFT values/proc = 32768 15625
Generated 6 of 6 mixed pair_coeff terms from sixthpower/sixthpower mixing rule
Neighbor list info ...
  update: every = 1 steps, delay = 0 steps, check = yes
  max neighbors/atom: 4000, page size: 100000
  master list distance cutoff = 11.5
  ghost atom cutoff = 11.5
  binsize = 11.5, bins = 4 4 4
  1 neighbor lists, perpetual/occasional/extra = 1 0 0
  (1) pair lj/class2/coul/long/kk, perpetual
      attributes: full, newton off, kokkos_device
      pair build: full/bin/kk/device
      stencil: full/bin/3d
      bin: kk/device
Per MPI rank memory allocation (min/avg/max) = 24.28 | 24.28 | 24.28 Mbytes
   Step          Time           Temp          Press         Enthalpy        TotEng         KinEng         PotEng         E_bond        E_angle        E_dihed        E_impro         E_vdwl         E_coul         E_long         E_tail         Volume           Lx             Ly             Lz          Density          Pxx            Pyy            Pzz      
         0   0              617.57644     -97.741051      7113.9496      7189.7524      6662.1377      527.61472      2678.9703      3604.2728     -1843.6198      23.735562     -206.42877     -1529.6463     -2199.669      -237.97335      53178.038      37.604871      37.604871      37.604871      1.1715908     -818.83368      339.72043      185.8901     
      1000   1000           602.89737     -978.3532       6306.1572      7063.1734      6503.7865      559.38689      2656.213       3624.5709     -1847.9957      23.122422     -184.15672     -1519.2723     -2193.0947     -238.52123      53055.889      37.576056      37.576056      37.576056      1.1742881     -1035.1713      320.13081     -2220.0191    
      2000   2000           608.48984      1773.3239      8351.3195      7002.1749      6564.1155      438.05939      2630.869       3658.4653     -1848.634       24.998613     -293.74232     -1529.3093     -2204.588      -242.5862       52166.842      37.364988      37.364988      37.364988      1.1943007      2420.4864      1113.7958      1785.6895    
      3000   3000           600.08629     -201.77561      6654.9928      6812.4052      6473.4619      338.94337      2541.2964      3668.5947     -1901.6694      24.457348     -279.13286     -1514.8615     -2199.7413     -236.57355      53492.691      37.678894      37.678894      37.678894      1.1646993     -695.86851     -497.42693      587.9686     
      4000   4000           603.30118     -1145.4627      6094.4636      6988.1816      6508.1426      480.03895      2631.8616      3703.6365     -1875.2628      25.268425     -265.65969     -1532.3581     -2207.447      -236.54674      53498.753      37.680317      37.680317      37.680317      1.1645673     -1157.2813     -590.83774     -1688.2691    
      5000   5000           631.55276      481.05348      7517.5417      7145.3612      6812.9079      332.45327      2534.3627      3613.6002     -1876.6934      23.855101     -211.77185     -1538.5824     -2212.317      -238.54824      53049.88       37.574638      37.574638      37.574638      1.1744211     -1505.1037     -241.05378      3189.3179    
      6000   6000           610.43002     -1301.6         6088.3784      7120.8866      6585.0453      535.84129      2621.3425      3679.5316     -1869.1128      23.727017     -183.22471     -1527.0573     -2209.3651     -232.65935      54392.637      37.88902       37.88902       37.88902       1.1454289     -1522.0212     -2697.5523      314.77367    
      7000   7000           606.15511     -697.12779      6468.428       7018.0402      6538.9295      479.11067      2618.9658      3666.6976     -1893.2739      25.30482      -191.65588     -1536.3594     -2210.5684     -234.09525      54059.002      37.811393      37.811393      37.811393      1.1524981     -542.41625     -1274.88       -274.0871     
      8000   8000           598.94618      600.44641      7416.3314      6945.2694      6461.1628      484.10663      2473.1363      3795.2667     -1879.3104      25.173715     -176.10465     -1540.9406     -2213.1144     -235.25166      53793.27       37.749336      37.749336      37.749336      1.1581913      545.14096     -2814.406       4070.6042    
      9000   9000           597.36337      639.35635      7381.5686      6875.9089      6444.0882      431.82075      2511.7456      3686.379      -1886.1159      26.178107     -141.57852     -1549.2935     -2215.4941     -233.35716      54229.986      37.851215      37.851215      37.851215      1.1488644     -262.92913      1416.7976      764.20055    
     10000   10000          613.58448     -1074.3753      6220.9326      7058.6962      6619.0742      439.62192      2643.5944      3606.1886     -1848.6017      23.135176     -233.39401     -1536.7234     -2214.5771     -236.68517      53467.463      37.67297       37.67297       37.67297       1.1652488     -4243.8869     -98.532222      1119.2933    
     11000   11000          599.40212     -998.8017       6202.6008      7005.8035      6466.0812      539.72221      2593.7416      3636.3712     -1820.944       23.805734     -143.59389     -1536.2481     -2213.4104     -229.50421      55140.408      38.061859      38.061859      38.061859      1.1298955     -325.34488     -1235.4264     -1435.6339    
     12000   12000          598.78687      1177.597       7881.6822      6951.9556      6459.4443      492.51134      2627.7441      3579.2278     -1834.9654      23.489247     -164.7585      -1530.7204     -2207.5056     -233.76418      54135.563      37.829235      37.829235      37.829235      1.1508682      1663.3467      745.12736      1124.3168    
     13000   13000          613.05633      842.98136      7650.1012      6999.7056      6613.3768      386.32877      2510.224       3596.047      -1873.359       25.39196      -132.16099     -1530.7469     -2209.0673     -239.20863      52903.424      37.540028      37.540028      37.540028      1.1776723      1875.9359      313.2245       339.78366    
     14000   14000          594.22616     -753.93926      6170.9205      6773.9432      6410.2454      363.69783      2533.2523      3591.5857     -1884.5959      23.304033     -165.7001      -1527.2238     -2206.9243     -230.7487       54843.021      37.993309      37.993309      37.993309      1.1360224     -1343.211      -259.0464      -659.56038    
     15000   15000          601.27337     -317.12866      6833.7079      7086.1838      6486.2675      599.91633      2628.307       3738.425      -1854.6482      24.498238     -214.24958     -1517.8987     -2204.5175     -231.82056      54589.444      37.934663      37.934663      37.934663      1.1412994      74.536522      53.352535     -1079.275     
     16000   16000          606.72689      698.61682      7504.3813      6947.2921      6545.0976      402.19446      2503.2091      3608.9459     -1848.6586      21.826731     -167.55255     -1519.0008     -2196.5754     -231.4466       54677.649      37.955083      37.955083      37.955083      1.1394582      3.9771597     -138.95354      2230.8269    
     17000   17000          621.00572      13.663996      7157.3261      7146.3531      6699.1312      447.22194      2467.085       3747.5482     -1857.3395      26.827984     -219.28724     -1517.7217     -2199.8908     -229.82192      55064.182      38.044312      38.044312      38.044312      1.1314596      983.40633     -1003.8237      61.40933     
     18000   18000          606.34826      1011.6463      7853.8811      7076.8289      6541.0131      535.8158       2593.3277      3704.046      -1835.5041      23.545692     -222.05893     -1521.8453     -2205.6952     -240.27858      52667.847      37.484224      37.484224      37.484224      1.1829399      1250.6108      753.58848      1030.7398    
     19000   19000          607.81194     -850.62989      6489.4904      7156.9179      6556.8026      600.11529      2706.3681      3620.4277     -1848.9169      23.303821     -170.86048     -1521.9082     -2208.2988     -235.21933      53800.662      37.751065      37.751065      37.751065      1.1580322     -1795.2593     -961.7461       205.11571    
     20000   20000          613.19836      40.390219      7069.7103      7038.1281      6614.9089      423.21918      2665.606       3478.0665     -1856.7932      24.215502     -168.27112     -1520.8808     -2198.7236     -236.03142      53615.556      37.70772       37.70772       37.70772       1.1620302     -1147.0043      638.12811      630.04685    
     21000   21000          612.43085     -912.51183      6259.2956      6982.6182      6606.6293      375.98888      2548.4857      3515.2344     -1835.115       22.294025     -146.33546     -1527.1182     -2201.4567     -232.83217      54352.265      37.879644      37.879644      37.879644      1.1462797     -1997.9619     -1334.935       595.36134    
     22000   22000          603.53251      258.94798      7240.7616      7036.4251      6510.6381      525.78698      2571.2053      3653.3116     -1817.2268      23.850582     -184.75023     -1517.7701     -2202.8333     -233.88535      54107.518      37.822701      37.822701      37.822701      1.1514647      739.2889      -346.98801      384.54304    
     23000   23000          611.06637      881.15952      7966.0189      7259.157       6591.9099      667.2471       2588.4331      3708.6906     -1846.5662      23.565074     -83.238784     -1524.7752     -2198.8615     -230.06815      55005.247      38.030734      38.030734      38.030734      1.1326719      901.71885      1800.9711     -59.211378    
     24000   24000          604.99933     -19.361136      7028.7246      7044.2161      6526.4615      517.75461      2628.0701      3615.5864     -1844.8369      24.653712     -187.64693     -1524.5879     -2193.4839     -230.65981      54864.157      37.998189      37.998189      37.998189      1.1355847      1123.2457     -587.21971     -594.10943    
     25000   25000          607.45448     -91.973196      6985.4593      7058.8954      6552.9465      505.94891      2649.7422      3526.3835     -1824.7647      22.319893     -159.86175     -1515.6848     -2192.1855     -231.147        54748.519      37.971474      37.971474      37.971474      1.1379833      1425.6425     -938.24094     -763.32116    
     26000   26000          612.26799      760.0551       7719.4035      7101.7156      6604.8725      496.84305      2516.2977      3621.1789     -1858.0815      24.059605     -98.445874     -1516.5789     -2191.587      -227.09756      55724.754      38.195839      38.195839      38.195839      1.1180471      1963.5989     -1386.5363      1703.1026    
     27000   27000          604.93269      4.2256532      6998.2587      6994.8736      6525.7426      469.13096      2565.7811      3639.592      -1857.8486      23.181379     -160.38457     -1538.4567     -2202.7337     -230.38353      54929.949      38.013372      38.013372      38.013372      1.1342246      58.000199      842.19393     -887.51717    
     28000   28000          614.07627     -310.71987      6982.9661      7226.4129      6624.3794      602.03354      2675.8691      3588.2339     -1797.1354      22.73831      -174.72433     -1519.2977     -2193.6504     -235.55994      53722.87       37.732861      37.732861      37.732861      1.159709       880.57597     -961.23925     -851.49632    
     29000   29000          607.48464     -473.92708      6565.3862      6938.6007      6553.2719      385.32877      2591.4155      3545.3522     -1857.5769      23.267583     -198.82373     -1520.8288     -2197.477      -234.36327      53997.18       37.796974      37.796974      37.796974      1.1538176     -1941.2897      965.69039     -446.18195    
     30000   30000          592.73972     -1900.5981      5268.0067      6798.6825      6394.2103      404.4722       2545.7446      3603.833      -1853.8787      21.900137     -180.65476     -1531.5692     -2200.9029     -229.16251      55222.626      38.080767      38.080767      38.080767      1.1282132     -3153.5954     -1106.2282     -1441.9706    
     31000   31000          609.03017     -377.24003      6737.826       7037.1395      6569.9443      467.1952       2635.3978      3585.2966     -1874.0089      22.922296     -152.25538     -1543.9033     -2206.2539     -232.60979      54404.227      37.891711      37.891711      37.891711      1.1451849      997.22808     -1326.7802     -802.16795    
     32000   32000          612.92779     -454.59503      6893.9536      7255.79        6611.9902      643.79985      2715.1325      3730.3172     -1834.2827      23.732884     -261.77755     -1522.261      -2207.0615     -231.87234      54577.255      37.931839      37.931839      37.931839      1.1415543     -911.65497      15.279331     -467.40946    
     33000   33000          606.61478     -1039.2589      6103.1991      6916.3236      6543.8883      372.43529      2569.5043      3659.9713     -1878.6559      24.108313     -257.20535     -1533.421      -2211.8663     -235.88659      53648.475      37.715436      37.715436      37.715436      1.1613172     -1340.1232     -789.72073     -987.93269    
     34000   34000          617.49624     -553.88379      6785.3908      7223.5601      6661.2725      562.28763      2667.2661      3654.057      -1841.4186      23.632166     -217.12795     -1521.914      -2202.2071     -233.29919      54243.462      37.854351      37.854351      37.854351      1.1485789     -318.02472     -843.93106     -499.69558    
     35000   35000          616.04562      598.99578      7468.5551      7001.4807      6645.6239      355.85686      2557.6788      3636.2791     -1879.9776      23.07498      -247.13772     -1529.5764     -2204.4842     -236.68693      53467.066      37.672877      37.672877      37.672877      1.1652575      335.21619     -278.15154      1739.9227    
     36000   36000          611.60361      265.66717      7180.3541      6971.3885      6597.7055      373.68294      2565.5988      3625.7645     -1855.3911      22.297223     -242.79247     -1531.9188     -2209.8752     -234.63869      53933.799      37.782179      37.782179      37.782179      1.1551735     -853.84104      1433.4667      217.37581    
     37000   37000          600.00651      833.58255      7381.221       6723.9156      6472.6011      251.3145       2502.4264      3537.1358     -1871.9568      23.683853     -210.23371     -1523.8003     -2205.9408     -234.05501      54068.296      37.81356       37.81356       37.81356       1.1523        -77.64091      -356.3887       2934.7772    
     38000   38000          592.89812      967.82945      7668.86        6902.1531      6395.919       506.23402      2605.2926      3662.077      -1869.2432      23.118206     -195.34663     -1518.823      -2200.8411     -232.9732       54319.363      37.871998      37.871998      37.871998      1.146974       1012.4235      2226.6976     -335.63281    
     39000   39000          614.33834      1442.4423      8235.7231      7092.6813      6627.2065      465.47477      2600.1947      3604.2082     -1829.5427      22.178377     -188.95927     -1533.1898     -2209.4148     -232.90179      54336.017      37.875869      37.875869      37.875869      1.1466225      661.14471      1774.7246      1891.4575    
     40000   40000          605.88765      202.75229      7227.9481      7066.8283      6536.0443      530.78404      2689.0131      3663.1349     -1917.533       22.781618     -197.13235     -1528.112      -2201.3684     -232.24873      54488.806      37.911337      37.911337      37.911337      1.1434073      1204.9218     -141.55042     -455.11452    
     41000   41000          610.44426     -1195.0169      5929.4337      6880.0539      6585.199       294.85497      2615.9453      3497.059      -1853.0941      22.68245      -262.07621     -1525.6684     -2199.993      -232.0083       54545.271      37.924428      37.924428      37.924428      1.1422236     -662.00615     -940.2657      -1982.779     
     42000   42000          608.50081     -259.25604      6837.1466      7039.6654      6564.2339      475.43144      2576.6933      3635.7807     -1818.933       24.958584     -241.42403     -1512.4946     -2189.1495     -236.26537      53562.465      37.695269      37.695269      37.695269      1.163182       598.58641     -829.48283     -546.87169    
     43000   43000          605.42673     -1290.4817      6107.2188      7110.8694      6531.0721      579.79729      2593.4677      3727.4236     -1811.4217      23.211514     -225.66137     -1526.3449     -2200.8776     -237.30442      53327.939      37.640172      37.640172      37.640172      1.1682975     -1444.3244     -2758.3704      331.2496     
     44000   44000          596.52356     -1583.1247      5607.032       6856.3949      6435.0287      421.36627      2583.1272      3613.7065     -1831.7895      23.885784     -229.35274     -1531.0008     -2207.2101     -233.86381      54112.502      37.823862      37.823862      37.823862      1.1513587     -1098.0212     -2088.6765     -1562.6763    
     45000   45000          618.28954      1012.5581      7852.894       7084.9114      6669.8303      415.08113      2602.1054      3628.3587     -1834.7939      22.481183     -258.65769     -1536.6671     -2207.7454     -243.33527      52006.254      37.326608      37.326608      37.326608      1.1979886      1044.0865     -52.439063      2046.0267    
     46000   46000          625.78533     -1169.6642      6143.563       7056.0599      6750.6915      305.36842      2625.2115      3453.1977     -1832.8196      22.578809     -229.29171     -1527.5254     -2205.9828     -236.57361      53492.677      37.678891      37.678891      37.678891      1.1646996     -2060.9041     -674.30355     -773.7849     
     47000   47000          606.27271      911.53226      7403.8724      6707.6271      6540.1981      167.42906      2486.0253      3548.8525     -1883.1872      23.768285     -266.41461     -1533.8873     -2207.728      -241.62746      52373.832      37.414342      37.414342      37.414342      1.1895807      2202.3187      1359.4758     -827.19775    
     48000   48000          613.48509     -105.48024      6825.9114      6907.4027      6618.002       289.40067      2493.6154      3588.4175     -1847.3164      22.94403      -219.46181     -1539.8145     -2208.9835     -238.88903      52974.202      37.556762      37.556762      37.556762      1.1760989      14.47832      -693.73849      362.81944    
     49000   49000          606.43228     -340.52527      6839.7414      7105.1605      6541.9194      563.24104      2650.4403      3620.1471     -1817.1448      21.163042     -167.71377     -1533.74       -2209.9109     -236.78479      53444.97       37.667686      37.667686      37.667686      1.1657392      2644.0336     -1343.7567     -2321.8528    
     50000   50000          598.8264      -2984.8808      4573.9811      6898.1306      6459.8706      438.25999      2646.1628      3638.7892     -1890.5452      22.656254     -236.83408     -1534.7588     -2207.2101     -237.02789      53390.154      37.654804      37.654804      37.654804      1.1669361     -1955.8092     -2874.7067     -4124.1266    
     51000   51000          600.73151      1242.4673      7821.6333      6850.2521      6480.4221      369.82999      2522.2978      3694.9533     -1867.0776      23.276871     -242.7378      -1548.6221     -2212.2605     -236.06511      53607.903      37.705926      37.705926      37.705926      1.1621961      1499.6476      999.77108      1227.9833    
     52000   52000          608.33095     -422.24475      6728.6825      7054.1928      6562.4015      491.79135      2606.4965      3693.8962     -1869.6764      23.572928     -246.16196     -1520.6536     -2195.6824     -239.40654      52859.69       37.529681      37.529681      37.529681      1.1786467     -1515.9573      1910.8994     -1661.6764    
     53000   53000          610.69165      181.26646      7335.4653      7193.5905      6587.8676      605.72289      2662.1114      3667.4295     -1834.639       24.044161     -202.05014     -1513.091      -2198.082      -235.80271      53667.558      37.719907      37.719907      37.719907      1.1609043     -1519.3656      1888.1093      175.05569    
     54000   54000          603.49045      1376.5338      8008.3879      6950.6205      6510.1843      440.43613      2572.0331      3661.4685     -1844.9505      22.842723     -232.6061      -1531.923      -2206.4287     -240.17798      52689.909      37.489457      37.489457      37.489457      1.1824446      1834.051       271.61566      2023.9346    
     55000   55000          595.65874      1067.7505      7671.3671      6842.6989      6425.6994      416.9995       2613.8493      3587.9167     -1859.3422      22.419399     -229.14239     -1517.7911     -2200.9102     -237.80756      53215.111      37.613608      37.613608      37.613608      1.1707745     -253.33713      433.2273       3023.3613    
     56000   56000          611.23459      990.03366      7741.4868      6972.0206      6593.7246      378.29599      2505.1875      3623.2511     -1847.7704      22.373261     -210.90088     -1513.8901     -2199.9545     -237.46352      53292.209      37.631764      37.631764      37.631764      1.1690808      711.23248      3060.342      -801.47352    
     57000   57000          593.58423      320.90362      7032.1967      6777.2732      6403.3205      373.95276      2556.8283      3595.7669     -1850.1764      23.332639     -229.08671     -1517.0891     -2205.6229     -232.32785      54470.249      37.907032      37.907032      37.907032      1.1437968      267.13253      1493.7638     -798.18551    
     58000   58000          601.55195      1110.2621      8005.1794      7147.2168      6489.2727      657.94407      2678.1554      3786.272      -1869.1389      23.68456      -213.46396     -1538.0036     -2209.5614     -238.83264      52986.709      37.559717      37.559717      37.559717      1.1758212      109.36353      1421.382       1800.0408    
     59000   59000          590.59396     -52.722608      6804.6415      6845.538       6371.0627      474.47526      2635.7605      3646.6733     -1890.4545      23.31888      -207.52254     -1524.8106     -2208.4896     -237.92892      53187.968      37.607212      37.607212      37.607212      1.171372      -867.46005      49.595505      659.69672    
     60000   60000          600.39463     -168.65925      6752.2136      6881.2727      6476.788       404.48466      2628.7649      3670.9272     -1846.6723      24.221677     -326.1187      -1533.4637     -2213.1744     -241.18929      52468.98       37.436986      37.436986      37.436986      1.1874235     -1888.5161      2302.1215     -919.58314    
     61000   61000          608.28061     -1203.1517      6026.7299      6960.6619      6561.8584      398.80347      2590.6592      3693.3386     -1866.1756      23.669583     -310.31684     -1520.9494     -2211.422      -237.76157      53225.404      37.616033      37.616033      37.616033      1.1705481     -1821.5967     -1577.082      -210.77642    
     62000   62000          593.0184      -600.87142      6358.9462      6828.2595      6397.2166      431.04292      2555.1667      3708.8985     -1832.2916      22.973174     -280.80807     -1532.902      -2209.9939     -236.29537      53555.665      37.693674      37.693674      37.693674      1.1633297     -885.53078      578.30666     -1495.3901    
     63000   63000          605.0437       394.25084      7295.215       6992.5012      6526.9402      465.56107      2555.947       3777.4095     -1848.9968      24.998216     -289.30911     -1539.2716     -2215.2162     -240.36813      52648.227      37.479569      37.479569      37.479569      1.1833807      1896.5589     -1547.5763      833.76994    
     64000   64000          604.91524     -520.78299      6489.6628      6894.2549      6525.5543      368.70061      2662.4114      3540.9719     -1877.6795      22.216274     -221.95802     -1546.4246     -2210.8369     -237.56139      53270.254      37.626595      37.626595      37.626595      1.1695626     -563.59271     -147.45715     -851.29911    
     65000   65000          604.48169     -2626.5835      4996.9416      7039.161       6520.8774      518.28352      2670.2482      3676.2693     -1856.3715      23.943698     -242.52969     -1540.987      -2212.2895     -237.36974      53313.264      37.636719      37.636719      37.636719      1.1686191     -1117.5844     -2241.9271     -4520.2391    
     66000   66000          609.21016     -996.24361      6328.0654      7119.7226      6571.886       547.83657      2595.05        3700.4492     -1855.104       24.644935     -184.27976     -1533.0269     -2199.8969     -232.25491      54487.354      37.911         37.911         37.911         1.1434378     -550.2361      -1383.9167     -1054.578     
     67000   67000          610.10673     -966.59171      6277.6158      7042.0269      6581.5578      460.46907      2469.5852      3782.0679     -1851.9711      24.328719     -243.76958     -1525.1305     -2194.6416     -233.37407      54226.058      37.850302      37.850302      37.850302      1.1489476      401.97767     -1039.4996     -2262.2532    
     68000   68000          591.33777      480.48727      7177.8328      6796.3167      6379.0867      417.23001      2511.1159      3629.4257     -1855.5944      23.015822     -166.1363      -1524.9494     -2199.6472     -232.43716      54444.632      37.901089      37.901089      37.901089      1.144335       942.98793      1572.8476     -1074.3737    
     69000   69000          613.02286      1579.875       8314.27        7072.3724      6613.0157      459.35662      2502.6878      3662.6766     -1815.5919      23.611507     -167.53426     -1541.1366     -2205.3565     -234.78666      53899.807      37.77424       37.77424       37.77424       1.1559021      2332.2605     -139.74504      2547.1094    
     70000   70000          604.25607      1887.6625      8296.5065      6826.5996      6518.4435      308.15607      2328.1748      3724.8249     -1866.2569      25.881905     -170.87724     -1525.8488     -2207.7425     -237.01239      53393.647      37.655625      37.655625      37.655625      1.1668597      1873.2356      1663.4895      2126.2623    
     71000   71000          603.73093     -1053.2078      5955.0154      6788.0584      6512.7785      275.2799       2522.0387      3562.6742     -1870.342       24.18532      -237.45775     -1525.0573     -2200.7612     -233.33678      54234.724      37.852318      37.852318      37.852318      1.148764      -329.08305     -1406.9564     -1423.5841    
     72000   72000          597.03685     -802.62859      6387.3741      7029.9087      6440.5658      589.34299      2709.0123      3625.7656     -1852.631       21.751178     -196.22576     -1517.4459     -2200.8835     -230.54442      54891.617      38.004528      38.004528      38.004528      1.1350166     -224.27308     -3283.7131      1100.1005    
     73000   73000          610.08788      390.86763      7415.7645      7103.6464      6581.3545      522.29188      2637.0384      3622.9263     -1858.8161      24.29881      -171.73397     -1525.695      -2205.7265     -231.12512      54753.701      37.972672      37.972672      37.972672      1.1378756      270.05587      2136.436      -1233.889     
     74000   74000          592.80288      1203.091       7816.2734      6857.2419      6394.8916      462.35031      2543.0647      3646.875      -1858.4636      23.048567     -151.03209     -1533.0992     -2208.0431     -231.52726      54658.6        37.950675      37.950675      37.950675      1.1398554      980.32733      1271.4026      1357.5431    
     75000   75000          594.41438     -382.84509      6474.6965      6783.9535      6412.2758      371.67768      2485.9364      3605.9657     -1822.0517      23.480976     -202.81109     -1518.8498     -2199.9928     -228.47573      55388.621      38.118885      38.118885      38.118885      1.1248321      445.44009     -2583.9978      990.02245    
     76000   76000          597.08866      590.3667       7345.7896      6883.2806      6441.1247      442.15592      2585.7516      3648.8237     -1841.1289      22.303281     -229.86586     -1533.0306     -2210.6972     -235.57988      53718.321      37.731796      37.731796      37.731796      1.1598072      714.78201      427.49242      628.82566    
     77000   77000          609.90372      1177.1371      7820.8526      6878.7996      6579.3678      299.43181      2474.9406      3604.2935     -1855.4701      23.099887     -197.41691     -1540.4582     -2209.557      -230.61537      54874.728      38.00063       38.00063       38.00063       1.135366      -192.12903      1473.9819      2249.5585    
     78000   78000          604.65966     -241.48004      6825.291       7015.7536      6522.7973      492.95636      2559.2042      3678.7347     -1829.6182      23.826296     -201.19454     -1534.0753     -2203.9209     -233.99578      54081.982      37.81675       37.81675       37.81675       1.1520084     -1504.4955     -419.93851      1199.9939    
     79000   79000          602.88657      138.58805      7031.14        6921.5692      6503.6699      417.89922      2576.6606      3709.3762     -1867.922       25.569986     -278.18662     -1536.6535     -2210.9454     -233.43578      54211.722      37.846966      37.846966      37.846966      1.1492514      914.31654      153.66222     -652.21459    
     80000   80000          606.49644      107.94868      7030.5596      6946.4881      6542.6116      403.87646      2514.2685      3662.7235     -1887.4585      23.900167     -169.27187     -1531.5419     -2208.7435     -236.97646      53401.742      37.657528      37.657528      37.657528      1.1666829     -1228.0006      1242.6764      309.17022    
     81000   81000          608.80593     -605.74384      6492.6047      6959.2849      6567.5254      391.7595       2617.6211      3630.9273     -1902.285       24.131726     -236.0462      -1532.9222     -2209.6673     -239.5555       52826.822      37.521901      37.521901      37.521901      1.17938       -1923.626       198.68084     -92.286317    
     82000   82000          613.69905     -970.14594      6221.83        6974.7434      6620.3101      354.43332      2600.4387      3527.0725     -1823.765       22.502677     -232.85777     -1530.0955     -2208.8623     -237.80914      53214.757      37.613524      37.613524      37.613524      1.1707823     -890.81987     -598.4169      -1421.2011    
     83000   83000          605.1332      -438.01331      6528.39        6870.2647      6527.9056      342.35905      2558.5663      3584.6413     -1853.0167      21.67249      -251.49981     -1526.3538     -2191.6508     -236.45956      53518.477      37.684948      37.684948      37.684948      1.1641381     -1927.8089      458.67932      155.08965    
     84000   84000          605.22279      889.18333      7812.7176      7113.688       6528.872       584.81594      2599.5417      3713.7407     -1843.7792      23.640053     -161.12416     -1534.0236     -2213.1796     -234.76442      53904.913      37.775433      37.775433      37.775433      1.1557926      1196.7994     -1646.2913      3117.0419    
     85000   85000          605.47962      1758.8238      8404.8902      7012.9712      6531.6426      481.32863      2568.8198      3626.9224     -1824.2843      25.136612     -175.74339     -1533.3895     -2206.1329     -233.20878      54264.491      37.859242      37.859242      37.859242      1.1481338      1656.3613      2924.7411      695.3689     
     86000   86000          592.49007      1115.7333      7716.7321      6851.8785      6391.5172      460.36137      2526.7386      3747.8288     -1854.4947      23.87972      -252.30459     -1530.4351     -2200.8513     -238.09722      53150.372      37.598349      37.598349      37.598349      1.1722006      944.69188      601.02484      1801.4832    
     87000   87000          600.73284      1505.9946      8175.053       7011.8776      6480.4365      531.44113      2631.3521      3619.7077     -1833.243       22.62513      -163.73689     -1538.5764     -2206.6875     -238.95424      52959.745      37.553345      37.553345      37.553345      1.1764199      2781.0125      1886.0374     -149.06604    
     88000   88000          604.7757      -1280.3361      5943.275       6944.9285      6524.0491      420.87943      2509.9256      3630.5692     -1792.0413      22.484589     -214.8422      -1529.3149     -2205.9016     -235.90816      53643.569      37.714286      37.714286      37.714286      1.1614234     -184.62365     -1704.8988     -1951.4858    
     89000   89000          612.90175      1691.0414      8439.5409      7102.922       6611.7092      491.21276      2594.2555      3619.9074     -1858.7839      23.20333      -146.80063     -1536.3959     -2204.173      -233.49799      54197.28       37.843605      37.843605      37.843605      1.1495577      1960.4874      2369.2503      743.38649    
     90000   90000          601.21642     -243.41083      6655.3802      6844.6491      6485.6532      358.99591      2500.9204      3586.4215     -1839.8553      21.438933     -174.50574     -1528.2343     -2207.1895     -237.35438      53316.715      37.637531      37.637531      37.637531      1.1685434      167.70832     -1016.5421      118.60129    
     91000   91000          598.03225     -530.89732      6574.0124      6993.9401      6451.3038      542.63635      2640.8238      3587.8481     -1822.8571      22.588235     -187.68327     -1509.2403     -2188.8432     -233.33105      54236.056      37.852628      37.852628      37.852628      1.1487358     -687.1019       440.57198     -1346.162     
     92000   92000          596.38453      619.65206      7265.2473      6770.5075      6433.5289      336.97856      2476.1392      3589.4924     -1827.9877      22.762881     -194.11466     -1528.7095     -2200.6041     -231.15726      54746.088      37.970912      37.970912      37.970912      1.1380338      780.23511      782.13297      296.5881     
     93000   93000          604.3039       38.564609      7060.1232      7029.3961      6518.9595      510.43666      2592.5142      3675.7449     -1853.7788      25.419215     -212.27056     -1514.5204     -2202.6719     -231.63538      54633.087      37.944769      37.944769      37.944769      1.1403877     -901.08443     -863.21973      1879.998     
     94000   94000          599.96273      1159.7009      7819.3706      6903.3823      6472.1289      431.25338      2546.7901      3565.0831     -1862.2201      23.167995     -116.62649     -1526.8396     -2198.1017     -233.66442      54158.676      37.834617      37.834617      37.834617      1.1503771      325.50977      2769.8536      383.7394     
     95000   95000          592.13639      424.24658      7148.7318      6812.3412      6387.7019      424.63939      2497.5937      3644.2655     -1818.7328      24.156188     -194.65579     -1527.9925     -2199.9949     -232.76148      54368.772      37.883478      37.883478      37.883478      1.1459317      1578.8022     -364.85523      58.792783    
     96000   96000          606.12168     -1008.2597      6160.4861      6971.4893      6538.5689      432.92045      2518.2738      3630.1432     -1863.1622      24.401658     -137.71178     -1533.9466     -2205.0776     -229.44911      55153.65       38.064905      38.064905      38.064905      1.1296242     -2226.176       1044.7288     -1843.3318    
     97000   97000          606.41492      1773.9162      8375.8965      6961.0937      6541.7322      419.36147      2434.5716      3605.083      -1827.3193      22.722658     -83.376325     -1529.6207     -2202.6995     -231.40552      54687.354      37.957328      37.957328      37.957328      1.139256       631.32971      2097.7056      2592.7131    
     98000   98000          604.48743     -791.95461      6203.1443      6839.0899      6520.9393      318.15058      2460.1801      3588.2584     -1854.6755      22.605897     -161.11949     -1529.2012     -2207.8975     -229.83537      55060.958      38.043569      38.043569      38.043569      1.1315259     -834.27065     -354.12819     -1187.465     
     99000   99000          593.86522      849.39825      7398.8977      6713.5123      6406.3517      307.16059      2408.8586      3588.2888     -1850.6827      24.110137     -132.74594     -1524.9229     -2205.7454     -228.72469      55328.333      38.105049      38.105049      38.105049      1.1260577      1168.7119     -1577.2435      2956.7264    
    100000   100000         589.69418     -361.49756      6580.9171      6875.1937      6361.3564      513.83735      2518.2765      3667.372      -1828.4339      23.747639     -131.43012     -1523.9186     -2211.7762     -226.71805      55818.034      38.21714       38.21714       38.21714       1.1161786     -529.25517     -796.71876      241.48126    
    101000   101000         595.65979      1436.8117      7988.2221      6856.507       6425.7107      430.79635      2469.6624      3660.471      -1860.4756      24.425241     -125.04696     -1528.8398     -2209.4        -234.31455      54008.407      37.799593      37.799593      37.799593      1.1535778      1628.6743      1570.5443      1111.2164    
    102000   102000         600.65104      585.07998      7378.8107      6909.191       6479.5541      429.63695      2420.2309      3639.1053     -1822.3024      23.24225      -120.38862     -1512.5776     -2197.6729     -229.9352       55037.053      38.038063      38.038063      38.038063      1.1320173     -689.93129      1632.0662      813.10505    
    103000   103000         598.34343      919.5724       7628.5056      6892.6839      6454.6606      438.02327      2538.2908      3634.271      -1887.1625      24.842229     -127.04644     -1531.247      -2213.9248     -230.64808      54866.945      37.998833      37.998833      37.998833      1.135527      -743.70967      2039.6803      1462.7466    
    104000   104000         593.95747      423.88172      7180.2429      6847.0637      6407.3468      439.71687      2507.1599      3698.9408     -1853.5098      23.837714     -194.32703     -1530.2597     -2212.1249     -234.80286      53896.088      37.773371      37.773371      37.773371      1.1559818     -512.87179      306.13546      1478.3815    
    105000   105000         583.78712      70.975108      6848.824       6791.3192      6297.6336      493.68556      2476.883       3654.022      -1813.2861      24.774418     -131.27508     -1525.7865     -2191.6463     -227.79174      55554.938      38.157         38.157         38.157         1.1214646     -115.56549      1000.0527     -671.56186    
    106000   106000         592.20293     -1907.8517      5395.5323      6953.1945      6388.4196      564.77483      2597.1822      3691.8251     -1841.4174      24.535539     -192.05577     -1516.058      -2199.2368     -226.05174      55982.562      38.254652      38.254652      38.254652      1.1128983     -4652.6467     -1191.225       120.31673    
    107000   107000         588.46238     -669.71471      6347.4147      6892.4026      6348.0682      544.33433      2587.8522      3610.6611     -1870.9906      25.329509     -109.31589     -1509.2355     -2189.9666     -226.79818      55798.312      38.212638      38.212638      38.212638      1.1165732     -388.49847     -1423.8421     -196.80358    
    108000   108000         601.69382     -2118.2732      5247.0985      7002.4189      6490.8031      511.61584      2547.1485      3592.3893     -1830.4413      24.234343     -124.15944     -1508.3433     -2189.2122     -222.72148      56819.648      38.444379      38.444379      38.444379      1.0965027     -1825.8684     -3183.7552     -1345.196     
    109000   109000         593.18128      1330.9011      8031.8435      6961.1037      6398.9737      562.13001      2429.9654      3717.9967     -1837.4875      24.15224      -52.011653     -1525.6433     -2194.842      -229.40261      55164.83       38.067477      38.067477      38.067477      1.1293953      3160.0621      289.91946      542.72181    
    110000   110000         606.93623      1470.2783      8068.7702      6899.8467      6547.3559      352.49082      2455.325       3633.5721     -1826.2256      24.720983     -211.56241     -1524.3474     -2198.9919     -232.14         54514.327      37.917255      37.917255      37.917255      1.142872       1957.7858      1181.7298      1271.3194    
    111000   111000         599.09009     -236.469        6865.4133      7053.1525      6462.7153      590.43719      2568.4587      3696.3309     -1858.3485      25.170157     -112.01361     -1526.9758     -2202.1847     -232.46414      54438.313      37.899623      37.899623      37.899623      1.1444678     -1174.2657     -1315.3782      1780.2369    
    112000   112000         593.0617       1390.7006      7913.6637      6806.0176      6397.6837      408.33397      2494.4491      3609.3939     -1842.635       24.390262     -142.68234     -1528.97       -2205.6121     -231.72299      54612.43       37.939986      37.939986      37.939986      1.140819       1906.0008      2217.1037      48.997154    
    113000   113000         603.73981      393.09213      7177.2031      6861.3738      6512.8743      348.49945      2472.6651      3599.9262     -1849.7955      24.465738     -188.60185     -1512.1838     -2197.9765     -229.70919      55091.203      38.050534      38.050534      38.050534      1.1309047     -1781.0017      854.29824      2105.9799    
    114000   114000         603.26848      1274.2825      7857.6524      6854.0741      6507.7898      346.28429      2634.2097      3430.6524     -1846.7477      21.760489     -144.57951     -1540.0453     -2208.9658     -234.34246      54001.976      37.798093      37.798093      37.798093      1.1537151      962.94444      342.76704      2517.1362    
    115000   115000         591.50847     -1220.5297      5690.6032      6665.3196      6380.9282      284.39145      2540.409       3572.393      -1886.6385      23.7692       -223.55176     -1534.5256     -2207.4639     -231.10355      54758.812      37.973854      37.973854      37.973854      1.1377693     -2052.3884     -256.77441     -1352.4263    
    116000   116000         605.19299      603.76697      7483.2263      6983.9413      6528.5506      455.39069      2502.9316      3611.5219     -1850.2657      26.945791     -109.76524     -1525.9281     -2200.0495     -223.18107      56702.639      38.417971      38.417971      38.417971      1.0987654     -511.34582      2736.9433     -414.29661    
    117000   117000         610.01568     -615.03066      6494.4974      6981.4724      6580.5756      400.89683      2581.1507      3575.4495     -1831.204       23.390118     -229.69443     -1514.3727     -2203.8223     -233.09157      54291.777      37.865586      37.865586      37.865586      1.1475568     -2236.5356      62.709347      328.7343     
    118000   118000         611.73131     -946.40526      6315.6296      7063.6205      6599.0831      464.5374       2554.8991      3655.4488     -1844.0441      23.254141     -229.95865     -1505.716      -2189.3458     -233.51638      54193.011      37.842611      37.842611      37.842611      1.1496482     -3213.2878      733.36034     -359.28837    
    119000   119000         590.51416      932.99035      7543.874       6807.56        6370.2019      437.35802      2490.4344      3606.0778     -1822.5         22.915407     -121.5708      -1536.4678     -2201.5311     -233.85711      54114.053      37.824223      37.824223      37.824223      1.1513257      739.29701      483.54992      1576.1241    
    120000   120000         602.91543     -458.42206      6693.4375      7053.6261      6503.9813      549.64475      2583.1245      3663.5917     -1802.4275      24.225438     -216.01735     -1510.3797     -2192.4723     -234.8941       53875.154      37.76848       37.76848       37.76848       1.156431       21.689913     -149.02585     -1247.9303    
    121000   121000         602.14113     -108.93169      6709.2866      6796.3851      6495.6285      300.75663      2502.9942      3520.608      -1811.3293      23.935831     -219.61911     -1516.4224     -2199.4106     -230.82344      54825.263      37.989208      37.989208      37.989208      1.1363903      82.475583     -53.471342     -355.79932    
    122000   122000         596.19231      141.10906      6997.3585      6886.5112      6431.4553      455.05586      2527.9182      3635.7386     -1828.0167      23.861705     -178.61169     -1520.1112     -2205.723      -234.94489      53863.507      37.765758      37.765758      37.765758      1.1566811     -876.8439       769.00722      531.16386    
    123000   123000         609.2109      -1556.4264      5824.6866      7071.9527      6571.894       500.05866      2542.5439      3647.5235     -1848.1766      23.137883     -141.56216     -1518.3566     -2205.0512     -230.30639      54948.348      38.017616      38.017616      38.017616      1.1338448     -2109.1172     -2796.2139      236.05191    
    124000   124000         602.12249     -1486.5891      5966.2821      7151.5596      6495.4274      656.13224      2629.6902      3679.3321     -1827.8354      23.076289     -129.62646     -1519.6874     -2198.8171     -231.47678      54670.519      37.953433      37.953433      37.953433      1.1396068     -1771.3334     -322.58148     -2365.8524    
    125000   125000         597.05689      1127.8573      7805.6818      6899.7773      6440.782       458.99528      2532.2274      3634.7903     -1863.0094      23.770373     -147.60567     -1523.8433     -2197.3343     -229.77792      55074.724      38.046739      38.046739      38.046739      1.131243       316.01389      857.93437      2209.6238    
    126000   126000         607.10423     -556.2785       6608.411       7052.1277      6549.1681      502.95955      2665.5742      3532.7418     -1838.4662      23.461543     -140.52343     -1535.4924     -2204.336      -231.3785       54693.741      37.958806      37.958806      37.958806      1.139123      -3497.3328     -68.205854      1896.7031    
    127000   127000         598.40525      2163.569       8704.0545      6962.1826      6455.3275      506.85515      2533.3108      3608.5412     -1849.5334      24.361864     -86.107399     -1524.5454     -2199.1724     -229.24034      55203.877      38.076457      38.076457      38.076457      1.1285964      792.3005       3944.0231      1754.3833    
    128000   128000         626.57346     -1746.214       5735.3439      7149.4996      6759.1935      390.30609      2557.9312      3572.6225     -1873.0947      24.507389     -174.38471     -1520.4917     -2196.7838     -227.89603      55529.513      38.151178      38.151178      38.151178      1.1219781     -1008.8119     -1535.6671     -2694.163     
    129000   129000         598.56941     -1718.8102      5660.6093      7050.1635      6457.0984      593.06507      2557.6436      3680.007      -1854.6467      23.528558     -98.385266     -1517.5117     -2197.5705     -228.29109      55433.421      38.129159      38.129159      38.129159      1.123923      -90.586206     -2577.5241     -2488.3203    
    130000   130000         600.79248     -2656.9101      4714.4454      6830.7106      6481.0799      349.63071      2637.9089      3525.257      -1865.8995      23.215225     -252.19095     -1514.155      -2204.5049     -231.70921      54615.677      37.940738      37.940738      37.940738      1.1407512     -1756.4822     -4279.9718     -1934.2763    
    131000   131000         607.42728     -524.7956       6773.7877      7202.085       6552.6531      649.43191      2748.8905      3576.5442     -1847.7308      23.7385       -134.63515     -1517.4158     -2199.9594     -226.14208      55960.199      38.249558      38.249558      38.249558      1.113343      -1352.763      -931.03536      709.41155    
    132000   132000         620.91528      226.29406      7229.865       7051.9855      6698.1556      353.82985      2431.1272      3614.8441     -1847.927       23.598642     -145.63411     -1525.5883     -2196.5906     -234.79216      53898.544      37.773945      37.773945      37.773945      1.1559291     -722.03098     -196.86238      1597.7755    
    133000   133000         595.85986     -1304.5347      5776.4054      6861.7136      6427.869       433.84466      2536.2485      3555.2803     -1832.3331      23.45944      -119.00912     -1525.7171     -2204.0842     -221.8396       57045.522      38.495254      38.495254      38.495254      1.0921611     -1005.6304     -1568.9682     -1339.0056    
    134000   134000         614.09759      327.0374       7389.3407      7125.6423      6624.6095      501.03289      2536.4333      3617.5032     -1833.4053      24.298842     -119.83445     -1526.1648     -2197.798      -228.88982      55288.418      38.095884      38.095884      38.095884      1.1268707      560.46858     -947.32596      1367.9696    
    135000   135000         600.74895     -913.99709      6246.0408      6990.6071      6480.6103      509.99688      2555.8501      3605.1179     -1835.5166      22.572949     -122.12676     -1518.2462     -2197.6544     -226.55723      55857.655      38.22618       38.22618       38.22618       1.1153869     -1681.6516     -965.68715     -94.652565    
    136000   136000         593.48196      769.96647      7438.9437      6828.375       6402.2173      426.15778      2608.3471      3550.4124     -1850.0386      22.488182     -190.59176     -1517.3667     -2197.0927     -232.74149      54373.442      37.884562      37.884562      37.884562      1.1458333      1056.2146      441.11535      812.56946    
    137000   137000         610.7664       21.901982      7061.8258      7044.8152      6588.674       456.1412       2629.4671      3622.5449     -1839.6973      22.735968     -257.16342     -1520.1681     -2201.5779     -237.62967      53254.948      37.622991      37.622991      37.622991      1.1698988     -401.54111      395.589        71.658061    
    138000   138000         594.22008      1171.5028      7679.01        6762.7445      6410.1798      352.56471      2559.011       3490.5141     -1834.0656      23.643936     -150.85009     -1526.4258     -2209.2628     -235.97094      53629.298      37.710941      37.710941      37.710941      1.1617325      1152.9511      2178.7872      182.77019    
    139000   139000         591.7033       677.49296      7195.6366      6668.7278      6383.0299      285.6979       2578.1953      3516.6459     -1847.1407      22.800431     -253.08301     -1528.3123     -2203.4077     -237.30445      53327.933      37.640171      37.640171      37.640171      1.1682976      594.55185     -251.95248      1689.8795    
    140000   140000         593.06895     -295.16869      6604.5317      6838.3073      6397.7619      440.54541      2629.7489      3585.5997     -1843.4429      23.203656     -229.11157     -1522.8919     -2202.5605     -233.02776      54306.646      37.869043      37.869043      37.869043      1.1472426      13.30102      -228.48904     -670.31805    
    141000   141000         585.33527     -566.80172      6259.3923      6695.6967      6314.3344      381.36227      2522.6613      3675.6304     -1874.2185      22.840845     -231.44176     -1533.9197     -2200.1903     -239.76079      52781.59       37.511188      37.511188      37.511188      1.1803907     -810.10004      337.90403     -1228.2092    
    142000   142000         612.42753      1006.7961      7575.6146      6783.1021      6606.5936      176.50854      2360.9635      3607.7333     -1868.0461      24.529033     -227.35746     -1523.0001     -2198.3136     -234.46174      53974.502      37.791681      37.791681      37.791681      1.1543024      1973.4985      376.31204      670.57786    
    143000   143000         608.96408      1039.4986      7753.6354      6933.0986      6569.2314      363.86712      2434.791       3726.4758     -1881.5466      24.852985     -211.60674     -1530.0591     -2199.0401     -233.8096       54125.047      37.826785      37.826785      37.826785      1.1510918      1970.1599     -586.06148      1734.3973    
    144000   144000         600.30355      831.47815      7401.4368      6757.5718      6475.8055      281.76634      2511.4716      3512.6386     -1831.5599      21.496972     -198.36787     -1531.8431     -2202.0699     -238.33761      53096.765      37.585704      37.585704      37.585704      1.1733841      710.35148     -898.10043      2682.1834    
    145000   145000         604.44204      971.73527      7651.1683      6893.5029      6520.4497      373.05312      2494.3594      3623.072      -1841.6154      22.612439     -225.33115     -1513.1546     -2186.8896     -236.70476      53463.039      37.671931      37.671931      37.671931      1.1653452     -507.09123      1054.391       2367.906     
    146000   146000         595.35393     -311.77782      6664.3904      6908.406       6422.4112      485.99481      2597.1276      3658.72       -1820.3086      23.731755     -235.94551     -1528.6542     -2208.6762     -235.81103      53665.665      37.719463      37.719463      37.719463      1.1609452     -1714.01       -183.21894      961.89548    
    147000   147000         595.8521       594.52332      7272.8888      6812.7465      6427.7853      384.96127      2524.9899      3671.4849     -1838.7012      23.642144     -252.85852     -1532.1872     -2211.4087     -238.45875      53069.789      37.579338      37.579338      37.579338      1.1739805     -2564.5346      2067.4051      2280.6995    
    148000   148000         582.11907      1117.7964      7507.6269      6646.9968      6279.6395      367.35729      2522.9297      3616.3856     -1874.7187      23.070274     -166.46378     -1547.8318     -2206.014      -239.70808      52793.197      37.513938      37.513938      37.513938      1.1801312      864.87811      1506.4513      982.05976    
    149000   149000         583.08829      264.98756      7134.6381      6924.2214      6290.095       634.12637      2646.6631      3751.4802     -1854.3038      25.805939     -217.9313      -1523.5754     -2194.0124     -232.42443      54447.613      37.901781      37.901781      37.901781      1.1442723     -1347.5067      1713.7452      428.72411    
    150000   150000         600.51454      260.42977      7163.4591      6958.1752      6478.0816      480.09364      2563.232       3692.3659     -1865.1381      25.50518      -224.58487     -1516.5657     -2194.7207     -234.13819      54049.088      37.809081      37.809081      37.809081      1.1527095      390.39152      1643.346      -1252.4482    
    151000   151000         592.01877     -1101.0867      6082.3556      6945.4307      6386.433       558.99767      2636.051       3687.0018     -1808.4212      25.915974     -253.60213     -1524.5384     -2203.4094     -235.45586      53746.615      37.738419      37.738419      37.738419      1.1591967     -1527.8571     -502.13283     -1273.2703    
    152000   152000         599.27766      2095.5785      8322.9389      6657.9864      6464.7387      193.24771      2380.1349      3562.8954     -1855.6601      23.305485     -189.62903     -1527.4758     -2200.3231     -232.29433      54478.109      37.908856      37.908856      37.908856      1.1436318      2591.8093      878.68523      2816.2409    
    153000   153000         594.35087     -255.60155      6647.8984      6848.8001      6411.5906      437.20948      2527.5191      3682.7653     -1875.4558      23.140198     -194.24206     -1526.2648     -2200.2523     -234.80987      53894.48       37.772996      37.772996      37.772996      1.1560163     -112.516       -752.35144      98.062801    
    154000   154000         592.90361      1808.5273      8120.2172      6690.0454      6395.9783      294.06717      2440.7084      3649.5162     -1867.346       23.156658     -206.3466      -1540.115      -2205.5065     -233.38525      54223.46       37.849697      37.849697      37.849697      1.1490026     -291.05641      3068.2839      2648.3544    
    155000   155000         593.30086      1127.7986      7444.6371      6545.4067      6400.2636      145.14306      2441.6179      3575.9641     -1903.1467      27.47874      -260.1229      -1534.7541     -2201.894      -231.47125      54671.825      37.953735      37.953735      37.953735      1.1395796      233.30819      396.5951       2753.4925    
    156000   156000         607.57695      1542.7319      8098.8412      6874.9056      6554.2676      320.63792      2503.175       3514.8704     -1848.6685      21.798334     -135.59147     -1535.1613     -2199.7846     -232.63143      54399.167      37.890536      37.890536      37.890536      1.1452914      1427.5422      596.69579      2603.9577    
    157000   157000         590.4782      -1164.139       5787.2264      6707.3915      6369.8141      337.57741      2577.5161      3547.8207     -1847.1019      23.721281     -222.8664      -1534.7632     -2206.7491     -233.49396      54198.214      37.843822      37.843822      37.843822      1.1495378     -2990.9834     -203.52478     -297.90901    
    158000   158000         583.11437      458.67676      7105.7277      6739.5362      6290.3764      449.15982      2560.2227      3577.2462     -1852.6501      22.3723       -109.45286     -1541.3857     -2207.1928     -231.17187      54742.629      37.970112      37.970112      37.970112      1.1381057      1284.642      -1542.307       1633.6953    
    159000   159000         607.28061      120.14007      7080.5447      6987.4179      6551.0709      436.34704      2576.3181      3609.2457     -1812.5362      22.516956     -216.00808     -1535.8106     -2207.3788     -238.09477      53150.918      37.598477      37.598477      37.598477      1.1721886     -377.15518      550.74843      186.82696    
    160000   160000         603.02983      1276.2906      7902.3873      6890.1949      6505.2154      384.97945      2569.3434      3516.5321     -1871.8846      24.781829     -117.04506     -1532.1721     -2204.576      -232.71426      54379.804      37.88604       37.88604       37.88604       1.1456992      391.79835      1195.4536      2241.6199    
    161000   161000         586.10688     -160.82718      6515.4322      6638.7491      6322.6582      316.09099      2491.1285      3634.6124     -1843.8442      24.844926     -243.05781     -1540.2662     -2207.3267     -240.69834      52576          37.462422      37.462422      37.462422      1.1850064     -848.19523     -272.7094       638.42311    
    162000   162000         598.81813     -0.046147418    6969.8464      6969.883       6459.7814      510.10155      2628.6039      3638.5144     -1844.5413      23.520803     -227.82029     -1513.2901     -2194.8858     -233.09913      54290.016      37.865177      37.865177      37.865177      1.147594       259.23897     -956.70216      697.32474    
    163000   163000         602.59029      632.2463       7316.2253      6829.0507      6500.4738      328.57687      2525.4385      3584.6582     -1854.238       22.635217     -228.93759     -1523.9558     -2197.0236     -239.51798      52835.096      37.52386       37.52386       37.52386       1.1791953      676.45964     -831.44634      2051.7256    
    164000   164000         595.15759      311.20873      6858.1043      6615.1628      6420.2931      194.86964      2401.2305      3621.6037     -1882.8838      23.576273     -245.45087     -1527.7225     -2195.4836     -236.42128      53527.144      37.686982      37.686982      37.686982      1.1639496     -1009.5518      454.54941      1488.6286    
    165000   165000         599.81743      1191.9819      7630.017       6712.3242      6470.5615      241.76266      2541.3913      3510.7187     -1863.4807      22.049175     -219.52385     -1542.5042     -2206.8877     -239.72253      52790.015      37.513184      37.513184      37.513184      1.1802023      421.6347       2337.7605      816.55059    
    166000   166000         603.95292     -1661.5031      5643.1215      6943.1439      6515.1733      427.97059      2594.4843      3681.61       -1823.2892      23.451349     -327.3546      -1522.0476     -2198.8835     -235.8777       53650.498      37.71591       37.71591       37.71591       1.1612734     -3709.1709     -436.78535     -838.55318    
    167000   167000         595.72753     -579.78982      6265.2534      6717.5644      6426.4415      291.12293      2593.5832      3495.0233     -1836.3891      21.669371     -230.12878     -1540.4389     -2212.1963     -236.57563      53492.222      37.678784      37.678784      37.678784      1.1647095     -986.1806      -903.6334       150.44453    
    168000   168000         594.06905     -82.585319      6465.4403      6528.794       6408.5505      120.24353      2491.8337      3415.8636     -1856.8915      20.679237     -232.82454     -1522.6599     -2195.7571     -240.58408      52600.968      37.468351      37.468351      37.468351      1.1844439      29.844875     -438.40572      160.80489    
    169000   169000         586.67193      516.66582      7122.1272      6710.2173      6328.7537      381.46355      2545.8432      3565.7024     -1857.4488      23.920282     -180.10501     -1520.4428     -2196.0057     -231.49629      54665.912      37.952367      37.952367      37.952367      1.1397029      2160.9874      257.22868     -868.21864    
    170000   170000         591.00381      532.13374      7104.3288      6688.5571      6375.484       313.07305      2564.3834      3537.9493     -1890.7218      23.734553     -198.4902      -1526.8421     -2196.9401     -236.21223      53574.516      37.698096      37.698096      37.698096      1.1629204      1357.8634     -174.47941      413.01724    
    171000   171000         598.46486      241.53574      6885.4586      6694.1263      6455.9706      238.15572      2499.2314      3525.6282     -1852.7874      22.38758      -206.63981     -1543.1676     -2206.4967     -232.98584      54316.417      37.871314      37.871314      37.871314      1.1470362     -1025.2228      747.83789      1001.9922    
    172000   172000         593.86126      120.64929      6797.1269      6702.0879      6406.3089      295.77891      2492.2551      3514.3542     -1870.3557      22.006896     -127.49892     -1532.3655     -2202.6172     -234.293        54013.374      37.800752      37.800752      37.800752      1.1534717      354.45295     -639.37753      646.87245    
[...]
    955000   955000         542.73011     -1295.4799      4279.9449      5264.3375      5854.7291     -590.3916       2290.2548      3106.5223     -1842.9031      20.223775     -403.98834     -1544.0764     -2216.4246     -242.88399      52102.882      37.349711      37.349711      37.349711      1.1957668     -1509.5185      29.173945     -2406.0952    
    956000   956000         534.97374      1876.1263      6576.5126      5146.7898      5771.0568     -624.26699      2171.5568      3155.3214     -1903.1888      20.148701     -300.20306     -1551.1302     -2216.7717     -242.18471      52253.322      37.385624      37.385624      37.385624      1.1923242     -460.16232      3035.7145      3052.8267    
    957000   957000         533.66429     -1015.0613      4611.2555      5387.3761      5756.931      -369.55496      2295.8274      3322.3792     -1891.5431      21.712029     -355.44357     -1549.6661     -2212.8208     -241.37907      52427.725      37.427171      37.427171      37.427171      1.1883578     -1115.5795      311.51391     -2241.1183    
    958000   958000         535.76071      615.06745      5685.6365      5215.5121      5779.5463     -564.03415      2216.5739      3252.5117     -1896.6158      21.735924     -398.13123     -1543.9994     -2216.1091     -241.46072      52409.997      37.422952      37.422952      37.422952      1.1887598      591.61922     -84.240909      1337.824     
    959000   959000         544.86957     -205.84432      5230.045       5385.6176      5877.8086     -492.19105      2310.8153      3221.7774     -1891.998       21.382108     -365.824       -1563.251      -2225.0929     -244.1981       51822.499      37.282594      37.282594      37.282594      1.2022365     -996.92394     -452.05885      831.44982    
    960000   960000         537.18394     -861.9641       4640.6393      5299.6357      5794.8995     -495.26384      2245.0964      3238.0607     -1876.6898      19.919353     -351.60148     -1553.5306     -2216.5185     -241.40302      52422.525      37.425934      37.425934      37.425934      1.1884757     -113.88635     -3035.1784      563.17245    
    961000   961000         525.01333     -632.71489      4560.0113      5039.6457      5663.6084     -623.96268      2204.6294      3142.0987     -1868.385       21.498531     -349.49926     -1555.4779     -2218.8272     -243.4637       51978.819      37.320043      37.320043      37.320043      1.1986209      957.74443     -1296.3443     -1559.5448    
    962000   962000         534.38678      168.07708      5422.2523      5295.807       5764.725      -468.91802      2300.1114      3273.9794     -1907.2234      22.228821     -392.20633     -1550.4958     -2215.3121     -245.3253       51584.388      37.225405      37.225405      37.225405      1.2077859      1811.2939     -26.580077     -1280.4826    
    963000   963000         533.00341      82.030911      5286.2381      5225.4527      5749.8018     -524.34914      2251.8251      3216.335      -1862.8239      21.077605     -381.8848      -1550.139      -2218.7391     -249.06591      50809.666      37.038107      37.038107      37.038107      1.2262017     -1126.6119     -1673.4981      3046.2027    
    964000   964000         527.81454     -1613.3772      3877.5706      5085.9512      5693.8266     -607.87535      2312.1294      3111.293      -1881.6352      20.951386     -425.5671      -1535.775      -2209.2718     -246.41588      51356.089      37.170407      37.170407      37.170407      1.213155      -1230.5443     -2384.5254     -1225.0619    
    965000   965000         528.82628     -378.90374      4992.2704      5276.2951      5704.7408     -428.44569      2303.3953      3302.8148     -1889.5698      22.206843     -389.50681     -1557.1739     -2220.6122     -246.21202      51398.611      37.180663      37.180663      37.180663      1.2121514     -1168.0669      203.35939     -172.00368    
    966000   966000         524.13672      1475.6061      6185.1036      5076.826       5654.1519     -577.32596      2241.7584      3182.7753     -1888.3761      20.889618     -354.95666     -1560.7398     -2218.6768     -245.73013      51499.405      37.204951      37.204951      37.204951      1.209779       3069.6112     -227.13819      1584.3454    
    967000   967000         538.85703     -288.70062      5111.2866      5328.9564      5812.948      -483.99158      2287.2459      3245.3058     -1878.4969      21.761862     -391.43769     -1547.5899     -2220.7805     -244.78565      51698.111      37.25274       37.25274       37.25274       1.2051291     -2641.1911      800.93248      974.15678    
    968000   968000         528.77512     -194.59312      5081.3343      5231.8946      5704.1888     -472.29428      2340.7491      3201.2355     -1903.8999      21.71505      -353.91647     -1555.1861     -2222.9915     -238.5359       53052.625      37.575286      37.575286      37.575286      1.1743603     -1787.8608      1242.3799     -38.29843     
    969000   969000         538.34178     -11.49691       5179.8387      5188.6461      5807.3897     -618.74365      2282.2643      3170.7068     -1927.1831      21.749193     -388.85138     -1557.3784     -2220.0512     -240.91806      52528.05       37.451029      37.451029      37.451029      1.1860882      703.2084       497.80843     -1235.5076    
    970000   970000         555.489       -184.12168      5340.4492      5480.5178      5992.3662     -511.84842      2262.4033      3213.8678     -1868.694       19.803641     -353.56936     -1566.039      -2219.6209     -242.60545      52162.702      37.364         37.364         37.364         1.1943955     -115.48689     -861.2336       424.35544    
    971000   971000         520.76715     -522.3261       4804.1958      5203.354       5617.8025     -414.44851      2357.5334      3213.6889     -1876.6925      20.131618     -349.68351     -1561.3979     -2218.0286     -241.50897      52399.527      37.42046       37.42046       37.42046       1.1889973     -1937.0224     -55.245211      425.28932    
    972000   972000         518.74621      825.964        5650.7623      5036.8639      5596.0015     -559.13769      2222.1389      3232.2043     -1874.4127      20.852904     -371.37825     -1566.4514     -2222.0914     -248.31396      50963.529      37.075456      37.075456      37.075456      1.2224997      106.12709      1282.8425      1088.9224    
    973000   973000         537.5313      -1032.4441      4537.0045      5340.9422      5798.6466     -457.70436      2296.0752      3225.7844     -1863.9113      21.74639      -362.21473     -1553.2556     -2221.9289     -237.01763      53392.467      37.655348      37.655348      37.655348      1.1668856     -639.30059     -2389.6617     -68.369921    
    974000   974000         533.42323      115.61457      5210.5885      5122.7299      5754.3306     -631.60072      2240.8784      3171.1759     -1910.5194      21.131726     -382.95788     -1553.8031     -2217.5064     -242.86509      52106.935      37.35068       37.35068       37.35068       1.1956738      1726.5255     -1071.7715     -307.91027    
    975000   975000         539.96056     -1057.6309      4474.3604      5278.1886      5824.8524     -546.6638       2274.7027      3231.7621     -1887.6767      19.937421     -425.95694     -1542.1265     -2217.3059     -242.83283      52113.858      37.352334      37.352334      37.352334      1.195515      -1932.811       1772.9523     -3013.0339    
    976000   976000         535.34449      1141.9197      6068.7749      5185.5237      5775.0563     -589.53264      2155.9327      3272.0825     -1947.8141      21.919835     -310.9135      -1556.4098     -2224.3304     -238.60957      53036.246      37.571419      37.571419      37.571419      1.174723       72.454915      1321.3412      2031.9629    
    977000   977000         526.71221      1063.062       5964.9408      5157.4882      5681.9351     -524.44691      2203.5095      3283.5426     -1889.1978      20.840463     -361.77341     -1558.2612     -2223.1071     -242.98424      52081.385      37.344574      37.344574      37.344574      1.1962604      904.50357      2172.2161      112.46648    
    978000   978000         529.31357      1594.9478      6365.5846      5162.3465      5709.9975     -547.65102      2327.1942      3189.0895     -1891.0461      22.180632     -425.85381     -1545.4788     -2223.7367     -244.64221      51728.424      37.26002       37.26002       37.26002       1.2044229      3116.2326     -146.09562      1814.7063    
    979000   979000         539.753       -1122.933       4462.4277      5308.6962      5822.6133     -513.9171       2370.8147      3223.2553     -1921.1015      22.942546     -423.81216     -1562.1459     -2223.87       -244.89627      51674.759      37.247131      37.247131      37.247131      1.2056737      1116.0362     -2774.2874     -1710.5478    
    980000   980000         524.096       -865.49171      4457.7317      5114.5379      5653.7126     -539.17469      2319.7322      3173.1965     -1910.4503      20.957154     -367.84572     -1554.7636     -2220.0009     -243.19921      52035.349      37.333567      37.333567      37.333567      1.1973187     -328.2575      -1800.5738     -467.64382    
    981000   981000         536.24611      97.738428      5245.0992      5172.252       5784.7825     -612.53052      2287.8762      3181.4745     -1922.2071      21.088231     -406.2207      -1560.3449     -2214.1967     -247.62204      51105.934      37.109956      37.109956      37.109956      1.2190932      1230.6579      202.73269     -1140.1753    
    982000   982000         535.03668      1256.2218      6221.7051      5262.6903      5771.7357     -509.04547      2223.5942      3278.3853     -1881.4939      21.478346     -367.56591     -1563.4447     -2219.9987     -241.75615      52345.952      37.407702      37.407702      37.407702      1.1902143      2898.8139      4.4289521      865.42268    
    983000   983000         529.23123      2818.9737      7427.5336      5319.7834      5709.1092     -389.32582      2277.5846      3386.5684     -1945.8896      24.776796     -356.95888     -1556.1487     -2219.2585     -246.83594      51268.692      37.14931       37.14931       37.14931       1.2152231      1341.7487      3270.3094      3844.8629    
    984000   984000         534.42007     -433.98359      4814.6618      5143.6613      5765.084      -621.42275      2273.2052      3153.03       -1905.0513      20.635856     -380.57747     -1556.3004     -2226.3647     -243.45271      51981.166      37.320605      37.320605      37.320605      1.1985668     -694.09193      742.23037     -1350.0892    
    985000   985000         533.67079      1479.3745      6336.1297      5208.0196      5757.0012     -548.98156      2267.7244      3198.506      -1896.9372      22.874937     -371.68168     -1549.4629     -2220.0051     -242.02662      52287.453      37.393762      37.393762      37.393762      1.1915458      682.37831      747.40196      3008.3431    
    986000   986000         535.79744     -897.90391      4507.3889      5182.026       5779.9426     -597.91654      2229.3714      3255.5011     -1929.3637      21.303899     -388.69333     -1560.9332     -2225.1028     -245.63835      51518.649      37.209585      37.209585      37.209585      1.2093271      814.01796     -982.63914     -2525.0906    
    987000   987000         532.83732      529.12598      5575.4748      5175.4905      5748.01       -572.51954      2294.069       3112.0514     -1857.5064      19.378138     -364.67572     -1555.3314     -2220.5045     -244.14773      51833.191      37.285158      37.285158      37.285158      1.2019885      302.93466     -451.48463      1735.9279    
    988000   988000         537.89089     -41.685084      5378.6186      5410.1298      5802.5257     -392.39595      2299.6629      3276.7161     -1889.1477      22.432237     -321.12373     -1559.8352     -2221.1006     -244.14785      51833.166      37.285151      37.285151      37.285151      1.2019891     -232.82767     -1563.7576      1671.53      
    989000   989000         522.10604      884.93153      5932.6252      5245.6472      5632.2458     -386.59863      2278.7067      3324.6404     -1907.8774      22.771223     -339.17507     -1552.9913     -2212.6732     -237.74058      53230.103      37.61714       37.61714       37.61714       1.1704448      1211.9052      441.22189      1001.6675    
    990000   990000         524.855       -849.41717      4523.9586      5167.8958      5661.9004     -494.00454      2282.7612      3224.6883     -1866.2394      22.918662     -386.52371     -1553.1238     -2218.4857     -243.45239      51981.235      37.320621      37.320621      37.320621      1.1985652     -2228.8055     -480.44837      161.00232    
    991000   991000         529.4313      -500.54613      4861.6326      5246.7645      5711.2675     -464.50296      2290.993       3252.9        -1909.9254      21.329392     -349.94915     -1553.016      -2216.8347     -239.86734      52758.144      37.505633      37.505633      37.505633      1.1809153     -2724.1403      789.21446      433.28749    
    992000   992000         529.45457     -128.3036       5069.5851      5167.7284      5711.5185     -543.79011      2248.7221      3205.9036     -1899.327       21.348704     -348.02976     -1553.2665     -2219.1412     -241.27639      52450.037      37.43248       37.43248       37.43248       1.1878523      313.45711      328.27764     -1026.6456    
    993000   993000         539.05387     -845.33595      4552.9966      5196.6081      5815.0714     -618.46327      2241.7496      3196.9985     -1884.5425      20.694827     -431.11761     -1544.5055     -2217.7405     -242.40527      52205.778      37.374282      37.374282      37.374282      1.19341       -1270.3732     -902.10038     -363.53427    
    994000   994000         530.29907      1028.9753      5822.7334      5041.1533      5720.6286     -679.47525      2247.4439      3091.3482     -1901.4771      21.1837       -383.96463     -1544.7766     -2209.2327     -242.97858      52082.597      37.344864      37.344864      37.344864      1.1962325      884.39166      1219.2641      983.27003    
    995000   995000         529.18014     -419.01091      4868.9961      5188.9338      5708.5581     -519.62429      2296.9898      3139.7657     -1870.9025      19.651237     -352.91557     -1539.998      -2212.2148     -241.71103      52355.724      37.41003       37.41003       37.41003       1.1899921      1478.3462     -1616.0205     -1119.3585    
    996000   996000         538.41979     -234.74166      5136.1407      5314.5536      5808.2312     -493.67766      2295.9191      3166.3877     -1846.0838      20.341498     -378.15068     -1539.2818     -2212.8097     -242.82902      52114.676      37.352529      37.352529      37.352529      1.1954962     -1113.99       -261.53691      671.30195    
    997000   997000         524.21935      1744.331       6599.0216      5242.0528      5655.0432     -412.9904       2237.1543      3249.8857     -1917.7268      22.103327     -228.12205     -1558.2972     -2217.9877     -237.24417      53341.482      37.643358      37.643358      37.643358      1.1680009      755.00532      2105.6732      2372.3143    
    998000   998000         527.22546      444.40684      5555.0375      5213.936       5687.4719     -473.53591      2275.4403      3187.2533     -1872.3362      21.649357     -316.70676     -1553.0252     -2215.8107     -240.45485      52629.239      37.475062      37.475062      37.475062      1.1838077      1786.1648     -74.95509      -377.98923    
    999000   999000         536.49686      284.09315      5574.9102      5359.6157      5787.4875     -427.87186      2304.1268      3162.9399     -1851.2216      19.061158     -279.95438     -1559.8491     -2222.9746     -243.53668      51963.242      37.316315      37.316315      37.316315      1.1989802      1165.6779     -51.403138     -261.99535    
   1000000   1000000        520.18818     -613.13642      4569.0188      5033.2784      5611.5568     -578.27839      2245.0048      3196.0224     -1850.7767      22.854132     -419.16701     -1550.9482     -2221.2678     -243.74334      51919.185      37.305765      37.305765      37.305765      1.1999976     -434.16665     -857.95916     -547.28346    
Loop time of 1708.92 on 1 procs for 1000000 steps with 3620 atoms

Performance: 50.558 ns/day, 0.475 hours/ns, 585.164 timesteps/s, 2.118 Matom-step/s
100.0% CPU use with 1 MPI tasks x 1 OpenMP threads

MPI task timing breakdown:
Section |  min time  |  avg time  |  max time  |%varavg| %total
---------------------------------------------------------------
Pair    | 115.48     | 115.48     | 115.48     |   0.0 |  6.76
Bond    | 207.07     | 207.07     | 207.07     |   0.0 | 12.12
Kspace  | 878.5      | 878.5      | 878.5      |   0.0 | 51.41
Neigh   | 134.56     | 134.56     | 134.56     |   0.0 |  7.87
Comm    | 29.807     | 29.807     | 29.807     |   0.0 |  1.74
Output  | 5.184      | 5.184      | 5.184      |   0.0 |  0.30
Modify  | 300.01     | 300.01     | 300.01     |   0.0 | 17.56
Other   |            | 38.32      |            |       |  2.24

Nlocal:           3620 ave        3620 max        3620 min
Histogram: 1 0 0 0 0 0 0 0 0 0
Nghost:          11776 ave       11776 max       11776 min
Histogram: 1 0 0 0 0 0 0 0 0 0
Neighs:              0 ave           0 max           0 min
Histogram: 1 0 0 0 0 0 0 0 0 0
FullNghs:  1.59764e+06 ave 1.59764e+06 max 1.59764e+06 min
Histogram: 1 0 0 0 0 0 0 0 0 0

Total # of neighbors = 1597644
Ave neighs/atom = 441.33812
Ave special neighs/atom = 5.9723757
Neighbor list builds = 42168
Dangerous builds = 0

# --- Cleanup ---
unfix npt_fix

undump dump_npt

# --- Write Output ---
write_dump all custom npt_cool_last.dump id type mol x y z xu yu zu vx vy vz modify sort id
write_data /home/alexzhao/PolyJarvis/data/PVC3/lammps/equil/npt_cool/npt_cool_out.data
System init for write_data ...
PPPM Kokkos initialization ...
  using 12-bit tables for long-range coulomb
  G vector (1/distance) = 0.29536849
  grid = 25 25 25
  stencil order = 5
  estimated absolute RMS force accuracy = 0.00035350599
  estimated relative force accuracy = 1.0645728e-06
  using double precision cuFFT
  3d grid and FFT values/proc = 32768 15625
Generated 6 of 6 mixed pair_coeff terms from sixthpower/sixthpower mixing rule

print "STAGE COMPLETE: NPT T=610.0->530.0K P=1.0->1.0atm steps=1000000"
STAGE COMPLETE: NPT T=610.0->530.0K P=1.0->1.0atm steps=1000000
quit
       |       |  2.24

Nlocal:           3620 ave        3620 max        3620 min
Histogram: 1 0 0 0 0 0 0 0 0 0
Nghost:          11776 ave       11776 max       11776 min
Histogram: 1 0 0 0 0 0 0 0 0 0
Neighs:              0 ave           0 max           0 min
Histogram: 1 0 0 0 0 0 0 0 0 0
FullNghs:  1.59764e+06 ave 1.59764e+06 max 1.59764e+06 min
Histogram: 1 0 0 0 0 0 0 0 0 0

Total # of neighbors = 1597644
Ave neighs/atom = 441.33812
Ave special neighs/atom = 5.9723757
Neighbor list builds = 42168
Dangerous builds = 0
System init for write_data ...
PPPM Kokkos initialization ...
  using 12-bit tables for long-range coulomb
  G vector (1/distance) = 0.29536849
  grid = 25 25 25
  stencil order = 5
  estimated absolute RMS force accuracy = 0.00035350599
  estimated relative force accuracy = 1.0645728e-06
  using double precision cuFFT
  3d grid and FFT values/proc = 32768 15625
Generated 6 of 6 mixed pair_coeff terms from sixthpower/sixthpower mixing rule
STAGE COMPLETE: NPT T=610.0->530.0K P=1.0->1.0atm steps=1000000
