units real
atom_style full
boundary p p p

# --- Force Field Styles ---
pair_style lj/class2/coul/long 9.5 9.5
kspace_style pppm 1e-6
dielectric 1.000000
bond_style class2
angle_style class2
dihedral_style class2
improper_style class2
special_bonds lj/coul 0 0 1
pair_modify mix sixthpower tail yes
neighbor 2.0 bin
neigh_modify delay 0 every 1 check yes
neigh_modify one 4000
# KOKKOS: package loaded via -pk kokkos on the command line

read_data /home/alexzhao/PolyJarvis/data/PMMA4/lammps/equil/npt_prod300/npt_prod300_out.data
Reading data file ...
  orthogonal box = (4.7794928 4.7794928 4.7794928) to (46.971505 46.971505 46.971505)
  1 by 1 by 1 MPI processor grid
  reading atoms ...
  7520 atoms
  reading velocities ...
  7520 velocities
  scanning bonds ...
  4 = max bonds/atom
  scanning angles ...
  17 = max angles/atom
  scanning dihedrals ...
  40 = max dihedrals/atom
  scanning impropers ...
  14 = max impropers/atom
  orthogonal box = (4.7794928 4.7794928 4.7794928) to (46.971505 46.971505 46.971505)
  1 by 1 by 1 MPI processor grid
  reading bonds ...
  7510 bonds
  reading angles ...
  14000 angles
  reading dihedrals ...
  18910 dihedrals
  reading impropers ...
  8500 impropers
Finding 1-2 1-3 1-4 neighbors ...
  special bond factors lj:    0        0        1       
  special bond factors coul:  0        0        1       
     4 = max # of 1-2 neighbors
    11 = max # of 1-3 neighbors
    15 = max # of special neighbors
  special bonds CPU = 0.005 seconds
  read_data CPU = 0.429 seconds
include /home/alexzhao/PolyJarvis/data/PMMA4/lammps/equil/emc_build.params
# LAMMPS parameters created by EMC v9.4.4, build Jul 31 2025 20:33:44

# Variables

variable	seed		index	734812
variable	ntotal		index	7520
variable	fshape		index	1
variable	output		index	emc_build
variable	field		index	pcff/pcff
variable	location1	index	~/emc/field/
variable	nav		index	0.6022141179
variable	temperature	index	300
variable	radius		index	5
variable	nrelax		index	100
variable	weight_nonbond	index	0.0001
variable	weight_bond	index	0.0001
variable	weight_focus	index	1
variable	cutoff		index	9.5
variable	charge_cutoff	index	9.5
variable	kappa		index	4
variable	density1	index	0.6
variable	lprevious	index	0
variable	lphase		index	51.7509981335
variable	f_poly		index	10
variable	chem_repeat	index	*CC(C)(C(=O)OC)*
variable	chem_cap	index	*[H]
variable	lg_repeat	index	15
variable	lg_cap		index	1
variable	norm_poly	index	100
variable	l_poly		index	752
variable	mg_repeat	index	88.10716
variable	mg_cap		index	1.00797
variable	m_poly		index	4407.37394
variable	n_poly		index	10
variable	mtotal		index	50079.3144
variable	nphase1		index	7520
variable	mphase1		index	50079.3144
variable	vphase1		index	138597.753721
variable	lbox		index	51.7509981335
variable	lphase1		index	51.7509981335
variable	lxx		index	51.7509981335
variable	lyy		index	51.7509981335
variable	lzz		index	51.7509981335
variable	lzy		index	0
variable	lzx		index	0
variable	lyx		index	0
variable	vtotal		index	138597.753721
variable	nl_poly		index	10

# Types

variable	type_c		index	1
variable	type_c1		index	2
variable	type_c_1	index	3
variable	type_hc		index	4
variable	type_o_1	index	5
variable	type_o_2	index	6

variable	type_bond_c_c	index	1
variable	type_bond_c_c1	index	2
variable	type_bond_c_c_1	index	3
variable	type_bond_c_hc	index	4
variable	type_bond_c_o_2	index	5
variable	type_bond_c1_c_1 index	6
variable	type_bond_c1_hc	index	7
variable	type_bond_c_1_o_1 index	8
variable	type_bond_c_1_o_2 index	9

variable	type_angle_c_c_c index	1
variable	type_angle_c_c_c1 index	2
variable	type_angle_c_c_c_1 index	3
variable	type_angle_c_c_hc index	4
variable	type_angle_c_c1_c index	5
variable	type_angle_c_c1_c_1 index	6
variable	type_angle_c_c1_hc index	7
variable	type_angle_c_c_1_o_1 index	8
variable	type_angle_c_c_1_o_2 index	9
variable	type_angle_c_o_2_c_1 index	10
variable	type_angle_c1_c_hc index	11
variable	type_angle_c1_c_1_o_1 index	12
variable	type_angle_c1_c_1_o_2 index	13
variable	type_angle_c_1_c1_hc index	14
variable	type_angle_hc_c_hc index	15
variable	type_angle_hc_c_o_2 index	16
variable	type_angle_o_1_c_1_o_2 index	17

# Clusters

variable	n0_poly		index	1
variable	n1_poly		index	10
variable	nl_poly		index	10

# Flags

variable	flag_charged	index	1

# Masses

mass		1    12.01115  # c
mass		2    12.01115  # c1
mass		3    12.01115  # c_1
mass		4     1.00797  # hc
mass		5    15.99940  # o_1
mass		6    15.99940  # o_2

# Potentials

pair_modify	mix sixthpower tail yes
special_bonds	lj/coul 0 0 1

# Pair Coeffs

pair_coeff	 1  1    0.05400    4.01000  # c,c
pair_coeff	 2  2    0.05400    4.01000  # c1,c1
pair_coeff	 3  3    0.12000    3.81000  # c_1,c_1
pair_coeff	 4  4    0.02000    2.99500  # hc,hc
pair_coeff	 5  5    0.26700    3.30000  # o_1,o_1
pair_coeff	 6  6    0.24000    3.42000  # o_2,o_2

# Bond Coeffs

bond_coeff	1    1.53000  299.67000 -501.77000  679.81000  # c,c
bond_coeff	2    1.53000  299.67000 -501.77000  679.81000  # c,c1
bond_coeff	3    1.52020  253.70670 -423.03700  396.90000  # c,c_1
bond_coeff	4    1.10100  345.00000 -691.89000  844.60000  # c,hc
bond_coeff	5    1.43000  326.72730 -608.53060  689.03330  # c,o_2
bond_coeff	6    1.52020  253.70670 -423.03700  396.90000  # c1,c_1
bond_coeff	7    1.10100  345.00000 -691.89000  844.60000  # c1,hc
bond_coeff	8    1.20200  851.14030 -1918.48820 2160.76590  # c_1,o_1
bond_coeff	9    1.36830  367.14810 -794.79080 1055.23190  # c_1,o_2

# Angle Coeffs

angle_coeff	 1  112.67000   39.51600   -7.44300   -9.55830  # c,c,c
angle_coeff	 2  112.67000   39.51600   -7.44300   -9.55830  # c,c,c1
angle_coeff	 3  108.52950   51.97470   -9.48510  -10.99850  # c,c,c_1
angle_coeff	 4  110.77000   41.45300  -10.60400    5.12900  # c,c,hc
angle_coeff	 5  112.67000   39.51600   -7.44300   -9.55830  # c,c1,c
angle_coeff	 6  108.52950   51.97470   -9.48510  -10.99850  # c,c1,c_1
angle_coeff	 7  110.77000   41.45300  -10.60400    5.12900  # c,c1,hc
angle_coeff	 8  123.14510   55.54310  -17.21230    0.13480  # c,c_1,o_1
angle_coeff	 9  100.31820   38.86310   -3.83230   -7.98020  # c,c_1,o_2
angle_coeff	10  113.28800   61.28680  -28.97860    7.99290  # c,o_2,c_1
angle_coeff	11  110.77000   41.45300  -10.60400    5.12900  # c1,c,hc
angle_coeff	12  123.14510   55.54310  -17.21230    0.13480  # c1,c_1,o_1
angle_coeff	13  100.31820   38.86310   -3.83230   -7.98020  # c1,c_1,o_2
angle_coeff	14  107.73360   40.60990  -28.81210    0.00000  # c_1,c1,hc
angle_coeff	15  107.66000   39.64100  -12.92100   -2.43180  # hc,c,hc
angle_coeff	16  107.68800   65.48010  -10.34980    5.88660  # hc,c,o_2
angle_coeff	17  120.79700   95.34460  -32.28690    6.37780  # o_1,c_1,o_2

# BondBond Coeffs

angle_coeff	 1 bb    0.00000    1.53000    1.53000  # c,c,c
angle_coeff	 2 bb    0.00000    1.53000    1.53000  # c,c,c1
angle_coeff	 3 bb    5.41990    1.53000    1.52020  # c,c,c_1
angle_coeff	 4 bb    3.38720    1.53000    1.10100  # c,c,hc
angle_coeff	 5 bb    0.00000    1.53000    1.53000  # c,c1,c
angle_coeff	 6 bb    5.41990    1.53000    1.52020  # c,c1,c_1
angle_coeff	 7 bb    3.38720    1.53000    1.10100  # c,c1,hc
angle_coeff	 8 bb   46.06850    1.52020    1.20200  # c,c_1,o_1
angle_coeff	 9 bb   19.10690    1.52020    1.36830  # c,c_1,o_2
angle_coeff	10 bb   45.45030    1.43000    1.36830  # c,o_2,c_1
angle_coeff	11 bb    3.38720    1.53000    1.10100  # c1,c,hc
angle_coeff	12 bb   46.06850    1.52020    1.20200  # c1,c_1,o_1
angle_coeff	13 bb   19.10690    1.52020    1.36830  # c1,c_1,o_2
angle_coeff	14 bb    0.71150    1.52020    1.10100  # c_1,c1,hc
angle_coeff	15 bb    5.33160    1.10100    1.10100  # hc,c,hc
angle_coeff	16 bb    5.64540    1.10100    1.43000  # hc,c,o_2
angle_coeff	17 bb  121.48800    1.20200    1.36830  # o_1,c_1,o_2

# BondAngle Coeffs

angle_coeff	 1 ba    8.01600    8.01600    1.53000    1.53000  # c,c,c
angle_coeff	 2 ba    8.01600    8.01600    1.53000    1.53000  # c,c,c1
angle_coeff	 3 ba   18.16780   15.87580    1.53000    1.52020  # c,c,c_1
angle_coeff	 4 ba   20.75400   11.42100    1.53000    1.10100  # c,c,hc
angle_coeff	 5 ba    8.01600    8.01600    1.53000    1.53000  # c,c1,c
angle_coeff	 6 ba   18.16780   15.87580    1.53000    1.52020  # c,c1,c_1
angle_coeff	 7 ba   20.75400   11.42100    1.53000    1.10100  # c,c1,hc
angle_coeff	 8 ba   34.99820   37.12980    1.52020    1.20200  # c,c_1,o_1
angle_coeff	 9 ba    1.34350    4.69780    1.52020    1.36830  # c,c_1,o_2
angle_coeff	10 ba   41.91160   46.46080    1.43000    1.36830  # c,o_2,c_1
angle_coeff	11 ba   20.75400   11.42100    1.53000    1.10100  # c1,c,hc
angle_coeff	12 ba   34.99820   37.12980    1.52020    1.20200  # c1,c_1,o_1
angle_coeff	13 ba    1.34350    4.69780    1.52020    1.36830  # c1,c_1,o_2
angle_coeff	14 ba   12.46320    9.17650    1.52020    1.10100  # c_1,c1,hc
angle_coeff	15 ba   18.10300   18.10300    1.10100    1.10100  # hc,c,hc
angle_coeff	16 ba    8.68640   57.49750    1.10100    1.43000  # hc,c,o_2
angle_coeff	17 ba   76.26140   71.87610    1.20200    1.36830  # o_1,c_1,o_2

# Dihedral Coeffs

dihedral_coeff	 1    0.00000    0.00000    0.05140    0.00000   -0.14300    0.00000  # c,c,c,c
dihedral_coeff	 2    0.00000    0.00000    0.05140    0.00000   -0.14300    0.00000  # c,c,c,c1
dihedral_coeff	 3    0.09720    0.00000    0.07220    0.00000   -0.25810    0.00000  # c,c,c,c_1
dihedral_coeff	 4    0.00000    0.00000    0.03160    0.00000   -0.16810    0.00000  # c,c,c,hc
dihedral_coeff	 5    0.00000    0.00000    0.05140    0.00000   -0.14300    0.00000  # c,c,c1,c
dihedral_coeff	 6    0.09720    0.00000    0.07220    0.00000   -0.25810    0.00000  # c,c,c1,c_1
dihedral_coeff	 7    0.00000    0.00000    0.03160    0.00000   -0.16810    0.00000  # c,c,c1,hc
dihedral_coeff	 8    0.04420    0.00000    0.02920    0.00000    0.05620    0.00000  # c,c,c_1,o_1
dihedral_coeff	 9    1.83410    0.00000    2.06030    0.00000   -0.01950    0.00000  # c,c,c_1,o_2
dihedral_coeff	10    0.00000    0.00000    0.03160    0.00000   -0.16810    0.00000  # c,c1,c,hc
dihedral_coeff	11    0.04420    0.00000    0.02920    0.00000    0.05620    0.00000  # c,c1,c_1,o_1
dihedral_coeff	12    1.83410    0.00000    2.06030    0.00000   -0.01950    0.00000  # c,c1,c_1,o_2
dihedral_coeff	13   -2.55940    0.00000    2.20130    0.00000    0.03250    0.00000  # c,c_1,o_2,c
dihedral_coeff	14   -2.55940    0.00000    2.20130    0.00000    0.03250    0.00000  # c,o_2,c_1,c1
dihedral_coeff	15    0.00000    0.00000    2.20890    0.00000    0.00000    0.00000  # c,o_2,c_1,o_1
dihedral_coeff	16    0.09720    0.00000    0.07220    0.00000   -0.25810    0.00000  # c1,c,c,c_1
dihedral_coeff	17   -0.02280    0.00000    0.02800    0.00000   -0.18630    0.00000  # c_1,c,c,hc
dihedral_coeff	18   -0.02280    0.00000    0.02800    0.00000   -0.18630    0.00000  # c_1,c1,c,hc
dihedral_coeff	19    0.00000    0.00000    0.00000    0.00000   -0.19320    0.00000  # c_1,o_2,c,hc
dihedral_coeff	20   -0.14320    0.00000    0.06170    0.00000   -0.10830    0.00000  # hc,c,c1,hc
dihedral_coeff	21   -0.18040    0.00000    0.00120    0.00000    0.03710    0.00000  # hc,c1,c_1,o_1
dihedral_coeff	22   -0.63590    0.00000    1.48070    0.00000   -0.04380    0.00000  # hc,c1,c_1,o_2

# MiddleBondTorsion Coeffs

dihedral_coeff	 1 mbt  -17.78700   -7.18770    0.00000    1.53000  # c,c,c,c
dihedral_coeff	 2 mbt  -17.78700   -7.18770    0.00000    1.53000  # c,c,c,c1
dihedral_coeff	 3 mbt   -1.59450    0.22670   -0.69110    1.53000  # c,c,c,c_1
dihedral_coeff	 4 mbt  -14.87900   -3.65810   -0.31380    1.53000  # c,c,c,hc
dihedral_coeff	 5 mbt  -17.78700   -7.18770    0.00000    1.53000  # c,c,c1,c
dihedral_coeff	 6 mbt   -1.59450    0.22670   -0.69110    1.53000  # c,c,c1,c_1
dihedral_coeff	 7 mbt  -14.87900   -3.65810   -0.31380    1.53000  # c,c,c1,hc
dihedral_coeff	 8 mbt    0.33880   -0.10960    0.12190    1.52020  # c,c,c_1,o_1
dihedral_coeff	 9 mbt  -17.32800   -5.79000   -3.21140    1.52020  # c,c,c_1,o_2
dihedral_coeff	10 mbt  -14.87900   -3.65810   -0.31380    1.53000  # c,c1,c,hc
dihedral_coeff	11 mbt    0.33880   -0.10960    0.12190    1.52020  # c,c1,c_1,o_1
dihedral_coeff	12 mbt  -17.32800   -5.79000   -3.21140    1.52020  # c,c1,c_1,o_2
dihedral_coeff	13 mbt    1.34450    3.55150   -4.92020    1.36830  # c,c_1,o_2,c
dihedral_coeff	14 mbt    1.34450    3.55150   -4.92020    1.36830  # c,o_2,c_1,c1
dihedral_coeff	15 mbt    4.26000    0.00000    0.00000    1.36830  # c,o_2,c_1,o_1
dihedral_coeff	16 mbt   -1.59450    0.22670   -0.69110    1.53000  # c1,c,c,c_1
dihedral_coeff	17 mbt   -3.50390    1.24580   -0.76100    1.53000  # c_1,c,c,hc
dihedral_coeff	18 mbt   -3.50390    1.24580   -0.76100    1.53000  # c_1,c1,c,hc
dihedral_coeff	19 mbt    0.00000    0.00000    0.00000    1.43000  # c_1,o_2,c,hc
dihedral_coeff	20 mbt  -14.26100   -0.53220   -0.48640    1.53000  # hc,c,c1,hc
dihedral_coeff	21 mbt    0.23590    0.91390    0.95940    1.52020  # hc,c1,c_1,o_1
dihedral_coeff	22 mbt  -13.76860   -2.59590    1.19340    1.52020  # hc,c1,c_1,o_2

# EndBondTorsion Coeffs

dihedral_coeff	 1 ebt   -0.07320    0.00000    0.00000   -0.07320    0.00000    0.00000    1.53000    1.53000  # c,c,c,c
dihedral_coeff	 2 ebt   -0.07320    0.00000    0.00000   -0.07320    0.00000    0.00000    1.53000    1.53000  # c,c,c,c1
dihedral_coeff	 3 ebt    0.00620   -0.00020    0.00360    0.00550    0.00600   -0.00090    1.53000    1.52020  # c,c,c,c_1
dihedral_coeff	 4 ebt    0.24860    0.24220   -0.09250    0.08140    0.05910    0.22190    1.53000    1.10100  # c,c,c,hc
dihedral_coeff	 5 ebt   -0.07320    0.00000    0.00000   -0.07320    0.00000    0.00000    1.53000    1.53000  # c,c,c1,c
dihedral_coeff	 6 ebt    0.00620   -0.00020    0.00360    0.00550    0.00600   -0.00090    1.53000    1.52020  # c,c,c1,c_1
dihedral_coeff	 7 ebt    0.24860    0.24220   -0.09250    0.08140    0.05910    0.22190    1.53000    1.10100  # c,c,c1,hc
dihedral_coeff	 8 ebt    0.26540    0.05030    0.10460   -0.28100    0.08160   -0.15220    1.53000    1.20200  # c,c,c_1,o_1
dihedral_coeff	 9 ebt    0.00000    0.00000    0.00000    0.00000    0.00000    0.00000    1.53000    1.36830  # c,c,c_1,o_2
dihedral_coeff	10 ebt    0.24860    0.24220   -0.09250    0.08140    0.05910    0.22190    1.53000    1.10100  # c,c1,c,hc
dihedral_coeff	11 ebt    0.26540    0.05030    0.10460   -0.28100    0.08160   -0.15220    1.53000    1.20200  # c,c1,c_1,o_1
dihedral_coeff	12 ebt    0.00000    0.00000    0.00000    0.00000    0.00000    0.00000    1.53000    1.36830  # c,c1,c_1,o_2
dihedral_coeff	13 ebt    0.00000    0.00000    0.00000    0.00000    0.00000    0.00000    1.52020    1.43000  # c,c_1,o_2,c
dihedral_coeff	14 ebt    0.00000    0.00000    0.00000    0.00000    0.00000    0.00000    1.43000    1.52020  # c,o_2,c_1,c1
dihedral_coeff	15 ebt    0.00000    0.00000    0.00000    0.00000    0.00000    0.00000    1.43000    1.20200  # c,o_2,c_1,o_1
dihedral_coeff	16 ebt    0.00620   -0.00020    0.00360    0.00550    0.00600   -0.00090    1.53000    1.52020  # c1,c,c,c_1
dihedral_coeff	17 ebt   -0.02040    0.36280   -0.44260   -0.00970   -0.03150   -0.07550    1.52020    1.10100  # c_1,c,c,hc
dihedral_coeff	18 ebt   -0.02040    0.36280   -0.44260   -0.00970   -0.03150   -0.07550    1.52020    1.10100  # c_1,c1,c,hc
dihedral_coeff	19 ebt    0.00000    0.00000    0.00000    0.00000    0.00000    0.00000    1.36830    1.10100  # c_1,o_2,c,hc
dihedral_coeff	20 ebt    0.21300    0.31200    0.07770    0.21300    0.31200    0.07770    1.10100    1.10100  # hc,c,c1,hc
dihedral_coeff	21 ebt    1.21430    0.28310    0.39160   -0.22980    0.03540    0.38530    1.10100    1.20200  # hc,c1,c_1,o_1
dihedral_coeff	22 ebt    0.00000    0.00000    0.00000    0.00000    0.00000    0.00000    1.10100    1.36830  # hc,c1,c_1,o_2

# AngleTorsion Coeffs

dihedral_coeff	 1 at    0.38860   -0.31390    0.13890    0.38860   -0.31390    0.13890  112.67000  112.67000  # c,c,c,c
dihedral_coeff	 2 at    0.38860   -0.31390    0.13890    0.38860   -0.31390    0.13890  112.67000  112.67000  # c,c,c,c1
dihedral_coeff	 3 at   -0.26070    0.32030   -0.22830    0.05150   -0.06740   -0.04740  112.67000  108.52950  # c,c,c,c_1
dihedral_coeff	 4 at   -0.24540    0.00000   -0.11360    0.31130    0.45160   -0.19880  112.67000  110.77000  # c,c,c,hc
dihedral_coeff	 5 at    0.38860   -0.31390    0.13890    0.38860   -0.31390    0.13890  112.67000  112.67000  # c,c,c1,c
dihedral_coeff	 6 at   -0.26070    0.32030   -0.22830    0.05150   -0.06740   -0.04740  112.67000  108.52950  # c,c,c1,c_1
dihedral_coeff	 7 at   -0.24540    0.00000   -0.11360    0.31130    0.45160   -0.19880  112.67000  110.77000  # c,c,c1,hc
dihedral_coeff	 8 at    0.08850   -1.37030   -0.54520    0.67500    0.59650    0.67250  108.52950  123.14510  # c,c,c_1,o_1
dihedral_coeff	 9 at    0.00000    0.00000    0.00000    0.00000    0.00000    0.00000  108.52950  100.31820  # c,c,c_1,o_2
dihedral_coeff	10 at   -0.24540    0.00000   -0.11360    0.31130    0.45160   -0.19880  112.67000  110.77000  # c,c1,c,hc
dihedral_coeff	11 at    0.08850   -1.37030   -0.54520    0.67500    0.59650    0.67250  108.52950  123.14510  # c,c1,c_1,o_1
dihedral_coeff	12 at    0.00000    0.00000    0.00000    0.00000    0.00000    0.00000  108.52950  100.31820  # c,c1,c_1,o_2
dihedral_coeff	13 at    0.00000    0.00000    0.00000    0.00000    0.00000    0.00000  100.31820  113.28800  # c,c_1,o_2,c
dihedral_coeff	14 at    0.00000    0.00000    0.00000    0.00000    0.00000    0.00000  113.28800  100.31820  # c,o_2,c_1,c1
dihedral_coeff	15 at    0.00000    0.00000    0.00000    0.00000    0.00000    0.00000  113.28800  120.79700  # c,o_2,c_1,o_1
dihedral_coeff	16 at   -0.26070    0.32030   -0.22830    0.05150   -0.06740   -0.04740  112.67000  108.52950  # c1,c,c,c_1
dihedral_coeff	17 at   -0.74660   -0.94480   -0.63210    0.01620    1.42110   -1.40920  108.52950  110.77000  # c_1,c,c,hc
dihedral_coeff	18 at   -0.74660   -0.94480   -0.63210    0.01620    1.42110   -1.40920  108.52950  110.77000  # c_1,c1,c,hc
dihedral_coeff	19 at    0.00000    0.00000    0.00000    0.00000    0.00000    0.00000  113.28800  107.68800  # c_1,o_2,c,hc
dihedral_coeff	20 at   -0.80850    0.55690   -0.24660   -0.80850    0.55690   -0.24660  110.77000  110.77000  # hc,c,c1,hc
dihedral_coeff	21 at    9.12990   -0.48470    0.35820   -1.49460    0.73080   -0.20830  107.73360  123.14510  # hc,c1,c_1,o_1
dihedral_coeff	22 at    0.00000    0.00000    0.00000    0.00000    0.00000    0.00000  107.73360  100.31820  # hc,c1,c_1,o_2

# AngleAngleTorsion Coeffs

dihedral_coeff	 1 aat  -22.04500  112.67000  112.67000  # c,c,c,c
dihedral_coeff	 2 aat  -22.04500  112.67000  112.67000  # c,c,c,c1
dihedral_coeff	 3 aat   -0.38010  112.67000  108.52950  # c,c,c,c_1
dihedral_coeff	 4 aat  -16.16400  112.67000  110.77000  # c,c,c,hc
dihedral_coeff	 5 aat  -22.04500  112.67000  112.67000  # c,c,c1,c
dihedral_coeff	 6 aat   -0.38010  112.67000  108.52950  # c,c,c1,c_1
dihedral_coeff	 7 aat  -16.16400  112.67000  110.77000  # c,c,c1,hc
dihedral_coeff	 8 aat   -8.01900  108.52950  123.14510  # c,c,c_1,o_1
dihedral_coeff	 9 aat    0.00000  108.52950  100.31820  # c,c,c_1,o_2
dihedral_coeff	10 aat  -16.16400  112.67000  110.77000  # c,c1,c,hc
dihedral_coeff	11 aat   -8.01900  108.52950  123.14510  # c,c1,c_1,o_1
dihedral_coeff	12 aat    0.00000  108.52950  100.31820  # c,c1,c_1,o_2
dihedral_coeff	13 aat    0.00000  100.31820  113.28800  # c,c_1,o_2,c
dihedral_coeff	14 aat    0.00000  113.28800  100.31820  # c,o_2,c_1,c1
dihedral_coeff	15 aat    0.00000  113.28800  120.79700  # c,o_2,c_1,o_1
dihedral_coeff	16 aat   -0.38010  112.67000  108.52950  # c1,c,c,c_1
dihedral_coeff	17 aat   -5.36240  108.52950  110.77000  # c_1,c,c,hc
dihedral_coeff	18 aat   -5.36240  108.52950  110.77000  # c_1,c1,c,hc
dihedral_coeff	19 aat    0.00000  113.28800  107.68800  # c_1,o_2,c,hc
dihedral_coeff	20 aat  -12.56400  110.77000  110.77000  # hc,c,c1,hc
dihedral_coeff	21 aat  -15.34960  107.73360  123.14510  # hc,c1,c_1,o_1
dihedral_coeff	22 aat    0.00000  107.73360  100.31820  # hc,c1,c_1,o_2

# BondBond13 Coeffs

dihedral_coeff	 1 bb13    0.00000    1.53000    1.53000  # c,c,c,c
dihedral_coeff	 2 bb13    0.00000    1.53000    1.53000  # c,c,c,c1
dihedral_coeff	 3 bb13    0.00000    1.53000    1.52020  # c,c,c,c_1
dihedral_coeff	 4 bb13    0.00000    1.53000    1.10100  # c,c,c,hc
dihedral_coeff	 5 bb13    0.00000    1.53000    1.53000  # c,c,c1,c
dihedral_coeff	 6 bb13    0.00000    1.53000    1.52020  # c,c,c1,c_1
dihedral_coeff	 7 bb13    0.00000    1.53000    1.10100  # c,c,c1,hc
dihedral_coeff	 8 bb13    0.00000    1.53000    1.20200  # c,c,c_1,o_1
dihedral_coeff	 9 bb13    0.00000    1.53000    1.36830  # c,c,c_1,o_2
dihedral_coeff	10 bb13    0.00000    1.53000    1.10100  # c,c1,c,hc
dihedral_coeff	11 bb13    0.00000    1.53000    1.20200  # c,c1,c_1,o_1
dihedral_coeff	12 bb13    0.00000    1.53000    1.36830  # c,c1,c_1,o_2
dihedral_coeff	13 bb13    0.00000    1.52020    1.43000  # c,c_1,o_2,c
dihedral_coeff	14 bb13    0.00000    1.43000    1.52020  # c,o_2,c_1,c1
dihedral_coeff	15 bb13    0.00000    1.43000    1.20200  # c,o_2,c_1,o_1
dihedral_coeff	16 bb13    0.00000    1.53000    1.52020  # c1,c,c,c_1
dihedral_coeff	17 bb13    0.00000    1.52020    1.10100  # c_1,c,c,hc
dihedral_coeff	18 bb13    0.00000    1.52020    1.10100  # c_1,c1,c,hc
dihedral_coeff	19 bb13    0.00000    1.36830    1.10100  # c_1,o_2,c,hc
dihedral_coeff	20 bb13    0.00000    1.10100    1.10100  # hc,c,c1,hc
dihedral_coeff	21 bb13    0.00000    1.10100    1.20200  # hc,c1,c_1,o_1
dihedral_coeff	22 bb13    0.00000    1.10100    1.36830  # hc,c1,c_1,o_2

# Improper Coeffs

improper_coeff	 1    0.00000    0.00000  # c,c,c,c
improper_coeff	 2    0.00000    0.00000  # c,c,c,c_1
improper_coeff	 3    0.00000    0.00000  # c,c,c,hc
improper_coeff	 4    0.00000    0.00000  # c,c,c1,hc
improper_coeff	 5    0.00000    0.00000  # c,c,hc,hc
improper_coeff	 6    0.00000    0.00000  # c,c1,hc,hc
improper_coeff	 7    0.00000    0.00000  # c,hc,hc,hc
improper_coeff	 8    0.00000    0.00000  # c,hc,hc,o_2
improper_coeff	 9    0.00000    0.00000  # c1,c,c,c_1
improper_coeff	10    0.00000    0.00000  # c1,c,c,hc
improper_coeff	11    0.00000    0.00000  # c1,c,c_1,hc
improper_coeff	12    0.00000    0.00000  # c1,c,hc,c_1
improper_coeff	13   46.92640    0.00000  # c_1,c,o_2,o_1
improper_coeff	14   46.92640    0.00000  # c_1,c1,o_2,o_1

# AngleAngle Coeffs

improper_coeff	 1 aa   -0.17290   -0.17290   -0.17290  112.67000  112.67000  112.67000  # c,c,c,c
improper_coeff	 2 aa    0.00000    0.00000    0.00000  112.67000  108.52950  108.52950  # c,c,c,c_1
improper_coeff	 3 aa   -1.31990   -1.31990    0.11840  112.67000  110.77000  110.77000  # c,c,c,hc
improper_coeff	 4 aa   -1.31990   -1.31990    0.11840  112.67000  110.77000  110.77000  # c,c,c1,hc
improper_coeff	 5 aa    0.27380   -0.48250    0.27380  110.77000  110.77000  107.66000  # c,c,hc,hc
improper_coeff	 6 aa    0.27380   -0.48250    0.27380  110.77000  110.77000  107.66000  # c,c1,hc,hc
improper_coeff	 7 aa   -0.31570   -0.31570   -0.31570  107.66000  107.66000  107.66000  # c,hc,hc,hc
improper_coeff	 8 aa    0.00000    0.00000    0.00000  107.66000  107.68800  107.68800  # c,hc,hc,o_2
improper_coeff	 9 aa    0.00000    0.00000    0.00000  112.67000  108.52950  108.52950  # c1,c,c,c_1
improper_coeff	10 aa   -1.31990   -1.31990    0.11840  112.67000  110.77000  110.77000  # c1,c,c,hc
improper_coeff	11 aa    2.04030   -1.82020    1.08270  108.52950  110.77000  107.73360  # c1,c,c_1,hc
improper_coeff	12 aa    1.08270   -1.82020    2.04030  110.77000  108.52950  107.73360  # c1,c,hc,c_1
improper_coeff	13 aa    0.00000    0.00000    0.00000  100.31820  123.14510  120.79700  # c_1,c,o_2,o_1
improper_coeff	14 aa    0.00000    0.00000    0.00000  100.31820  123.14510  120.79700  # c_1,c1,o_2,o_1


# --- Thermo Output ---
thermo_style custom step time temp press enthalpy etotal ke pe ebond eangle edihed eimp evdwl ecoul elong etail vol lx ly lz density pxx pyy pzz
thermo_modify flush yes
thermo 1000

# --- Trajectory ---
dump dump_npt all custom 1000 npt_extend.dump id type mol x y z ix iy iz vx vy vz

# --- Restart Checkpointing ---
# No restart checkpointing

# --- Initial Velocities (optional) ---
# Velocities read from data file

# --- SHAKE Constraints ---
# SHAKE disabled

# --- NPT Thermostat + Barostat (Nose-Hoover) ---
# T_damp = 100.0 fs  (heat bath coupling)
# P_damp = 1000.0 fs  (pressure bath coupling, ~10x T_damp typical)
# Ramp: T=300.0->300.0K  P=1.0->1.0atm
timestep 1.0
fix npt_fix all npt temp 300.0 300.0 100.0 iso 1.0 1.0 1000.0

run 2000000
PPPM Kokkos initialization ...
  using 12-bit tables for long-range coulomb
  G vector (1/distance) = 0.33264929
  grid = 45 45 45
  stencil order = 5
  estimated absolute RMS force accuracy = 0.00029329086
  estimated relative force accuracy = 8.8323671e-07
  using double precision cuFFT
  3d grid and FFT values/proc = 140608 91125
Generated 15 of 15 mixed pair_coeff terms from sixthpower/sixthpower mixing rule
Neighbor list info ...
  update: every = 1 steps, delay = 0 steps, check = yes
  max neighbors/atom: 4000, page size: 100000
  master list distance cutoff = 11.5
  ghost atom cutoff = 11.5
  binsize = 11.5, bins = 4 4 4
  1 neighbor lists, perpetual/occasional/extra = 1 0 0
  (1) pair lj/class2/coul/long/kk, perpetual
      attributes: full, newton off, kokkos_device
      pair build: full/bin/kk/device
      stencil: full/bin/3d
      bin: kk/device
Per MPI rank memory allocation (min/avg/max) = 63.01 | 63.01 | 63.01 Mbytes
   Step          Time           Temp          Press         Enthalpy        TotEng         KinEng         PotEng         E_bond        E_angle        E_dihed        E_impro         E_vdwl         E_coul         E_long         E_tail         Volume           Lx             Ly             Lz          Density          Pxx            Pyy            Pzz      
         0   0              298.48845     -1209.6496      25963.891      27288.923      6689.9353      20598.988      3729.5403      6673.5129     -1962.291       209.43932     -307.4215       43006.793     -30750.585     -522.56511      75108.783      42.192013      42.192013      42.192013      1.1071761     -2311.8484     -1399.0389      81.938517    
      1000   1000           299.43819     -83.492699      27183.411      27274.629      6711.2216      20563.407      3723.3415      6657.8592     -1935.5214      200.32321     -298.92855      42972.436     -30756.103     -523.9354       74912.345      42.155198      42.155198      42.155198      1.1100794     -2040.1003     -744.25573      2533.878     
      2000   2000           299.27194      149.07462      27405.68       27242.736      6707.4954      20535.241      3736.8673      6550.4339     -1874.4694      190.99779     -302.03603      42990.472     -30757.025     -523.68815      74947.713      42.161831      42.161831      42.161831      1.1095555     -523.24735     -543.46023      1513.9315    
      3000   3000           302.83686      745.23756      28166.871      27356.56       6787.3949      20569.165      3735.0826      6538.0935     -1898.803       210.08742     -275.48518      43006.177     -30745.987     -526.44163      74555.71       42.088195      42.088195      42.088195      1.1153894      2100.2383      500.43646     -364.96211    
      4000   4000           296.70219      611.20794      27780.744      27115.272      6649.9004      20465.372      3698.0139      6442.4825     -1930.0501      198.23429     -223.93463      43027.373     -30746.747     -525.7345       74655.99       42.107057      42.107057      42.107057      1.1138912     -945.69363      879.42757      1899.8899    
      5000   5000           300.72201     -2561.8771      24542.591      27355.827      6739.9954      20615.831      3721.8951      6653.7228     -1925.1413      229.87505     -327.47877      43011.947     -30748.988     -521.26572      75296.01       42.227041      42.227041      42.227041      1.1044231     -3464.2022     -2878.4757     -1342.9534    
      6000   6000           297.07459      460.29367      27612.481      27108.272      6658.2468      20450.026      3662.7206      6567.7023     -1934.8125      188.50126     -297.10323      43006.289     -30743.272     -522.55476      75110.27       42.192291      42.192291      42.192291      1.1071542     -461.88722     -13.979753      1856.748     
      7000   7000           296.81168     -32.643035      27192.289      27227.921      6652.3543      20575.567      3730.7913      6644.2605     -1933.744       198.26004     -348.28416      43031.548     -30747.265     -524.39194      74847.125      42.14296       42.14296       42.14296       1.1110467     -1730.594       126.09522      1506.5697    
      8000   8000           300.84108      126.48719      27529.277      27390.987      6742.664       20648.323      3721.6704      6616.4759     -1889.1219      209.49386     -239.06427      42982.714     -30753.845     -523.55722      74966.455      42.165345      42.165345      42.165345      1.1092781      187.78003      429.27547     -237.59392    
      9000   9000           301.48636      105.69708      27411.618      27296.521      6757.1266      20539.395      3673.5842      6633.2995     -1918.28        215.99162     -329.86765      43013.771     -30749.104     -525.66046      74666.504      42.109033      42.109033      42.109033      1.1137344      425.30204      571.88521     -680.09599    
     10000   10000          298.8564       274.96329      27602.107      27300.385      6698.182       20602.203      3739.2636      6699.4198     -1908.099       189.53438     -379.64921      43008.719     -30746.985     -521.64536      75241.212      42.216795      42.216795      42.216795      1.1052274      175.64248      962.4516      -313.2042     
     11000   11000          296.21098     -1332.9963      25659.567      27117.764      6638.891       20478.873      3687.4508      6473.1788     -1914.1971      219.8344      -248.43416      43011.833     -30750.793     -523.26288      75008.625      42.17325       42.17325       42.17325       1.1086545      41.367779     -1840.3938     -2199.963     
     12000   12000          299.22951     -60.110943      27150.187      27216.105      6706.5445      20509.561      3741.8793      6562.6652     -1911.5011      202.12749     -364.50619      43022.954     -30744.058     -521.98025      75192.939      42.207765      42.207765      42.207765      1.105937       637.43173     -189.3406      -628.42396    
     13000   13000          301.56367      292.93806      27667.73       27347.759      6758.8593      20588.899      3692.428       6650.4914     -1933.7645      215.67001     -302.73739      43009.222     -30742.411     -524.04924      74896.072      42.152145      42.152145      42.152145      1.1103206     -1197.5263      574.01286      1502.3277    
     14000   14000          302.31639      725.00554      28145.245      27346.766      6775.7297      20571.036      3678.8698      6574.9508     -1949.3304      202.47762     -201.42531      43015.97      -30750.476     -519.73828      75517.296      42.268368      42.268368      42.268368      1.1011868     -55.827837      1323.3229      907.52158    
     15000   15000          298.18588      136.41028      27395.745      27246.446      6683.154       20563.292      3756.0347      6566.2852     -1932.944       205.23383     -295.30901      43011.105     -30747.113     -522.99387      75047.207      42.180479      42.180479      42.180479      1.1080846      1153.9243      281.41836     -1026.1118    
     16000   16000          303.73805     -728.16288      26600.825      27401.661      6807.5931      20594.068      3684.18        6610.3645     -1879.1285      204.00183     -276.33545      43004.571     -30753.586     -520.46596      75411.713      42.24866       42.24866       42.24866       1.1027286     -2396.1183     -656.70172      868.33135    
     17000   17000          301.15282     -160.55076      27101.173      27276.345      6749.6511      20526.694      3729.3882      6606.575      -1907.491       204.23489     -353.45119      42999.545     -30752.107     -524.63198      74812.88       42.136532      42.136532      42.136532      1.1115553     -832.84918      73.544318      277.65259    
     18000   18000          298.86186      275.04608      27588.234      27287.581      6698.3045      20589.277      3796.6735      6532.8828     -1908.067       193.99398     -290.8795       43016.988     -30752.315     -523.65651      74952.242      42.16268       42.16268       42.16268       1.1094885     -1373.5878      1834.1519      364.57415    
     19000   19000          306.63477      14.049731      27515.461      27500.024      6872.5164      20627.508      3711.9428      6624.3323     -1907.6938      199.55617     -253.85491      43003.152     -30749.927     -520.9709       75338.622      42.235006      42.235006      42.235006      1.1037984     -967.10532      1548.6711     -539.41656    
     20000   20000          297.56629     -1018.3009      26122.797      27237.007      6669.2672      20567.74       3824.4062      6500.7239     -1922.5685      199.89167     -282.26248      42996.296     -30748.747     -523.13801      75026.529      42.176605      42.176605      42.176605      1.1083899     -669.98842      564.33588     -2949.2503    
     21000   21000          301.43845      365.82869      27692.982      27293.19       6756.0528      20537.137      3753.8066      6566.1444     -1941.4431      207.65005     -295.62302      42996.554     -30749.951     -523.78195      74934.291      42.159314      42.159314      42.159314      1.1097543      257.92375      235.57685      603.98547    
     22000   22000          296.48368      492.12818      27712.296      27174.613      6645.003       20529.61       3732.682       6621.69       -1917.4754      202.67608     -358.01993      43004.143     -30756.085     -523.91278      74915.578      42.155804      42.155804      42.155804      1.1100315      604.2503       853.21824      18.915988    
     23000   23000          297.34073      84.982044      27257.515      27165.094      6664.2117      20500.882      3770.3614      6582.3392     -1920.485       203.1273      -393.09297      43009.615     -30750.983     -526.33543      74570.753      42.091026      42.091026      42.091026      1.1151644      1161.2489     -136.98339     -769.31934    
     24000   24000          296.0936      -451.9883       26768.272      27263.367      6636.2602      20627.107      3804.227       6663.1534     -1929.9711      200.87448     -333.04513      42972.559     -30750.691     -522.57177      75107.825      42.191833      42.191833      42.191833      1.1071902     -1078.8623      1372.6702     -1649.7728    
     25000   25000          300.9674      -214.62813      27099.701      27334.378      6745.4953      20588.883      3751.0437      6507.8643     -1862.6375      207.0045      -265.80275      43006.225     -30754.814     -523.50918      74973.336      42.166635      42.166635      42.166635      1.1091763      970.77298     -1412.4096     -202.24775    
     26000   26000          294.7487       569.57707      27836.683      27215.935      6606.1175      20609.817      3814.7744      6585.1557     -1954.3795      201.81981     -294.16493      43012.15      -30755.539     -525.22327      74728.657      42.120714      42.120714      42.120714      1.112808       245.80017      582.27398      880.65705    
     27000   27000          303.054       -809.05788      26458.646      27349.115      6792.2617      20556.853      3738.1911      6656.2449     -1962.7645      207.10057     -331.04077      43000.733     -30751.612     -520.07704      75468.106      42.259188      42.259188      42.259188      1.1019046     -2676.2811      1710.6426     -1461.5351    
     28000   28000          297.26774      680.66047      27949.256      27205.311      6662.5759      20542.736      3703.3459      6613.0398     -1953.6368      214.33451     -303.69557      43017.277     -30747.929     -523.71742      74943.524      42.161045      42.161045      42.161045      1.1096176      1259.976       374.5391       407.46632    
     29000   29000          299.61568     -602.05805      26556.572      27214.562      6715.1996      20499.362      3752.7651      6592.2164     -1967.2493      199.78978     -350.65578      43014.721     -30742.225     -523.75296      74938.438      42.160092      42.160092      42.160092      1.1096929      590.45204     -1321.4754     -1075.1508    
     30000   30000          298.19335      180.08864      27478.623      27282.489      6683.3213      20599.167      3803.5926      6589.3402     -1929.8802      212.20729     -321.55122      42997.115     -30751.657     -525.58175      74677.686      42.111135      42.111135      42.111135      1.1135676      572.55142      429.60839     -461.89389    
     31000   31000          300.1039      -254.42169      26961.166      27239.564      6726.1419      20513.422      3829.2414      6492.9766     -1943.2624      185.28913     -303.56152      43003.078     -30750.339     -523.11183      75030.285      42.177309      42.177309      42.177309      1.1083345     -416.37698      792.49369     -1139.3818    
     32000   32000          303.30869     -421.98358      26922.138      27385.085      6797.97        20587.115      3728.9028      6606.9282     -1944.7514      199.05194     -266.491        43015.376     -30751.902     -521.76025      75224.644      42.213696      42.213696      42.213696      1.1054708     -2060.647       310.74686      483.94946    
     33000   33000          300.7796      -522.04568      26697.461      27267.892      6741.2861      20526.606      3855.2433      6543.9413     -1990.3294      193.86163     -335.72116      43009.147     -30749.536     -523.85671      74923.597      42.157308      42.157308      42.157308      1.1099127      745.09955      100.72621     -2411.9628    
     34000   34000          300.9009      -934.43554      26378.678      27396.19       6744.0049      20652.185      3805.7639      6629.053      -1926.3087      216.1412      -324.10391      43002.075     -30750.436     -525.67467      74664.487      42.108654      42.108654      42.108654      1.1137644     -595.98969     -3103.5538      896.2369     
     35000   35000          293.7531      -55.325032      26932.138      26992.183      6583.8034      20408.38       3698.0486      6554.9866     -1951.4171      199.16832     -343.70078      43001.282     -30749.988     -527.41549      74418.044      42.062274      42.062274      42.062274      1.1174528      850.34585     -923.36515     -92.955803    
     36000   36000          300.52223     -212.23511      27059.169      27290.207      6735.5178      20554.689      3718.5305      6658.4579     -1919.5733      196.46991     -347.29803      42998.288     -30750.186     -525.825        74643.14       42.104641      42.104641      42.104641      1.114083       1177.9975     -1059.3396     -755.36324    
     37000   37000          299.00515      604.66524      27975.59       27313.822      6701.516       20612.306      3717.9655      6596.1025     -1908.5322      205.6553      -279.75514      43032.52      -30751.65      -523.01761      75043.801      42.179841      42.179841      42.179841      1.1081348      49.411161      1434.0719      330.51264    
     38000   38000          304.45511     -894.54985      26449.446      27428.91       6823.6643      20605.246      3844.9731      6578.6173     -1925.266       212.51889     -366.50347      43007.52      -30746.615     -522.78519      75077.164      42.186091      42.186091      42.186091      1.1076424     -125.00013     -1498.6426     -1060.0069    
     39000   39000          297.63187      766.33116      27941.619      27110.27       6670.737       20439.533      3738.2311      6508.821      -1948.98        206.15153     -317.48204      43004.915     -30752.123     -527.64289      74385.972      42.056231      42.056231      42.056231      1.1179346     -102.83722      419.47068      1982.36      
     40000   40000          299.57741      814.68989      28165.559      27282.101      6714.3418      20567.759      3644.701       6605.3065     -1934.1009      200.25699     -221.11948      43016.154     -30743.44      -527.85348      74356.296      42.050637      42.050637      42.050637      1.1183808     -286.15609      916.33962      1813.8861    
     41000   41000          305.50911     -149.76211      27237.266      27400.551      6847.2873      20553.263      3824.0104      6570.3242     -1978.7257      185.16101     -300.41283      43004.565     -30751.658     -525.00609      74759.57       42.126521      42.126521      42.126521      1.1123479     -575.60443      19.620128      106.69797    
     42000   42000          298.93225     -543.88381      26686.334      27282.599      6699.882       20582.717      3719.2689      6643.1826     -1921.1779      187.16199     -297.3779       42998.318     -30746.659     -522.12476      75172.128      42.203871      42.203871      42.203871      1.1062431      656.40584     -302.0529      -1986.0044    
     43000   43000          299.31178     -475.78247      26822.984      27341.886      6708.3885      20633.498      3817.811       6543.0757     -1879.9277      195.53304     -306.57195      43013.67      -30750.093     -524.84318      74782.775      42.130879      42.130879      42.130879      1.1120027     -295.85164      77.857317     -1209.3531    
     44000   44000          297.95976     -1349.9293      25807.527      27289.089      6678.0858      20611.003      3777.5559      6668.5854     -1909.354       212.72916     -397.96388      43005.881     -30746.43      -521.55279      75254.567      42.219293      42.219293      42.219293      1.1050313     -1848.3178     -530.06693     -1671.403     
     45000   45000          293.87394     -280.70938      26851.913      27161.517      6586.5116      20575.005      3730.9202      6567.0542     -1934.7236      210.22725     -267.36958      43016.124     -30747.227     -518.98879      75626.353      42.288705      42.288705      42.288705      1.0995989      996.23703     -1674.2761     -164.08906    
     46000   46000          296.42747     -96.794013      27163.134      27269.071      6643.743       20625.328      3804.8614      6671.9516     -1956.2174      175.13108     -325.72815      43006.787     -30751.458     -523.00595      75045.474      42.180155      42.180155      42.180155      1.1081101     -247.55275      463.52422     -506.35351    
     47000   47000          297.80541      58.906122      27369.699      27305.268      6674.6264      20630.642      3712.4619      6628.3553     -1903.4663      202.02547     -288.64543      43028.562     -30748.651     -523.32382      74999.89       42.171613      42.171613      42.171613      1.1087836      949.60871     -329.63624     -443.25411    
     48000   48000          298.56197      921.13311      28232.315      27224.273      6691.5831      20532.69       3668.7577      6593.2976     -1930.7813      212.13802     -283.46887      43024.715     -30751.968     -523.05929      75037.821      42.178721      42.178721      42.178721      1.1082232     -252.01846      878.75528      2136.6625    
     49000   49000          300.25871     -918.41617      26295.938      27300.558      6729.6116      20570.946      3763.0648      6614.4119     -1917.0671      213.97649     -332.23035      42982.47      -30753.679     -523.29287      75004.326      42.172444      42.172444      42.172444      1.1087181     -393.71993     -436.15411     -1925.3745    
     50000   50000          301.89136      489.16207      27845.399      27310.763      6766.2038      20544.559      3729.0606      6557.0037     -1931.966       201.54268     -272.41623      43013.114     -30751.78      -523.72233      74942.822      42.160914      42.160914      42.160914      1.109628       370.9468       1605.6536     -509.11422    
     51000   51000          300.24566     -317.71976      26796.116      27141.984      6729.3191      20412.665      3660.2795      6519.3417     -1909.6956      209.40624     -320.58931      43004.258     -30750.336     -525.82468      74643.186      42.104649      42.104649      42.104649      1.1140823      143.48687     -979.52686     -117.11929    
     52000   52000          299.03953     -120.11435      27097.208      27227.757      6702.2865      20525.471      3724.1667      6610.4656     -1918.4654      193.08134     -342.03291      43011.084     -30752.828     -526.65461      74525.56       42.082521      42.082521      42.082521      1.1158407      446.40386     -473.73582     -333.01108    
     53000   53000          303.38066     -1359.5787      25817.405      27296.066      6799.5829      20496.483      3759.8489      6591.2482     -1902.317       199.79347     -408.20983      43007.255     -30751.135     -526.31114      74574.194      42.091673      42.091673      42.091673      1.115113      -1442.26       -1475.0429     -1161.4331    
     54000   54000          302.10507      485.96518      27870.867      27340.476      6770.9936      20569.482      3763.1978      6560.7164     -1917.4333      205.14454     -300.06788      43007.318     -30749.394     -524.46412      74836.825      42.141027      42.141027      42.141027      1.1111996      1119.7174     -616.86817      955.04632    
     55000   55000          301.71896     -512.37753      26704.684      27262.834      6762.3399      20500.495      3785.0864      6601.8051     -1932.4771      203.28745     -404.43661      43001.506     -30754.276     -525.46707      74693.985      42.114199      42.114199      42.114199      1.1133246      733.90947     -538.46584     -1732.5762    
     56000   56000          300.6846       392.62003      27596.943      27167.679      6739.157       20428.522      3707.1117      6565.636      -1918.9555      202.39976     -359.41327      42985.364     -30753.621     -523.54612      74968.045      42.165643      42.165643      42.165643      1.1092546      190.17685      988.58948     -0.90622313   
     57000   57000          299.09252     -537.98509      26670.493      27259.569      6703.4741      20556.095      3823.3009      6589.5091     -1947.7926      207.37453     -381.36437      43013.073     -30748.005     -522.76493      75080.073      42.186636      42.186636      42.186636      1.1075995      589.93265     -1904.3409     -299.54704    
     58000   58000          297.51511      747.20241      27991.763      27176.884      6668.1201      20508.763      3657.7246      6598.2587     -1962.0044      209.53623     -261.19131      43013.694     -30747.255     -524.87039      74778.898      42.130151      42.130151      42.130151      1.1120604      1890.4918     -130.21355      481.32893    
     59000   59000          301.0425      -450.01026      26956.218      27448.387      6747.1785      20701.208      3871.9395      6596.6164     -1920.3014      208.03741     -335.97103      43024.495     -30743.607     -523.37766      74992.176      42.170167      42.170167      42.170167      1.1088977      497.93716     -581.95036     -1266.0176    
     60000   60000          300.5916      -551.98175      26627.709      27227.706      6737.0727      20490.633      3671.2367      6618.7314     -1925.5954      221.3987      -361.33386      43011.294     -30745.099     -526.6024       74532.947      42.083911      42.083911      42.083911      1.1157301     -146.79579     -465.35372     -1043.7957    
     61000   61000          303.7794      -39.573041      27281.774      27324.669      6808.5198      20516.149      3786.8397      6589.0666     -1918.9553      199.90149     -397.68085      43007.831     -30750.853     -528.07604      74324.958      42.044729      42.044729      42.044729      1.1188523      128.98114     -829.61158      581.91132    
     62000   62000          297.78901     -612.44422      26453.926      27123.361      6674.2589      20449.102      3682.5806      6586.0908     -1916.1049      199.73588     -367.20231      43014.035     -30750.032     -523.67864      74949.074      42.162086      42.162086      42.162086      1.1095354     -1919.2719      484.25256     -402.3133     
     63000   63000          295.61257      442.16722      27722.488      27239.201      6625.4791      20613.722      3770.6591      6636.9588     -1926.8425      201.42279     -343.13627      43021.619     -30746.959     -523.70766      74944.921      42.161307      42.161307      42.161307      1.1095969     -604.61023      55.811583      1875.3003    
     64000   64000          303.21913     -743.88341      26631.959      27442.158      6795.9628      20646.195      3936.5695      6566.1324     -1957.4228      201.6622      -339.01998      42988.166     -30749.892     -525.55736      74681.152      42.111787      42.111787      42.111787      1.1135159     -1076.9197     -1187.8389      33.108354    
     65000   65000          300.03839      754.44836      28016.6        27195.457      6724.6736      20470.784      3668.5585      6522.9589     -1934.2147      208.76366     -281.08835      43035.583     -30749.778     -525.91782      74629.966      42.102164      42.102164      42.102164      1.1142796      691.43313      5.552127       1566.3598    
     66000   66000          302.95991      156.30763      27617.35       27446.154      6790.1529      20656.001      3770.8613      6712.3461     -1951.8622      184.93743     -358.81061      43033.328     -30734.799     -522.62815      75099.723      42.190316      42.190316      42.190316      1.1073097     -936.45797      859.01124      546.36961    
     67000   67000          300.04875     -96.903508      27137.912      27243.371      6724.9058      20518.465      3675.5074      6553.6394     -1937.3853      213.25887     -253.8903       43018.175     -30750.84      -525.97026      74622.526      42.100764      42.100764      42.100764      1.1143907      456.05566     -339.94151     -406.82467    
     68000   68000          301.53124      215.07269      27470.261      27235.402      6758.1325      20477.27       3634.7943      6581.7413     -1925.9091      200.84743     -287.85726      43026.426     -30752.773     -524.18505      74876.666      42.148504      42.148504      42.148504      1.1106083      229.95024     -88.202101      503.46994    
     69000   69000          300.6499      -49.815644      27260.742      27315.164      6738.3793      20576.785      3764.3335      6603.8021     -1944.2381      199.21183     -302.66037      43011.712     -30755.376     -523.95699      74909.257      42.154619      42.154619      42.154619      1.1101252      638.20325     -115.0508      -672.59938    
     70000   70000          296.73013     -567.47534      26598.859      27218.132      6650.5265      20567.605      3822.6827      6634.0646     -1958.7428      191.57484     -379.16687      43003.209     -30746.016     -524.53222      74827.108      42.139203      42.139203      42.139203      1.1113439      498.31872      304.95918     -2505.7039    
     71000   71000          298.27285     -784.03631      26527.982      27390.48       6685.103       20705.377      3830.0081      6679.5638     -1970.07        192.45953     -268.51477      42995.729     -30753.799     -520.33767      75430.305      42.252131      42.252131      42.252131      1.1024568     -1430.6232     -1997           1075.5142    
     72000   72000          299.0681       467.51345      27714.792      27204.842      6702.9269      20501.915      3650.443       6600.7614     -1919.7747      196.43703     -290.03387      43014.422     -30750.34      -524.7754       74792.433      42.132693      42.132693      42.132693      1.1118591      805.31168      155.22225      442.00643    
     73000   73000          302.78125     -827.45467      26445.331      27354.238      6786.1485      20568.089      3707.2704      6536.1138     -1885.2282      209.99263     -259.5978       43009.348     -30749.809     -521.11317      75318.053      42.231162      42.231162      42.231162      1.1040998     -158.81265     -1530.5998     -792.95154    
     74000   74000          297.10775     -274.2988       26855.368      27155.921      6658.99        20496.931      3676.0986      6571.0244     -1930.7262      208.87623     -278.25843      43000.382     -30750.466     -522.40754      75131.437      42.196254      42.196254      42.196254      1.1068423     -1789.2429     -126.31979      1092.6663    
     75000   75000          299.75941     -448.68381      26838.48       27327.567      6718.4209      20609.146      3784.6519      6582.1899     -1886.8558      207.47512     -347.8766       43019.859     -30750.297     -525.12353      74742.85       42.123381      42.123381      42.123381      1.1125967     -1742.1517      171.92223      224.17802    
     76000   76000          303.77309      463.51503      27810.583      27304.435      6808.3784      20496.057      3792.7442      6532.5178     -1959.9361      202.59308     -345.52325      43024.372     -30750.711     -524.19585      74875.124      42.148215      42.148215      42.148215      1.1106312     -803.21623      1355.1887      838.5726     
     77000   77000          298.2935      -2194.8445      24902.978      27308.927      6685.5659      20623.361      3787.1983      6687.64       -1972.6233      192.43375     -313.89202      42993.533     -30750.929     -522.18499      75163.458      42.202248      42.202248      42.202248      1.1063707     -1656.2069     -1847.141      -3081.1856    
     78000   78000          299.32995      1532.433       28856.206      27186.153      6708.7957      20477.358      3697.6381      6553.9492     -1966.9689      208.88722     -280.86941      43014.609     -30749.887     -525.24052      74726.201      42.120253      42.120253      42.120253      1.1128446      1691.8484      1771.7224      1133.7281    
     79000   79000          303.4931       964.77221      28356.255      27310.826      6802.1031      20508.723      3657.4894      6696.4248     -1978.0268      202.87461     -312.25811      42989.841     -30747.622     -528.24742      74300.844      42.040182      42.040182      42.040182      1.1192154      492.13266      2598.1895     -196.00555    
     80000   80000          300.16074     -40.264351      27346.434      27390.388      6727.4158      20662.972      3707.9379      6691.9287     -1927.038       195.9475      -267.76571      43011.635     -30749.673     -524.36331      74851.212      42.143728      42.143728      42.143728      1.110986       2003.8687     -1731.4054     -393.25635    
     81000   81000          297.24256     -191.59737      26983.585      27192.785      6662.0116      20530.774      3712.1898      6538.396      -1848.3684      205.95223     -347.29198      43013.559     -30743.663     -524.24543      74868.043      42.146886      42.146886      42.146886      1.1107363     -99.375016      138.81243     -614.22953    
     82000   82000          305.12551     -5.6978757      27443.449      27449.638      6838.6899      20610.948      3779.4485      6558.0742     -1861.7892      203.33286     -292.09744      42981.173     -30757.194     -526.95839      74482.597      42.074433      42.074433      42.074433      1.1164843      45.095336     -264.75938      202.57042    
     83000   83000          298.0357      -24.07758       27181.286      27207.42       6679.7879      20527.632      3729.8632      6610.4901     -1901.126       202.78874     -348.35335      42985.556     -30751.586     -527.35986      74425.894      42.063753      42.063753      42.063753      1.1173349      362.07579      1526.9821     -1961.2906    
     84000   84000          294.49533      1067.8473      28299.12       27137.618      6600.4387      20537.179      3724.183       6542.7235     -1912.9451      185.14433     -263.39557      43007.905     -30746.437     -526.25497      74582.154      42.093171      42.093171      42.093171      1.114994       1277.7079      1273.0266      652.8075     
     85000   85000          303.6419      -350.91946      27015.076      27399.124      6805.4381      20593.686      3789.247       6611.4899     -1996.5831      202.70972     -278.34758      43014.673     -30749.503     -523.03256      75041.655      42.179439      42.179439      42.179439      1.1081665     -1000.137      -441.36099      388.73958    
     86000   86000          300.72814      87.183761      27394.815      27300.308      6740.1327      20560.175      3663.3125      6683.5059     -1974.7416      183.88851     -228.7647       42985.52      -30752.546     -528.05562      74327.832      42.045271      42.045271      42.045271      1.118809      -397.83764     -114.50497      773.89389    
     87000   87000          297.15981     -156.02171      27021.814      27192.104      6660.1568      20531.947      3716.5083      6533.0716     -1927.4965      228.90938     -268.02877      43001.305     -30752.322     -524.44801      74839.123      42.141459      42.141459      42.141459      1.1111655      655.95655     -1039.132      -84.889681    
     88000   88000          301.98351      256.18787      27589.239      27310.727      6768.2691      20542.458      3805.4982      6512.9591     -1895.5246      195.64413     -342.48981      43016.93      -30750.559     -526.52773      74543.518      42.085901      42.085901      42.085901      1.1155719      636.78281      504.29722     -372.5164     
     89000   89000          298.70595      50.937186      27263.655      27208.534      6694.81        20513.724      3762.9286      6599.5775     -1940.2567      202.42968     -349.95875      42998.299     -30759.295     -528.96368      74200.234      42.021198      42.021198      42.021198      1.120733       91.890664     -10.384605      71.305499    
     90000   90000          299.76819      727.14448      27977.718      27188.534      6718.6178      20469.917      3687.9034      6580.8398     -1925.6138      197.87487     -350.88011      43028.527     -30748.735     -527.41131      74418.634      42.062385      42.062385      42.062385      1.1174439      1609.8931      783.68027     -212.13997    
     91000   91000          298.05918      1079.194       28337.636      27160.492      6680.3141      20480.178      3690.1481      6502.9366     -1907.6567      202.72226     -277.33583      43026.253     -30756.889     -524.7799       74791.792      42.132573      42.132573      42.132573      1.1118687      3224.1058     -156.07599      169.55227    
     92000   92000          304.62719     -239.44903      27156.065      27417.43       6827.5211      20589.909      3684.6144      6626.9357     -1923.9443      201.65732     -247.72843      43002.959     -30754.585     -524.41261      74844.175      42.142407      42.142407      42.142407      1.1110905     -152.66102     -603.12056      37.434479    
     93000   93000          305.08208     -262.18827      26997.341      27283.67       6837.7165      20445.954      3662.6734      6529.3978     -1924.5679      193.52539     -267.60516      43005.385     -30752.855     -524.14801      74881.958      42.149497      42.149497      42.149497      1.1105299     -713.86798     -207.26694      134.5701     
     94000   94000          298.04449     -8.9518106      27191.657      27201.444      6679.9849      20521.459      3721.0795      6600.1901     -1921.7138      196.33475     -337.28686      43015.688     -30752.833     -523.60121      74960.158      42.164164      42.164164      42.164164      1.1093713     -415.73163      186.62022      202.25598    
     95000   95000          300.03329      473.0986       27790.958      27274.719      6724.5594      20550.159      3702.8755      6523.5026     -1892.6335      212.42662     -259.23059      43012.64      -30749.422     -524.5752       74820.978      42.138053      42.138053      42.138053      1.111435       580.75416     -1214.377       2052.9187    
     96000   96000          299.40485      126.72332      27389.682      27250.673      6710.4742      20540.199      3696.6455      6580.7051     -1923.1092      214.12596     -275.5071       42999.128     -30751.789     -521.81868      75216.221      42.212121      42.212121      42.212121      1.1055946     -138.26034     -829.39536      1347.8257    
     97000   97000          302.83444     -14.319205      27338.177      27353.884      6787.3406      20566.543      3755.4957      6509.6439     -1875.4121      197.26354     -294.10773      43029.147     -30755.487     -521.85052      75211.632      42.211262      42.211262      42.211262      1.1056621      662.73537     -420.15939     -285.5336     
     98000   98000          300.07446      210.05861      27599.786      27370.681      6725.482       20645.199      3791.5271      6647.8623     -1944.5279      196.3235      -305.17513      43008.659     -30749.469     -524.82462      74785.419      42.131376      42.131376      42.131376      1.1119634     -760.54685      33.62237       1357.1003    
     99000   99000          297.59499     -906.64028      26281.254      27276.206      6669.9103      20606.296      3854.1266      6577.1226     -1932.379       199.54766     -355.09024      43014.431     -30751.463     -521.60277      75247.356      42.217944      42.217944      42.217944      1.1051372     -1086.9961     -567.76148     -1065.1632    
    100000   100000         300.98545     -507.66833      26790.441      27350.074      6745.8998      20604.175      3726.9634      6626.2279     -1912.7683      208.96172     -287.65002      42996.329     -30753.89      -519.25825      75587.108      42.281389      42.281389      42.281389      1.1001698      195.25759     -855.57392     -862.68866    
    101000   101000         297.11766     -14.906368      27225.834      27242.048      6659.2121      20582.836      3779.7131      6541.0075     -1898.8557      199.01852     -308.04368      43014.177     -30744.18      -526.2328       74585.296      42.093762      42.093762      42.093762      1.114947       675.62103      95.91656      -816.2567     
    102000   102000         307.66624     -65.635864      27414.278      27485.846      6895.6345      20590.212      3794.297       6516.2734     -1898.3201      212.84113     -277.51634      42994.672     -30752.035     -524.96166      74765.897      42.12771       42.12771       42.12771       1.1122538     -110.80163     -706.60027      620.49431    
    103000   103000         302.49034     -231.78251      27057.688      27310.421      6779.6284      20530.793      3805.1585      6566.2315     -1949.0352      204.06095     -349.12498      43004.157     -30750.655     -524.95971      74766.175      42.127762      42.127762      42.127762      1.1122496      556.44557     -160.91123     -1090.8819    
    104000   104000         300.19167      694.23487      28009.951      27248.621      6728.1092      20520.512      3709.1451      6565.8002     -1936.9392      205.54384     -258.41996      42991.574     -30756.191     -521.9643       75195.237      42.208195      42.208195      42.208195      1.1059032      609.93452      799.11863      673.65147    
    105000   105000         303.82071      997.45372      28429.233      27344.639      6809.4456      20535.194      3719.5041      6529.0864     -1890.3763      207.44318     -284.62615      43000.505     -30746.343     -526.42007      74558.763      42.08877       42.08877       42.08877       1.1153438      1070.3501      1454.747       467.26404    
    106000   106000         297.12104      672.83508      28063.408      27327.236      6659.2879      20667.948      3870.0944      6510.0995     -1914.6573      211.14642     -285.3747       43027.951     -30751.311     -523.16236      75023.037      42.175951      42.175951      42.175951      1.1084415      1024.1547      226.60449      767.74604    
    107000   107000         294.4967       532.26257      27655.068      27077.349      6600.4693      20476.88       3657.1859      6556.683      -1902.2042      213.21575     -297.91718      42999.388     -30749.471     -527.37166      74424.229      42.063439      42.063439      42.063439      1.1173599      203.55778     -121.16763      1514.3976    
    108000   108000         302.19637     -134.79918      27158.851      27305.564      6773.0399      20532.524      3658.1364      6644.6846     -1955.1462      192.20744     -285.5444       43025.812     -30747.625     -525.92741      74628.605      42.101908      42.101908      42.101908      1.1142999      275.67104      1002.6172     -1682.6858    
    109000   109000         297.05168     -707.96854      26433.885      27203.785      6657.7334      20546.052      3718.3741      6576.6863     -1911.1343      209.62577     -281.56151      42986.966     -30752.905     -526.36407      74566.695      42.090262      42.090262      42.090262      1.1152251     -1352.4844     -1690.1908      918.76955    
    110000   110000         300.50833     -1042.7959      26182.704      27324.38       6735.2063      20589.174      3728.1287      6625.963      -1936.9882      203.66611     -287.79154      43009.783     -30753.587     -522.8335       75070.227      42.184792      42.184792      42.184792      1.1077448      161.13318     -1791.9174     -1497.6037    
    111000   111000         299.40023      1337.9676      28835.972      27380.386      6710.3708      20670.015      3709.0567      6611.2776     -1904.091       207.42975     -217.53426      43015.539     -30751.662     -526.15625      74596.148      42.095803      42.095803      42.095803      1.1147848      2136.3069      511.21029      1366.3857    
    112000   112000         299.97405      749.36997      28101.281      27283.211      6723.2316      20559.98       3747.7121      6586.7604     -1925.8972      216.01816     -340.17897      43023.821     -30748.256     -524.3399       74854.554      42.144355      42.144355      42.144355      1.1109364     -255.51286      735.22793      1768.3948    
    113000   113000         302.678       -437.32833      26962.664      27440.434      6783.8344      20656.599      3874.1099      6611.0614     -1972.1252      203.08657     -302.87698      42993.632     -30750.288     -523.95704      74909.25       42.154617      42.154617      42.154617      1.1101253     -1582.4879      1813.9041     -1543.4012    
    114000   114000         300.24732     -1212.1855      25928.658      27255.936      6729.3563      20526.58       3721.4813      6611.8279     -1938.7241      188.17486     -307.47779      43000.563     -30749.266     -522.77409      75078.757      42.18639       42.18639       42.18639       1.1076189     -3052.5704     -152.44023     -431.54589    
    115000   115000         297.79695      701.90053      27923.451      27158.182      6674.4369      20483.745      3628.8101      6648.8463     -1966.494       197.95629     -293.10312      43016.446     -30748.716     -525.01095      74758.877      42.126391      42.126391      42.126391      1.1123582     -969.05478      725.30181      2349.4546    
    116000   116000         301.89078     -87.122606      27058.09       27153.378      6766.1907      20387.187      3750.2111      6461.7386     -1983.4492      204.92317     -316.83968      43020.158     -30749.555     -523.3578       74995.021      42.1707        42.1707        42.1707        1.1088556     -1378.2038      1656.6484     -539.81246    
    117000   117000         299.18739     -1807.168       25359.072      27337.171      6705.6005      20631.57       3795.2194      6556.0377     -1898.9281      219.2596      -288.6876       42996.814     -30748.145     -522.94701      75053.933      42.181739      42.181739      42.181739      1.1079853     -2272.6796     -612.40375     -2536.4206    
    118000   118000         296.90163      116.15006      27178.776      27051.998      6654.3702      20397.628      3657.8235      6554.1311     -1930.8604      205.20864     -345.84772      43003.642     -30746.469     -524.42701      74842.12       42.142021      42.142021      42.142021      1.111121       23.311458     -1424.6894      1749.8282    
    119000   119000         301.46497     -898.49583      26295.346      27278.317      6756.6472      20521.67       3721.6762      6571.7125     -1900.9751      189.4899      -300.74271      42993.685     -30753.176     -523.21759      75015.117      42.174467      42.174467      42.174467      1.1085586     -321.36393     -96.261792     -2277.8618    
    120000   120000         301.37948     -349.00585      27009.909      27389.473      6754.7311      20634.742      3685.0992      6578.4665     -1845.764       202.1749      -230.22162      42994.824     -30749.836     -526.32528      74572.191      42.091296      42.091296      42.091296      1.1151429     -1222.0635      1522.9827     -1347.9367    
    121000   121000         296.98198     -215.87675      27049.032      27285.111      6656.1712      20628.94       3784.1081      6577.0179     -1956.0706      187.15847     -213.92407      42999.669     -30749.019     -523.42628      74985.21       42.168861      42.168861      42.168861      1.1090007     -100.9878      -486.86628     -59.776183    
    122000   122000         293.18753     -445.16158      26639.927      27128.191      6571.1273      20557.064      3703.5725      6670.2956     -1934.416       194.85463     -368.5008       43038.294     -30747.036     -521.87912      75207.51       42.210491      42.210491      42.210491      1.1057227     -1674.7613     -605.90024      945.17685    
    123000   123000         298.25795     -577.41532      26599.27       27227.471      6684.7691      20542.702      3751.827       6566.1013     -1909.7897      193.49113     -307.86952      42996.643     -30747.701     -526.13497      74599.165      42.096371      42.096371      42.096371      1.1147397      52.906425     -1217.5738     -567.57864    
    124000   124000         297.28        -554.38031      26533.226      27137.473      6662.8506      20474.622      3678.2821      6644.5272     -1952.9273      220.56793     -386.34343      43021.501     -30750.986     -525.17096      74736.099      42.122112      42.122112      42.122112      1.1126972     -398.85203     -1422.3226      158.03372    
    125000   125000         301.54683      876.44365      28369.476      27410.541      6758.4819      20652.059      3735.3957      6662.139      -1936.0141      204.37097     -301.55131      43032.434     -30744.715     -523.16859      75022.143      42.175783      42.175783      42.175783      1.1084547      721.79257      699.78846      1207.7499    
    126000   126000         300.26464     -1987.5019      25066.528      27242.934      6729.7446      20513.19       3802.7221      6562.2993     -1944.4825      195.6053      -361.90793      43006.855     -30747.902     -522.72658      75085.581      42.187668      42.187668      42.187668      1.1075182     -3203.5731     -2315.6342     -443.29841    
    127000   127000         295.40759     -229.76402      26903.54       27153.706      6620.8849      20532.822      3699.1989      6582.4591     -1904.8351      205.40912     -288.03122      42993.336     -30754.715     -525.72688      74657.071      42.10726       42.10726       42.10726       1.1138751      370.60701     -276.4289      -783.47017    
    128000   128000         300.23866     -1676.3869      25496.649      27322.047      6729.1622      20592.885      3803.7623      6638.5148     -1940.5056      202.78514     -342.15929      42984.473     -30753.985     -525.68274      74663.34       42.108439      42.108439      42.108439      1.1137815     -1813.8074     -2134.1418     -1081.2116    
    129000   129000         305.57573      1342.6056      28864.77       27404.458      6848.7804      20555.678      3727.1534      6512.9485     -1904.8381      202.43001     -241.57984      43012.293     -30752.729     -526.27148      74579.815      42.092731      42.092731      42.092731      1.1150289      716.11909      3304.6113      7.0863459    
    130000   130000         301.11579     -514.31396      26659.033      27218.755      6748.821       20469.934      3782.4978      6462.2895     -1908.4329      199.39596     -291.20944      42987.395     -30762.003     -525.97308      74622.125      42.100689      42.100689      42.100689      1.1143967     -337.49355     -128.64229     -1076.806     
    131000   131000         301.59849     -416.30265      26876.795      27329.698      6759.6397      20570.058      3762.6385      6566.2332     -1895.8869      192.24715     -309.99735      43002.099     -30747.276     -526.152        74596.75       42.095916      42.095916      42.095916      1.1147758     -1159.2931     -1565.3882      1475.7733    
    132000   132000         301.42211      1441.1213      28933.137      27361.026      6755.6865      20605.339      3752.8102      6662.4255     -1973.0798      192.27099     -286.65738      43009.551     -30751.981     -524.71606      74800.892      42.134281      42.134281      42.134281      1.1117334      625.64278      1385.478       2312.2431    
    133000   133000         296.43447      316.51881      27408.171      27064.325      6643.9         20420.425      3685.1604      6489.9076     -1921.6106      208.39499     -303.54179      43011.852     -30749.738     -526.9168       74488.476      42.07554       42.07554       42.07554       1.1163962     -853.84127      1941.1222     -137.72449    
    134000   134000         301.84294      568.01594      28005.775      27386.185      6765.1186      20621.066      3744.1507      6635.8096     -1882.9877      203.43231     -316.35906      42991.068     -30754.048     -524.76259      74794.26       42.133036      42.133036      42.133036      1.111832       38.284085     -326.9722       1992.7359    
    135000   135000         302.7568      -754.59168      26531.358      27352.946      6785.6005      20567.345      3703.1913      6657.4212     -1880.3086      182.78564     -354.36765      43008.008     -30749.384     -525.73275      74656.238      42.107103      42.107103      42.107103      1.1138875      724.02581     -1845.2704     -1142.5305    
    136000   136000         298.05159      159.6208       27356.832      27182.521      6680.1441      20502.377      3786.9405      6575.7662     -1904.0459      206.8724      -430.50528      43019.301     -30751.953     -524.16853      74879.027      42.148947      42.148947      42.148947      1.1105733      515.14147     -681.98287      645.70379    
    137000   137000         304.07577     -933.06981      26474.776      27493.028      6815.1623      20677.866      3797.9836      6698.5229     -1930.7058      211.28435     -334.71741      42991.468     -30755.969     -524.52462      74828.193      42.139407      42.139407      42.139407      1.1113278     -240.43381     -1020.3894     -1538.3862    
    138000   138000         300.49352     -790.02408      26427.208      27290.533      6734.8744      20555.659      3834.3177      6638.5292     -1931.3805      191.55508     -420.18685      42999.529     -30756.705     -523.80905      74930.415      42.158587      42.158587      42.158587      1.1098117     -952.24569     -1797.7889      379.96239    
    139000   139000         302.76026     -751.4052       26516.124      27332.14       6785.6781      20546.462      3765.9016      6533.5068     -1920.4453      181.86226     -245.91024      42992.646     -30761.099     -527.08729      74464.381      42.071003      42.071003      42.071003      1.1167574     -1227.8976      203.84969     -1230.1676    
    140000   140000         296.92638     -350.74923      26805.788      27186.055      6654.925       20531.13       3749.0051      6662.7945     -1945.4467      186.65256     -353.66338      42981.162     -30749.374     -527.97749      74338.83       42.047345      42.047345      42.047345      1.1186435     -408.10875     -984.25304      340.11411    
    141000   141000         305.98478      718.38426      28126.851      27343.135      6857.9484      20485.187      3732.8437      6521.5476     -1947.2826      203.08465     -242.92379      42979.138     -30761.221     -524.69265      74804.229      42.134908      42.134908      42.134908      1.1116838     -698.0052       874.8868       1978.2712    
    142000   142000         302.8321       961.32682      28430.202      27382.053      6787.2883      20594.765      3796.4847      6544.6569     -1909.1387      208.0776      -269.19995      42980.153     -30756.269     -524.99495      74761.156      42.126819      42.126819      42.126819      1.1123243      576.92148      892.67682      1414.3822    
    143000   143000         295.89772      36.959367      27290.516      27250.283      6631.87        20618.413      3796.6134      6722.1149     -1930.8074      211.64895     -409.43226      42983.318     -30755.042     -525.835        74641.72       42.104374      42.104374      42.104374      1.1141042     -327.28333     -240.23544      678.39687    
    144000   144000         303.73221      797.17101      28293.004      27421.401      6807.4621      20613.939      3786.8784      6573.3585     -1956.71        204.71628     -233.20742      42991.651     -30752.748     -523.52775      74970.675      42.166136      42.166136      42.166136      1.1092157      494.23912      685.27613      1211.9978    
    145000   145000         302.40793      1493.1729      29014.33       27381.631      6777.7816      20603.849      3780.9609      6542.6741     -1956.3737      218.15413     -242.50568      43007.67      -30746.73      -523.49304      74975.647      42.167068      42.167068      42.167068      1.1091422      1754.5937      93.137311      2631.7876    
    146000   146000         298.81715      127.33057      27480.507      27340.927      6697.3024      20643.625      3718.7537      6709.3997     -1938.0651      221.03725     -324.47467      43007.765     -30750.79      -522.17665      75164.658      42.202473      42.202473      42.202473      1.1063531     -309.15894     -418.30989      1109.4606    
    147000   147000         299.46808     -1091.4894      26100.98       27296.663      6711.8914      20584.771      3696.9438      6632.0391     -1948.465       218.64781     -280.72476      43016.858     -30750.527     -522.52911      75113.957      42.192981      42.192981      42.192981      1.1070998     -890.18267     -1399.1354     -985.15005    
    148000   148000         300.25304      338.87367      27533.053      27165.509      6729.4845      20436.024      3722.0564      6550.9953     -1947.6144      189.79785     -330.63165      43003.879     -30752.458     -527.75868      74369.652      42.053155      42.053155      42.053155      1.1181799      347.03153      1244.4646     -574.87514    
    149000   149000         302.32107      1150.1239      28531.537      27278.445      6775.8347      20502.61       3724.1776      6534.0423     -1894.2854      194.32539     -325.63836      43019.351     -30749.362     -525.37418      74707.191      42.116681      42.116681      42.116681      1.1131278      1120.572       2080.062       249.73765    
    150000   150000         301.17749     -108.45061      27279.572      27398.309      6750.204       20648.105      3818.3085      6551.413      -1906.8578      203.54079     -260.56923      42994.245     -30751.975     -522.81848      75072.384      42.185196      42.185196      42.185196      1.1077129     -911.09188     -185.45927      771.19931    
[...]
   1955000   1955000        296.56811     -387.3431       26727.795      27149.813      6646.8952      20502.918      3762.2236      6537.3474     -1896.3317      219.22907     -394.04994      43019.824     -30745.324     -525.3776       74706.705      42.116589      42.116589      42.116589      1.113135      -1583.2012     -369.77183      790.94376    
   1956000   1956000        300.24822     -134.91705      27079.357      27226.54       6729.3765      20497.163      3688.5956      6574.5436     -1986.1038      205.67496     -269.08202      43031.026     -30747.491     -524.7082       74802.012      42.134492      42.134492      42.134492      1.1117168     -324.59585     -100.97674      20.821436    
   1957000   1957000        302.61096     -232.38492      27170.16       27425.055      6782.332       20642.723      3757.5667      6638.9799     -1924.5258      202.7242      -312.795        43030.897     -30750.123     -521.85889      75210.425      42.211036      42.211036      42.211036      1.1056798     -318.92169     -78.723202     -299.50988    
   1958000   1958000        298.19832      882.02964      28272.768      27310.945      6683.4327      20627.512      3793.9097      6633.7091     -1956.5632      201.54843     -281.97233      42983.923     -30747.043     -524.92231      74771.502      42.128762      42.128762      42.128762      1.1121704      2030.8497     -195.66816      810.90742    
   1959000   1959000        302.03704      932.51358      28349.101      27335.546      6769.4689      20566.077      3634.082       6666.7581     -1894.1743      199.7263      -305.04661      43016.564     -30751.832     -526.6411       74527.471      42.082881      42.082881      42.082881      1.1158121      81.783965      2007.8333      707.92346    
   1960000   1960000        299.66265      1.1318252      27188.085      27186.845      6716.2524      20470.593      3641.6158      6592.7663     -1936.2291      205.56946     -291.89652      43004.36      -30745.593     -522.51597      75115.847      42.193335      42.193335      42.193335      1.107072      -1095.6581      461.99551      637.05805    
   1961000   1961000        297.05073      792.25487      28083.85       27219.137      6657.712       20561.425      3733.6964      6586.4262     -1944.699       207.54525     -294.62583      43022.81      -30749.727     -524.44492      74839.564      42.141541      42.141541      42.141541      1.1111589      1371.8314      62.366802      942.5664     
   1962000   1962000        304.79906     -500.29231      26873.915      27416.613      6831.3732      20585.24       3778.5329      6608.4068     -1939.6096      198.91578     -309.53551      43002.907     -30754.378     -527.68238      74380.405      42.055182      42.055182      42.055182      1.1180183     -541.19003     -294.09757     -665.58934    
   1963000   1963000        296.97257     -740.265        26365.588      27173.638      6655.9603      20517.678      3746.7866      6579.2869     -1946.5857      204.79284     -292.39247      42981.555     -30755.766     -524.3918       74847.145      42.142964      42.142964      42.142964      1.1110464     -1413.3893     -846.96127      39.555552    
   1964000   1964000        299.80869     -174.92134      27108.899      27299.626      6719.5254      20580.101      3694.041       6583.5094     -1892.4848      188.25096     -243.4908       43004.708     -30754.433     -524.97265      74764.331      42.127416      42.127416      42.127416      1.1122771      363.77947     -2107.2848      1218.7413    
   1965000   1965000        297.66318     -193.85264      27030.689      27242.202      6671.4388      20570.763      3803.3117      6610.4306     -1962.3946      209.29419     -341.16569      43006.479     -30755.192     -524.6154       74815.244      42.136976      42.136976      42.136976      1.1115201      23.27551      -421.69108     -183.14236    
   1966000   1966000        301.33937      551.09699      28005.275      27404.799      6753.8322      20650.967      3842.2897      6560.0135     -1921.6401      215.65814     -308.32736      43015.862     -30752.889     -525.33816      74712.313      42.117643      42.117643      42.117643      1.1130515     -186.44965      77.443389      1762.2972    
   1967000   1967000        311.15985     -363.70369      27006.334      27402.317      6973.9358      20428.381      3691.8333      6609.2022     -1965.961       207.40275     -385.24383      43018.168     -30747.02      -525.74797      74654.076      42.106697      42.106697      42.106697      1.1139198     -585.10485      634.72545     -1140.7317    
   1968000   1968000        299.20805     -1481.8902      25720.073      27329.494      6706.0635      20623.431      3799.4436      6580.4997     -1907.6479      217.05194     -323.32649      43007.825     -30750.416     -527.05176      74469.402      42.071948      42.071948      42.071948      1.1166821     -2471.5455     -2264.3352      290.21014    
   1969000   1969000        298.94259      929.57141      28363.123      27351.228      6700.1138      20651.114      3807.7109      6637.561      -1992.0629      205.16477     -277.52732      43024.415     -30754.147     -525.84077      74640.902      42.10422       42.10422       42.10422       1.1141164      1669.5469      974.44107      144.72629    
   1970000   1970000        303.60566     -860.37028      26480.111      27426.633      6804.6259      20622.008      3756.2811      6603.3022     -1923.0985      194.44604     -256.87418      43001.293     -30753.342     -520.30913      75434.443      42.252904      42.252904      42.252904      1.1023963     -1212.2023     -219.63948     -1149.269     
   1971000   1971000        301.1614       520.44438      27885.853      27318.089      6749.8433      20568.246      3669.2235      6615.226      -1931.0654      203.07039     -265.71386      43022.839     -30745.334     -524.70275      74802.789      42.134638      42.134638      42.134638      1.1117052      667.62806      434.51867      459.18641    
   1972000   1972000        302.11617      671.524        28087.531      27356.508      6771.2423      20585.266      3784.4299      6592.0535     -1971.1997      205.29762     -284.87409      43012.105     -30752.547     -525.82048      74643.781      42.104761      42.104761      42.104761      1.1140734      712.92161     -585.95168      1887.6021    
   1973000   1973000        304.94029      151.90644      27567.492      27401.461      6834.5385      20566.922      3755.3174      6641.3431     -1950.8774      190.5734      -343.70736      43026.202     -30751.93      -523.71284      74944.179      42.161168      42.161168      42.161168      1.1096079     -117.88206     -373.47352      947.07489    
   1974000   1974000        301.25507     -1062.9106      26121.776      27279.166      6751.9429      20527.223      3800.1982      6624.1749     -1977.4374      183.83346     -354.57556      43004.382     -30753.353     -525.68291      74663.316      42.108434      42.108434      42.108434      1.1137819     -72.132211     -796.58961     -2320.01      
   1975000   1975000        299.86151     -604.22012      26543.854      27203.489      6720.7094      20482.78       3707.0588      6659.8521     -2009.549       196.06036     -335.60068      43011.594     -30746.636     -524.32223      74857.076      42.144828      42.144828      42.144828      1.110899      -1433.8207     -131.55927     -247.28039    
   1976000   1976000        300.33932     -116.42023      27216.964      27344.442      6731.4183      20613.024      3891.4506      6548.8955     -1891.1195      201.11646     -402.00489      43016.684     -30751.998     -522.75569      75081.4        42.186884      42.186884      42.186884      1.1075799     -495.32447      763.74469     -617.68091    
   1977000   1977000        297.99286     -96.723714      27184.479      27289.753      6678.8278      20610.925      3853.7402      6567.4928     -1910.1909      205.96257     -349.02643      42997.23      -30754.283     -525.91725      74630.047      42.102179      42.102179      42.102179      1.1142784      850.80251     -2322.3983      1181.4247    
   1978000   1978000        303.56998     -826.39416      26546.423      27453.465      6803.8262      20649.639      3777.9587      6584.0915     -1926.7735      200.63624     -232.36919      42996.233     -30750.138     -521.51534      75259.97       42.220303      42.220303      42.220303      1.1049519     -2300.3789     -786.039        607.23536    
   1979000   1979000        298.97648     -790.9208       26353.741      27218.868      6700.8733      20517.995      3773.5106      6509.2788     -1906.0055      206.92508     -333.70567      43022.391     -30754.399     -523.31107      75001.718      42.171955      42.171955      42.171955      1.1087566     -1328.4906     -1124.6         80.328137    
   1980000   1980000        303.93471     -130.95126      27289.493      27431.654      6812.0006      20619.654      3868.046       6550.4016     -1905.7762      219.87955     -377.77011      43016.767     -30751.895     -527.27184      74438.319      42.066094      42.066094      42.066094      1.1171484     -213.41712     -1326.7703      1147.3337    
   1981000   1981000        296.38857     -247.45844      26882.471      27152.302      6642.8713      20509.43       3696.8846      6568.5874     -1936.8182      215.63026     -308.79379      43026.605     -30752.665     -524.9502       74767.529      42.128016      42.128016      42.128016      1.1122295     -1370.5424      702.8049      -74.637848    
   1982000   1982000        297.71754      1920.7331      29353.53       27274.022      6672.6572      20601.365      3816.5723      6507.2648     -1952.83        193.46658     -258.14303      43042.71      -30747.676     -528.70489      74236.554      42.028053      42.028053      42.028053      1.1201847      1149.3931      2516.778       2096.0281    
   1983000   1983000        296.08558     -446.67948      26616.198      27102.188      6636.0805      20466.108      3795.1948      6484.7808     -1928.5444      206.97752     -325.33524      42988.394     -30755.36      -526.10879      74602.877      42.097069      42.097069      42.097069      1.1146842     -1147.5797     -596.8859       404.42715    
   1984000   1984000        298.92969     -735.08097      26504.063      27309.215      6699.8246      20609.39       3770.3251      6622.1657     -1929.4155      213.69944     -307.37567      42990.683     -30750.691     -522.594        75104.63       42.191235      42.191235      42.191235      1.1072373     -191.22324     -1035.3303     -978.68938    
   1985000   1985000        298.18181     -255.40946      27007.94       27288.252      6683.0626      20605.189      3792.3799      6559.6822     -1918.5945      196.36053     -270.87997      43002.466     -30756.225     -521.55782      75253.841      42.219157      42.219157      42.219157      1.1050419      1632.3794     -1475.1596     -923.44825    
   1986000   1986000        299.13719     -771.99486      26525.279      27371.723      6704.4753      20667.247      3756.5373      6671.6437     -1906.2161      207.79983     -336.637        43026.277     -30752.158     -522.0635       75180.949      42.205521      42.205521      42.205521      1.1061133     -915.58755     -1017.2867     -383.11033    
   1987000   1987000        297.93264      522.3347       27789.157      27219.263      6677.4781      20541.785      3647.5428      6589.6622     -1938.9968      204.56095     -222.0127       43008.574     -30747.545     -524.64031      74811.691      42.136309      42.136309      42.136309      1.1115729      391.57347      166.33968      1009.091     
   1988000   1988000        297.0926      -516.08589      26695.763      27256.423      6658.6506      20597.772      3788.2822      6636.3058     -1949.3318      210.23988     -349.7004       43012.905     -30750.928     -526.90143      74490.649      42.075949      42.075949      42.075949      1.1163636     -381.90045     -1233.227       66.869796    
   1989000   1989000        298.77646     -1104.2284      26124.953      27335.432      6696.3904      20639.042      3779.717       6655.6305     -1972.2552      214.90351     -301.00082      43010.212     -30748.166     -522.16602      75166.188      42.202759      42.202759      42.202759      1.1063306     -2431.2721      414.56226     -1295.9754    
   1990000   1990000        301.4432      -236.80812      26991.038      27249.391      6756.1593      20493.232      3761.8463      6570.7363     -1945.22        207.3008      -341.10857      42989.657     -30749.98      -524.67383      74806.912      42.135412      42.135412      42.135412      1.1116439     -87.593978     -899.77334      276.94297    
   1991000   1991000        299.85809      377.05407      27681.267      27270.855      6720.6327      20550.222      3686.6274      6633.4325     -1902.7745      191.52822     -333.93184      43022.334     -30746.993     -525.88498      74634.626      42.10304       42.10304       42.10304       1.11421       -18.639178     -100.35304      1250.1544    
   1992000   1992000        304.62463      11.144034      27310.963      27298.833      6827.4638      20471.369      3695.4105      6583.2519     -1930.7897      193.01828     -316.584        43002.588     -30755.526     -525.85066      74639.498      42.103956      42.103956      42.103956      1.1141373      1268.1866     -1805.9912      571.23666    
   1993000   1993000        305.66267      350.03775      27769.771      27389.743      6850.7289      20539.014      3713.7683      6565.4304     -1926.5897      212.98837     -318.40662      43035.892     -30744.069     -527.23756      74443.158      42.067005      42.067005      42.067005      1.1170758     -114.29342     -8.2257875      1172.6324    
   1994000   1994000        300.00341      870.18489      28155.125      27208.411      6723.8896      20484.522      3718.5471      6509.8854     -1955.9953      209.95777     -252.17572      43005.327     -30751.024     -526.138        74598.734      42.09629       42.09629       42.09629       1.1147461      820.48862      2531.5126     -741.44655    
   1995000   1995000        296.33134     -84.266954      27031.832      27123.608      6641.5887      20482.019      3661.4161      6450.09       -1903.9583      197.71603     -196.41317      43021.167     -30747.998     -525.57878      74678.108      42.111215      42.111215      42.111215      1.1135613      1342.0963     -1025.9934     -568.90373    
   1996000   1996000        301.09762      343.10985      27677.499      27304.538      6748.414       20556.124      3746.8472      6558.2499     -1914.347       189.93725     -291.26257      43022.859     -30756.16      -526.59567      74533.901      42.084091      42.084091      42.084091      1.1157158      1110.0604      7.5247792     -88.255675    
   1997000   1997000        297.2771       385.50356      27651.11       27229.996      6662.7857      20567.21       3700.7668      6627.8763     -1901.9417      205.12997     -321.89045      43008.926     -30751.657     -524.00547      74902.327      42.153318      42.153318      42.153318      1.1102279     -45.797005      179.5763       1022.7314    
   1998000   1998000        295.21735     -286.52946      26976.667      27289.379      6616.6211      20672.758      3841.0187      6614.625      -1930.4007      209.5703      -343.01017      43032.495     -30751.54      -524.48404      74833.983      42.140494      42.140494      42.140494      1.1112418      12.355045     -575.23721     -296.70622    
   1999000   1999000        291.67776      1816.106       28987.615      27015.235      6537.2893      20477.945      3682.7945      6551.2131     -1914.7662      196.17616     -304.45561      43016.245     -30749.262     -527.05706      74468.653      42.071807      42.071807      42.071807      1.1166934      2424.3849      995.77977      2028.1532    
   2000000   2000000        300.34111      176.25958      27573.425      27382.188      6731.4584      20650.729      3897.1692      6529.5941     -1915.0683      208.97181     -314.04684      42996.267     -30752.158     -527.57757      74395.182      42.057967      42.057967      42.057967      1.1177962     -677.60367      429.53081      776.8516     
Loop time of 4874.01 on 1 procs for 2000000 steps with 7520 atoms

Performance: 35.453 ns/day, 0.677 hours/ns, 410.339 timesteps/s, 3.086 Matom-step/s
100.0% CPU use with 1 MPI tasks x 1 OpenMP threads

MPI task timing breakdown:
Section |  min time  |  avg time  |  max time  |%varavg| %total
---------------------------------------------------------------
Pair    | 599.3      | 599.3      | 599.3      |   0.0 | 12.30
Bond    | 568.29     | 568.29     | 568.29     |   0.0 | 11.66
Kspace  | 2325.4     | 2325.4     | 2325.4     |   0.0 | 47.71
Neigh   | 497.98     | 497.98     | 497.98     |   0.0 | 10.22
Comm    | 70.432     | 70.432     | 70.432     |   0.0 |  1.45
Output  | 21.182     | 21.182     | 21.182     |   0.0 |  0.43
Modify  | 690.46     | 690.46     | 690.46     |   0.0 | 14.17
Other   |            | 101        |            |       |  2.07

Nlocal:           7520 ave        7520 max        7520 min
Histogram: 1 0 0 0 0 0 0 0 0 0
Nghost:          20527 ave       20527 max       20527 min
Histogram: 1 0 0 0 0 0 0 0 0 0
Neighs:              0 ave           0 max           0 min
Histogram: 1 0 0 0 0 0 0 0 0 0
FullNghs:  4.84141e+06 ave 4.84141e+06 max 4.84141e+06 min
Histogram: 1 0 0 0 0 0 0 0 0 0

Total # of neighbors = 4841414
Ave neighs/atom = 643.80505
Ave special neighs/atom = 5.7207447
Neighbor list builds = 71252
Dangerous builds = 0

# --- Cleanup ---
unfix npt_fix

undump dump_npt

# --- Write Output ---
write_dump all custom npt_extend_last.dump id type mol x y z xu yu zu vx vy vz modify sort id
write_data /home/alexzhao/PolyJarvis/data/PMMA4/lammps/equil/npt_extend/npt_extend_out.data
System init for write_data ...
PPPM Kokkos initialization ...
  using 12-bit tables for long-range coulomb
  G vector (1/distance) = 0.33288361
  grid = 45 45 45
  stencil order = 5
  estimated absolute RMS force accuracy = 0.00029054851
  estimated relative force accuracy = 8.749782e-07
  using double precision cuFFT
  3d grid and FFT values/proc = 140608 91125
Generated 15 of 15 mixed pair_coeff terms from sixthpower/sixthpower mixing rule

print "STAGE COMPLETE: NPT T=300.0->300.0K P=1.0->1.0atm steps=2000000"
STAGE COMPLETE: NPT T=300.0->300.0K P=1.0->1.0atm steps=2000000
quit
      |  2.07

Nlocal:           7520 ave        7520 max        7520 min
Histogram: 1 0 0 0 0 0 0 0 0 0
Nghost:          20527 ave       20527 max       20527 min
Histogram: 1 0 0 0 0 0 0 0 0 0
Neighs:              0 ave           0 max           0 min
Histogram: 1 0 0 0 0 0 0 0 0 0
FullNghs:  4.84141e+06 ave 4.84141e+06 max 4.84141e+06 min
Histogram: 1 0 0 0 0 0 0 0 0 0

Total # of neighbors = 4841414
Ave neighs/atom = 643.80505
Ave special neighs/atom = 5.7207447
Neighbor list builds = 71252
Dangerous builds = 0
System init for write_data ...
PPPM Kokkos initialization ...
  using 12-bit tables for long-range coulomb
  G vector (1/distance) = 0.33288361
  grid = 45 45 45
  stencil order = 5
  estimated absolute RMS force accuracy = 0.00029054851
  estimated relative force accuracy = 8.749782e-07
  using double precision cuFFT
  3d grid and FFT values/proc = 140608 91125
Generated 15 of 15 mixed pair_coeff terms from sixthpower/sixthpower mixing rule
STAGE COMPLETE: NPT T=300.0->300.0K P=1.0->1.0atm steps=2000000
