units real
atom_style full
boundary p p p

# --- Force Field Styles ---
pair_style lj/class2/coul/long 9.5 9.5
kspace_style pppm 1e-6
dielectric 1.000000
bond_style class2
angle_style class2
dihedral_style class2
improper_style class2
special_bonds lj/coul 0 0 1
pair_modify mix sixthpower tail yes
neighbor 2.0 bin
neigh_modify delay 0 every 1 check yes
neigh_modify one 4000
# KOKKOS: package loaded via -pk kokkos on the command line

read_data /home/alexzhao/PolyJarvis/data/PEEK4/lammps/equil/npt_prod300/npt_prod300_out.data
Reading data file ...
  orthogonal box = (5.1240839 5.1240839 5.1240839) to (51.931445 51.931445 51.931445)
  1 by 1 by 1 MPI processor grid
  reading atoms ...
  8720 atoms
  reading velocities ...
  8720 velocities
  scanning bonds ...
  3 = max bonds/atom
  scanning angles ...
  9 = max angles/atom
  scanning dihedrals ...
  18 = max dihedrals/atom
  scanning impropers ...
  4 = max impropers/atom
  orthogonal box = (5.1240839 5.1240839 5.1240839) to (51.931445 51.931445 51.931445)
  1 by 1 by 1 MPI processor grid
  reading bonds ...
  9480 bonds
  reading angles ...
  15104 angles
  reading dihedrals ...
  22512 dihedrals
  reading impropers ...
  4864 impropers
Finding 1-2 1-3 1-4 neighbors ...
  special bond factors lj:    0        0        1       
  special bond factors coul:  0        0        1       
     3 = max # of 1-2 neighbors
     6 = max # of 1-3 neighbors
     9 = max # of special neighbors
  special bonds CPU = 0.010 seconds
  read_data CPU = 2.423 seconds


# --- Thermo Output ---
thermo_style custom step time temp press enthalpy etotal ke pe ebond eangle edihed eimp evdwl ecoul elong etail vol lx ly lz density pxx pyy pzz
thermo_modify flush yes
thermo 100

# --- Trajectory ---
dump dump_npt all custom 1000 /home/alexzhao/PolyJarvis/data/PEEK4/lammps/mechanical/bm_series/bm_P500/bm_P500.dump id type mol x y z ix iy iz vx vy vz

# --- Restart Checkpointing ---
restart 10000 npt_1.rst npt_2.rst

# --- Initial Velocities (optional) ---
# Velocities read from data file

# --- SHAKE Constraints ---
fix shake_fix all shake 1e-4 1000 0 m 1.008
Finding SHAKE clusters ...
    3088 = # of size 2 clusters
       0 = # of size 3 clusters
       0 = # of size 4 clusters
       0 = # of frozen angles
  find clusters CPU = 0.012 seconds

# --- NPT Thermostat + Barostat (Nose-Hoover) ---
# T_damp = 100.0 fs  (heat bath coupling)
# P_damp = 1000.0 fs  (pressure bath coupling, ~10x T_damp typical)
# Ramp: T=300.0->300.0K  P=500.0->500.0atm
timestep 1.0
fix npt_fix all npt temp 300.0 300.0 100.0 iso 500.0 500.0 1000.0

run 500000
PPPM Kokkos initialization ...
  using 12-bit tables for long-range coulomb
  G vector (1/distance) = 0.30697585
  grid = 36 36 36
  stencil order = 5
  estimated absolute RMS force accuracy = 0.00037726607
  estimated relative force accuracy = 1.1361256e-06
  using double precision cuFFT
  3d grid and FFT values/proc = 79507 46656
Generated 21 of 21 mixed pair_coeff terms from sixthpower/sixthpower mixing rule
Neighbor list info ...
  update: every = 1 steps, delay = 0 steps, check = yes
  max neighbors/atom: 4000, page size: 100000
  master list distance cutoff = 11.5
  ghost atom cutoff = 11.5
  binsize = 11.5, bins = 5 5 5
  1 neighbor lists, perpetual/occasional/extra = 1 0 0
  (1) pair lj/class2/coul/long/kk, perpetual
      attributes: full, newton off, kokkos_device
      pair build: full/bin/kk/device
      stencil: full/bin/3d
      bin: kk/device
Per MPI rank memory allocation (min/avg/max) = 37.86 | 37.86 | 37.86 Mbytes
   Step          Time           Temp          Press         Enthalpy        TotEng         KinEng         PotEng         E_bond        E_angle        E_dihed        E_impro         E_vdwl         E_coul         E_long         E_tail         Volume           Lx             Ly             Lz          Density          Pxx            Pyy            Pzz      
         0   0              342.74228      1451.5183      28570.741      26399.836      7856.1452      18543.691      3054.7605      5788.93        5276.982       435.45405     -1321.9525      15715.91      -10406.393     -783.87864      102551.6       46.807361      46.807361      46.807361      1.1953488      255.6797       1665.9087      2432.9665    
       100   100            299.51031     -220.8723       25162.958      25492.526      6865.2063      18627.32       3017.906       5752.1535      5389.4218      421.85483     -1253.3808      15711.183     -10411.819     -785.71038      102312.52      46.770958      46.770958      46.770958      1.1981421     -1457.2611      638.44631      156.19789    
       200   200            300.55052      907.52797      26730.674      25383.759      6889.0494      18494.71       2985.0044      5736.7778      5324.1827      431.28805     -1284.613       15711.812     -10409.742     -789.92745      101766.32      46.68758       46.68758       46.68758       1.2045728      1402.6265      303.96684      1015.9906    
       300   300            300.43843      244.19864      25729.36       25368.137      6886.4802      18481.657      3012.004       5699.9808      5376.2116      435.17224     -1334.4008      15701.017     -10408.327     -792.56664      101427.45      46.6357        46.6357        46.6357        1.2085973     -159.55998     -486.8346       1378.9905    
       400   400            299.66432      878.11021      26682.605      25386.259      6868.7364      18517.523      3041.6803      5717.6874      5298.4764      436.17481     -1254.6191      15688.402     -10410.279     -794.13669      101226.92      46.604946      46.604946      46.604946      1.2109915      484.66489      1563.8166      585.84908    
       500   500            300.61475      625.84701      26347.382      25423.29       6890.5216      18532.768      3002.7892      5773.2889      5404.6658      441.03328     -1380.2616      15703.315     -10412.062     -793.99952      101244.41      46.60763       46.60763       46.60763       1.2107823     -78.769612      2173.9445     -217.63381    
       600   600            299.63967      778.50635      26619.89       25471.554      6868.1714      18603.382      3031.9063      5781.8995      5365.2934      447.43956     -1318.492       15705.811     -10410.475     -794.80435      101141.89      46.591893      46.591893      46.591893      1.2120096     -340.67615      2593.8061      82.389057    
       700   700            304.03494      795.89206      26715.574      25540.538      6968.9172      18571.62       3063.1029      5723.378       5332.6924      451.4757      -1279.5315      15693.691     -10413.189     -794.09065      101232.79      46.605847      46.605847      46.605847      1.2109213      716.77909      947.96178      722.9353     
       800   800            301.09485      1090.9015      27116.31       25501.61       6901.5263      18600.083      3097.4137      5772.9884      5339.9575      436.93181     -1340.1162      15707.674     -10414.766     -792.06511      101491.67      46.645541      46.645541      46.645541      1.2078325      1421.6005      1193.2992      657.80492    
       900   900            296.81719      752.75175      26484.738      25368.69       6803.4761      18565.214      3024.7261      5821.8632      5286.6551      425.80229     -1279.1675      15700.298     -10414.963     -790.74485      101661.13      46.671487      46.671487      46.671487      1.2058192      965.06052      564.99742      728.19731    
      1000   1000           296.62444      1114.2281      27001.416      25345.702      6799.0581      18546.644      3030.9698      5790.1117      5294.9227      436.12517     -1286.7598      15693.562     -10412.288     -788.96187      101890.87      46.706619      46.706619      46.706619      1.2031003      1009.6132      1116.0084      1217.0628    
      1100   1100           296.09437      319.73947      25883.113      25407.467      6786.908       18620.559      2999.9042      5764.1545      5379.0525      438.1535      -1261.2016      15710.711     -10410.215     -788.09665      102002.73      46.723705      46.723705      46.723705      1.2017809     -145.84193      302.62363      802.43672    
      1200   1200           304.2726      -370.16775      25006.289      25557.771      6974.3649      18583.406      2978.0768      5792.7466      5365.5164      435.6773      -1283.4112      15704.815     -10410.015     -786.92728      102154.31      46.746837      46.746837      46.746837      1.1999978     -291.87011     -141.83069     -676.80246    
      1300   1300           304.12112      322.0613       26120.706      25641.177      6970.8927      18670.284      3023.3166      5887.7909      5323.4661      429.78864     -1298.3152      15714.656     -10410.419     -787.39279      102093.92      46.737623      46.737623      46.737623      1.2007076      155.4461      -517.44494      1328.1827    
      1400   1400           302.35713      168.94027      25757.868      25506.984      6930.4594      18576.525      3057.6721      5774.9107      5329.8986      437.30102     -1335.1719      15718.875     -10406.961     -789.45674      101827         46.696857      46.696857      46.696857      1.203855      -256.62053      238.98788      524.45344    
      1500   1500           298.71326      162.71425      25684.69       25444.045      6846.9367      18597.108      3032.1356      5817.9344      5389.3355      420.54987     -1374.4985      15721.638     -10409.987     -792.7102       101409.08      46.632885      46.632885      46.632885      1.2088162     -492.60323      969.94931      10.796686    
      1600   1600           302.7608       1638.3954      27833.219      25418.307      6939.7123      18478.594      3006.4864      5787.271       5302.5963      429.67403     -1340.0269      15706.275     -10413.682     -795.39792      101066.41      46.5803        46.5803        46.5803        1.2129148      1726.7651      2407.1337      781.28727    
      1700   1700           299.12832      261.61544      25747.446      25362.054      6856.4505      18505.603      2972.5028      5808.8004      5307.0144      431.65514     -1307.6048      15706.478     -10413.243     -795.84331      101009.85      46.571609      46.571609      46.571609      1.2135939     -92.948217      553.73265      324.06189    
      1800   1800           298.84462      1258.6634      27187.32       25329.625      6849.9477      18479.677      2972.6353      5846.7709      5255.3107      429.82405     -1328.2683      15716.09      -10412.685     -794.33267      101201.95      46.601113      46.601113      46.601113      1.2112904      1182.7154      709.21134      1884.0636    
      1900   1900           302.80119      104.49071      25568          25413.453      6940.6381      18472.815      2970.1322      5821.772       5317.2915      437.11652     -1356.3895      15694.545     -10411.653     -792.65241      101416.47      46.634018      46.634018      46.634018      1.2087281      1045.624      -124.86742     -607.28444    
      2000   2000           304.31901     -131.14591      25328.664      25522.939      6975.4287      18547.51       3060.7216      5790.2178      5345.2642      415.47029     -1356.667       15703.494     -10410.991     -791.41791      101574.67      46.658253      46.658253      46.658253      1.2068456      224.41071     -737.96013      120.11169    
      2100   2100           302.33548      1782.4201      28182.642      25542.656      6929.9632      18612.692      3091.2521      5831.2128      5287.9473      431.05197     -1329.3851      15714.806     -10414.193     -791.54478      101558.39      46.65576       46.65576       46.65576       1.2070391      2294.6818      1472.4318      1580.1466    
      2200   2200           298.9229       1179.3421      27114.995      25368.488      6851.742       18516.746      3044.5998      5747.352       5280.1152      427.00563     -1269.8797      15699.397     -10411.844     -791.65617      101544.1       46.653572      46.653572      46.653572      1.2072089      141.33723      2011.8341      1384.8549    
      2300   2300           296.90967     -800.82679      24118.264      25303.766      6805.596       18498.17       2956.9358      5706.5041      5442.3962      435.73936     -1345.399       15714.893     -10412.9       -791.9606       101505.07      46.647593      46.647593      46.647593      1.2076731     -608.59759     -1318.1227     -475.76005    
      2400   2400           300.41604      295.30554      25790.563      25353.354      6885.9668      18467.387      2897.4878      5814.7976      5359.0313      432.07829     -1337.158       15709.709     -10408.559     -791.86152      101517.77      46.649538      46.649538      46.649538      1.2075221     -502.27296      338.29818      1049.8914    
      2500   2500           297.22171      118.6676       25606.318      25430.587      6812.7482      18617.839      3039.955       5743.607       5394.9166      446.20641     -1303.297       15708.871     -10412.42      -791.68303      101540.65      46.653044      46.653044      46.653044      1.2072499      199.44401     -565.18311      721.74192    
      2600   2600           302.56006      574.93936      26396.013      25543.55       6935.1111      18608.439      3053.8264      5743.9501      5362.2073      442.16524     -1303.8921      15718.487     -10408.305     -790.70357      101666.43      46.672299      46.672299      46.672299      1.2057563      73.225004      704.96171      946.63135    
      2700   2700           304.73286      1254.068       27494.163      25632.504      6984.9147      18647.59       3060.1016      5826.0991      5257.0049      430.5734      -1230.1744      15714.159     -10410.174     -789.74765      101789.49      46.691123      46.691123      46.691123      1.2042986      1332.1617      607.189        1822.8533    
      2800   2800           300.87641     -936.85108      24117.296      25511.701      6896.5194      18615.182      2998.7369      5815.3398      5434.8154      439.09954     -1381.3798      15719.644     -10411.074     -787.67821      102056.92      46.731977      46.731977      46.731977      1.2011429     -1306.5033     -784.11103     -719.93892    
      2900   2900           297.70763      1141.1068      27078.049      25383.288      6823.8863      18559.402      3002.5395      5735.2114      5322.2055      436.37913     -1239.6041      15713.867     -10411.197     -789.37806      101837.15      46.698409      46.698409      46.698409      1.203735       1140.6067      1587.9963      694.71753    
      3000   3000           298.12508      310.93957      25844.04       25382.258      6833.4549      18548.803      2991.0959      5831.0389      5342.0374      436.92865     -1355.2267      15712.845     -10409.916     -789.41597      101832.26      46.697661      46.697661      46.697661      1.2037928      78.185129      587.04875      267.58484    
      3100   3100           296.22639      578.3071       26305.634      25448.228      6789.9342      18658.294      3125.0844      5748.4412      5381.0833      436.82433     -1346.8705      15725.526     -10411.794     -790.74979      101660.49      46.67139       46.67139       46.67139       1.2058268     -82.110836      1003.99        813.04212    
      3200   3200           307.16301      703.98684      26604.277      25561.942      7040.6172      18521.325      3063.0125      5814.7238      5249.8544      427.26716     -1327.6173      15703.802     -10409.718     -791.81644      101523.55      46.650424      46.650424      46.650424      1.2074533      578.87863      74.054775      1459.0271    
      3300   3300           306.01932      1107.6858      27144.241      25507.965      7014.4022      18493.563      2993.4303      5790.6213      5286.2895      430.37794     -1296.8086      15704.036     -10414.383     -793.64675      101289.41      46.614534      46.614534      46.614534      1.2102444      1225.4578      1256.899       840.70062    
      3400   3400           298.38298      570.66923      26184.969      25341.849      6839.3664      18502.483      2969.6131      5853.8897      5290.7417      434.13962     -1348.3379      15712.834     -10410.397     -793.52801      101304.57      46.616859      46.616859      46.616859      1.2100633     -1090.1806      722.63132      2079.5569    
      3500   3500           297.71213      723.86304      26426.711      25357.521      6823.9894      18533.532      2988.1746      5821.0534      5324.0103      434.1277      -1337.1718      15715.41      -10412.072     -793.72253      101279.74      46.613051      46.613051      46.613051      1.2103599      83.195476      515.10201      1573.2916    
      3600   3600           300.87035      453.05079      26108.425      25438.653      6896.3803      18542.273      2976.7691      5784.7002      5382.122       451.18841     -1359.639       15718.037     -10410.905     -793.02594      101368.71      46.626695      46.626695      46.626695      1.2092977      558.24231      352.79142      448.11865    
      3700   3700           302.2092       637.72575      26426.25       25482.881      6927.0688      18555.812      2995.0799      5741.7157      5369.8426      458.01763     -1296.9491      15700.428     -10412.323     -792.53734      101431.2       46.636275      46.636275      46.636275      1.2085526      520.96962      255.5913       1136.6163    
      3800   3800           301.45697      257.27737      25762.286      25381.044      6909.8265      18471.218      2989.7965      5717.3836      5343.7068      449.12488     -1320.0305      15701.979     -10410.743     -791.16708      101606.87      46.663183      46.663183      46.663183      1.2064631      97.105212      932.53431     -257.8074     
      3900   3900           295.87706      1179.2817      26993.213      25243.522      6781.927       18461.595      2964.6844      5704.9029      5319.5512      424.70148     -1239.9099      15702.768     -10415.103     -790.17514      101734.42      46.682701      46.682701      46.682701      1.2049505      307.65259      1945.0496      1285.143     
      4000   4000           297.97625     -290.4531       24860.797      25292.382      6830.0434      18462.339      2949.239       5736.9916      5422.3329      432.24817     -1374.0389      15709.633     -10414.067     -788.9998       101885.97      46.70587       46.70587       46.70587       1.2031582     -272.18458      251.80094     -850.97567    
      4100   4100           295.96571      1058.1134      26958.808      25389.185      6783.9589      18605.226      2943.2057      5756.7312      5422.509       447.95211     -1273.7163      15721.726     -10413.182     -790.3218       101715.55      46.679813      46.679813      46.679813      1.2051741      625.48012      2057.8839      490.97628    
      4200   4200           304.08583      394.54542      26035.999      25451.528      6970.0838      18481.444      2941.7653      5740.6437      5357.0336      437.81423     -1293.1761      15710.377     -10413.013     -791.40931      101575.77      46.658422      46.658422      46.658422      1.2068325      482.73784      1438.8569     -737.9585     
      4300   4300           301.66278     -131.94558      25268.646      25463.695      6914.5441      18549.151      2981.5092      5671.7342      5490.9727      442.44828     -1335.2309      15709.124     -10411.407     -793.08376      101361.32      46.625562      46.625562      46.625562      1.2093859      1458.5337     -276.89011     -1577.4803    
      4400   4400           298.17065      1078.3167      27025.203      25434.433      6834.4994      18599.934      3035.7545      5711.9411      5395.1949      457.23017     -1313.7726      15726.18      -10412.595     -794.70533      101154.49      46.593828      46.593828      46.593828      1.2118586      1850.5716      1344.7186      39.65998     
      4500   4500           296.86852      1207.1805      27152.189      25373.278      6804.6526      18568.625      3048.5239      5689.1757      5378.3274      421.35039     -1268.6158      15711.311     -10411.447     -795.582        101043.03      46.576707      46.576707      46.576707      1.2131955      1904.1454      1483.0184      234.37761    
      4600   4600           299.93907      16.194356      25267.775      25243.898      6875.0341      18368.864      2930.0241      5713.5194      5379.5824      412.90183     -1378.3887      15722.303     -10411.078     -795.14382      101098.71      46.585261      46.585261      46.585261      1.2125273     -194.70954      1343.6534     -1100.3608    
      4700   4700           294.61447      1168.9629      26937.298      25211.65       6752.9867      18458.663      2986.6773      5686.6338      5379.9076      419.2924      -1312.1361      15711.846     -10413.558     -794.1739       101222.18      46.604218      46.604218      46.604218      1.2110482      1514.6038      823.76372      1168.5213    
      4800   4800           298.05253     -818.33792      24134.24       25346.623      6831.7918      18514.831      2885.1117      5762.5732      5436.5363      447.54796     -1310.6093      15703.829     -10410.157     -791.33437      101585.39      46.659895      46.659895      46.659895      1.2067182     -229.44179     -1032.4593     -1193.1127    
      4900   4900           298.43357      5.3881287      25435.013      25427.005      6840.5259      18586.479      2953.7648      5806.3892      5382.4695      444.7558      -1305.6267      15715.985     -10411.258     -788.83869      101906.78      46.70905       46.70905       46.70905       1.2029125     -428.82878     -1326.178       1771.1712    
      5000   5000           302.08739     -814.2852       24247.109      25459.137      6924.2766      18534.86       3010.6138      5804.0534      5339.1122      444.00786     -1348.9883      15697.998     -10411.937     -787.64598      102061.1       46.732614      46.732614      46.732614      1.2010937     -692.80799     -1869.1179      119.07024    
      5100   5100           299.66255      1062.979       27010.942      25432.093      6868.6958      18563.397      3053.6435      5757.3849      5303.6481      438.81949     -1288.1708      15707.906     -10409.834     -789.31675      101845.06      46.699618      46.699618      46.699618      1.2036415      944.72462      1331.6663      912.54606    
      5200   5200           295.02086      1180.2132      27062.386      25313.485      6762.3018      18551.183      3047.3472      5802.9556      5219.9606      430.06246     -1256.0078      15717.975     -10411.11      -791.15623      101608.27      46.663396      46.663396      46.663396      1.2064466      523.67389      1181.5558      1835.4099    
      5300   5300           295.82921      586.987        26091.358      25223.471      6780.8302      18442.64       3042.0969      5755.986       5257.4535      426.64572     -1336.8578      15708.994     -10411.678     -792.92525      101381.58      46.628669      46.628669      46.628669      1.2091441     -334.55603      880.55202      1214.965     
      5400   5400           298.19253      206.77537      25638.075      25332.8        6835.0009      18497.799      2940.1697      5769.3206      5370.2893      442.53949     -1341.3782      15725.614     -10408.755     -794.0985       101231.79      46.605693      46.605693      46.605693      1.2109333      630.12314     -287.39141      277.59439    
      5500   5500           297.94808      209.68198      25773.507      25464.714      6829.3978      18635.316      3003.6832      5750.1747      5482.6195      443.1913      -1353.4085      15721.37      -10412.314     -796.08858      100978.73      46.566826      46.566826      46.566826      1.213968       318.31597      6.3628591      304.3671     
      5600   5600           303.03769      1569.7266      27774.408      25460.842      6946.059       18514.783      3092.3626      5690.359       5295.9206      432.6718      -1306.8586      15718.861     -10408.533     -795.44362      101060.6       46.579408      46.579408      46.579408      1.2129845      2233.8765      1710.1216      765.18164    
      5700   5700           302.8213       853.5472       26672.396      25412.872      6941.099       18471.773      2983.6181      5726.7436      5369.0404      434.82768     -1346.5396      15716.474     -10412.39      -794.48995      101181.91      46.598038      46.598038      46.598038      1.2115302      408.4988       349.40638      1802.7364    
      5800   5800           298.75233      357.89906      25868.071      25338.957      6847.8324      18491.125      3027.2189      5818.9952      5255.997       450.70273     -1363.5895      15715.367     -10413.567     -793.01089      101370.63      46.62699       46.62699       46.62699       1.2092747     -1086.2782      679.23399      1480.7414    
      5900   5900           297.55131      1539.4748      27550.631      25276.707      6820.3033      18456.404      2965.7417      5754.0247      5305.4338      420.66521     -1302.7675      15722.811     -10409.504     -793.71362      101280.88      46.613225      46.613225      46.613225      1.2103464      1124.8958      787.7487       2705.78      
      6000   6000           297.46791      180.42641      25605.955      25339.919      6818.3916      18521.527      3074.2166      5633.3339      5404.187       446.07506     -1339.1907      15712.869     -10409.964     -795.11077      101102.91      46.585907      46.585907      46.585907      1.2124769      1021.2697     -1040.7005      560.71003    
      6100   6100           302.46908      314.64469      25961.709      25497.903      6933.0255      18564.877      2990.6805      5807.2325      5388.9095      439.65178     -1378.3754      15725.593     -10408.815     -795.33728      101074.12      46.581484      46.581484      46.581484      1.2128223      627.40784     -137.37517      453.90141    
      6200   6200           301.64265      1127.0672      27179.432      25516.713      6914.0827      18602.63       3026.1298      5792.103       5381.1888      440.71022     -1334.416       15707.806     -10410.891     -794.69078      101156.34      46.594112      46.594112      46.594112      1.2118364      1615.1891     -475.71056      2241.7231    
      6300   6300           297.70713      816.53925      26654.795      25448.324      6823.8749      18624.449      3064.7946      5754.5615      5395.6429      454.42006     -1346.9907      15715.625     -10413.605     -793.46426      101312.71      46.618108      46.618108      46.618108      1.2099661      249.51238      564.63998      1635.4654    
      6400   6400           299.66582      577.78552      26165.204      25310.893      6868.7708      18442.122      3055.2861      5717.5686      5320.2219      418.10566     -1372.3078      15715.866     -10412.619     -792.89817      101385.04      46.629199      46.629199      46.629199      1.2091029     -56.416049      1286.1376      503.63505    
      6500   6500           298.57969      839.20858      26534.086      25294.989      6843.875       18451.114      3014.2849      5822.434       5190.9744      449.9629      -1338.4551      15721.716     -10409.803     -794.0204       101241.75      46.607221      46.607221      46.607221      1.2108142      717.52767      1164.3681      635.73002    
      6600   6600           298.69435      668.11074      26324.846      25339.499      6846.5033      18492.996      3038.2934      5688.6633      5359.5248      433.66312     -1316.147       15702.195     -10413.197     -794.92585      101126.43      46.589519      46.589519      46.589519      1.2121949     -75.098843      1710.8156      368.61548    
      6700   6700           298.85893      355.64791      25906.927      25382.51       6850.2758      18532.234      3025.602       5732.2442      5422.5887      434.25462     -1375.2489      15705.827     -10413.033     -795.07989      101106.84      46.58651       46.58651       46.58651       1.2124298      403.73912      267.90213      395.30249    
      6800   6800           299.01967      319.34217      25882.57       25410.592      6853.9602      18556.632      3046.8216      5817.8243      5363.3081      440.8123      -1394.3498      15695.256     -10413.041     -793.23483      101342.01      46.622602      46.622602      46.622602      1.2096162     -1049.4037      980.57989      1026.8503    
      6900   6900           302.25272      1666.418       27997.82       25537.109      6928.0663      18609.043      3111.0431      5747.8696      5349.9632      445.74032     -1343.6641      15708.727     -10410.637     -793.94524      101251.33      46.608692      46.608692      46.608692      1.2106996      2406.4464      1035.3521      1557.4555    
      7000   7000           301.86564      569.48252      26479.786      25638.826      6919.1939      18719.632      3065.9926      5838.8478      5350.5833      466.16558     -1312.8407      15719.453     -10408.569     -793.91134      101255.66      46.609355      46.609355      46.609355      1.2106479      64.158382      254.73677      1389.5524    
      7100   7100           304.21341      1100.0414      27184.992      25561.911      6973.0082      18588.903      3005.0874      5773.6354      5373.5173      436.89171     -1308.2228      15721.16      -10413.166     -794.57718      101170.8       46.596332      46.596332      46.596332      1.2116632      2376.1208      204.61749      719.38604    
      7200   7200           301.24442     -43.545233      25425.425      25489.777      6904.9545      18584.823      2941.0469      5814.7303      5377.1538      436.26967     -1313.5623      15733.632     -10404.447     -793.31658      101331.57      46.621         46.621         46.621         1.2097409      803.4995      -496.63568     -437.49951    
      7300   7300           299.84133     -329.30029      24941.417      25428.816      6872.7938      18556.022      2977.3733      5798.5805      5364.2735      446.63794     -1339.1657      15715.042     -10406.72      -792.09127      101488.32      46.645028      46.645028      46.645028      1.2078724     -664.1789      -445.37377      121.6518     
      7400   7400           299.67267      307.97207      25817.362      25360.822      6868.9278      18491.894      2975.9393      5732.8932      5368.9234      451.1104      -1353.6344      15724.383     -10407.72      -790.86036      101646.28      46.669215      46.669215      46.669215      1.2059954      1275.8017     -616.4962       264.61073    
      7500   7500           299.68693     -279.45805      24949.386      25363.838      6869.2546      18494.584      3021.7123      5758.5832      5308.0656      431.07398     -1319.1213      15704.454     -10410.184     -790.51286      101690.96      46.676052      46.676052      46.676052      1.2054655      82.519869     -272.41459     -648.47943    
      7600   7600           302.62843      837.57281      26716.903      25476.768      6936.6781      18540.089      3043.8658      5750.6528      5305.2575      447.36981     -1312.456       15714.819     -10409.42      -791.80949      101524.44      46.65056       46.65056       46.65056       1.2074427      1983.8542      367.64013      161.22411    
      7700   7700           305.89352      568.43695      26411.863      25573.14       7011.5186      18561.621      2982.9554      5781.7254      5378.9517      434.25231     -1322.6833      15715.54      -10409.121     -794.56758      101172.03      46.59652       46.59652       46.59652       1.2116486      1387.1979     -45.017095      363.13004    
      7800   7800           302.51511     -154.41591      25278.428      25506.024      6934.0807      18571.943      3002.1889      5743.0158      5474.3102      441.99893     -1404.9169      15720.972     -10405.626     -795.41665      101064.03      46.579934      46.579934      46.579934      1.2129433      335.51596     -1121.2191      322.45545    
      7900   7900           298.56332      703.87652      26413.015      25374.968      6843.5         18531.468      3014.6018      5771.0864      5334.5601      456.24838     -1360.5299      15723.937     -10408.436     -794.96251      101121.77      46.588803      46.588803      46.588803      1.2122508      367.94813      45.783429      1697.898     
      8000   8000           302.32401     -58.07718       25261.278      25347.119      6929.7004      18417.419      3011.8278      5665.5052      5339.2572      446.41624     -1344.5506      15708.764     -10409.801     -793.18487      101348.39      46.623581      46.623581      46.623581      1.2095401      836.70087     -95.663354     -915.26906    
      8100   8100           299.39377      918.64893      26743.735      25383.786      6862.5351      18521.251      3020.1715      5754.436       5346.4023      448.93956     -1353.6724      15715.28      -10410.306     -791.94324      101507.29      46.647934      46.647934      46.647934      1.2076467      424.57096      1413.3731      918.00277    
      8200   8200           299.58814      1118.0503      27097.483      25440.931      6866.9903      18573.941      2962.6925      5788.0008      5375.0284      426.20557     -1272.807       15706.24      -10411.42      -791.26807      101593.9       46.661198      46.661198      46.661198      1.2066171      723.827        811.95809      1818.3657    
      8300   8300           301.77707     -493.46778      24857.541      25588.901      6917.1636      18671.737      3021.2003      5817.0614      5420.2329      446.81798     -1343.1773      15720.241     -10410.639     -791.03356      101624.02      46.665809      46.665809      46.665809      1.2062595     -288.26523     -398.92163     -793.21649    
      8400   8400           303.66822     -17.416471      25607.108      25632.867      6960.5116      18672.355      3021.2535      5809.1505      5444.4035      449.58988     -1356.0883      15716.592     -10412.546     -792.691        101411.54      46.633261      46.633261      46.633261      1.2087869     -184.75033      385.62929     -253.12837    
      8500   8500           299.83726      224.57566      25732.741      25401.218      6872.7006      18528.518      2960.7348      5865.119       5342.2853      438.78104     -1378.2891      15708.57      -10408.684     -794.17415      101222.15      46.604213      46.604213      46.604213      1.2110486     -402.73312      895.82182      180.63829    
      8600   8600           296.69534      1112.5599      26998.821      25360.131      6800.6831      18559.448      3085.0195      5773.5524      5319.5319      440.31931     -1370.0713      15722.28      -10411.183     -795.96502      100994.4       46.569235      46.569235      46.569235      1.2137795      436.55717      2194.368       706.75453    
      8700   8700           300.10288      1188.9693      27124.499      25373.712      6878.7889      18494.923      3088.2626      5786.5292      5248.3331      443.62343     -1368.5664      15707.391     -10410.651     -796.16735      100968.74      46.56529       46.56529       46.56529       1.2140881      161.0297       2576.4653      829.41273    
      8800   8800           295.66871      1545.3173      27703.618      25429.904      6777.1514      18652.753      3092.2921      5786.5321      5276.5258      450.82473     -1271.5163      15726.51      -10408.415     -796.79942      100888.64      46.552974      46.552974      46.552974      1.2150519      364.69715      2007.6297      2263.625     
      8900   8900           301.043       -951.7233       24111.292      25514.626      6900.3378      18614.288      2976.7141      5821.3852      5463.5082      434.75059     -1391.2729      15721.511     -10412.308     -795.09066      101105.47      46.5863        46.5863        46.5863        1.2124462     -1442.6083     -751.68291     -660.87866    
      9000   9000           301.83785      1377.5572      27525.317      25491.588      6918.5569      18573.031      3056.7433      5810.5241      5275.1066      433.90224     -1331.598       15734.26      -10405.907     -794.11568      101229.6       46.605357      46.605357      46.605357      1.2109595      1154.5526      1102.1559      1875.963     
      9100   9100           295.50659     -553.67585      24504.024      25322.757      6773.4352      18549.322      3057.9515      5754.658       5335.9888      440.05906     -1368.2342      15734.011     -10405.112     -792.83003      101393.75      46.630535      46.630535      46.630535      1.2089989     -801.79312      772.03465     -1631.2691    
      9200   9200           298.68546      1897.4668      28115.712      25311.128      6846.2996      18464.828      3028.5344      5740.084       5237.2341      429.01748     -1283.538       15722.068     -10408.572     -793.18217      101348.74      46.623634      46.623634      46.623634      1.2095359      1363.3334      2004.4229      2324.644     
      9300   9300           298.58359      222.13054      25706.642      25378.106      6843.9645      18534.141      3042.3815      5789.4482      5324.3424      441.50217     -1374.1573      15720.612     -10409.987     -792.66939      101414.3       46.633685      46.633685      46.633685      1.208754       211.2421       506.00777     -50.858234    
      9400   9400           303.61564     -459.89627      24753.471      25433.659      6959.3064      18474.352      2982.9325      5753.2362      5397.6516      423.3901      -1385.9594      15713.455     -10410.354     -792.6812       101412.79      46.633454      46.633454      46.633454      1.208772      -1246.5983      861.42599     -994.5165     
      9500   9500           303.23732      847.55139      26712.468      25459.347      6950.6347      18508.713      2932.5376      5760.3961      5407.1208      429.28972     -1316.0782      15709.733     -10414.286     -792.93972      101379.73      46.628385      46.628385      46.628385      1.2091662      1231.9392      727.53869      583.17631    
      9600   9600           305.0219       1130.846       27260.646      25587.464      6991.5398      18595.924      3040.6381      5719.8699      5394.7163      456.33583     -1323.1088      15716.018     -10408.545     -792.36891      101452.76      46.639579      46.639579      46.639579      1.2082958      1335.6835      1022.6088      1034.2458    
      9700   9700           306.66547      346.01925      26205.809      25693.195      7029.2127      18663.982      3032.9851      5853.5132      5365.3241      444.72859     -1330.4726      15708.568     -10410.664     -791.36522      101581.43      46.659288      46.659288      46.659288      1.2067652     -8.4290836     -621.92516      1668.412     
      9800   9800           305.09326      1387.8453      27612.822      25558.623      6993.1756      18565.447      3095.3138      5792.5076      5264.7176      445.74102     -1339.2815      15716.021     -10409.573     -792.07359      101490.59      46.645375      46.645375      46.645375      1.2078454      1245.1852      1411.9127      1506.4378    
      9900   9900           303.11245     -128.44201      25244.079      25433.835      6947.7726      18486.062      3016.8339      5729.4845      5348.4591      439.82629     -1356.6513      15716.09      -10407.98      -793.55732      101300.83      46.616285      46.616285      46.616285      1.210108       315.10305     -160.04105     -540.38803    
     10000   10000          298.56902      1203.3155      27139.068      25363.226      6843.6305      18519.595      3034.1192      5733.4011      5323.4202      437.16813     -1322.735       15723.672     -10409.451     -794.40549      101192.67      46.599689      46.599689      46.599689      1.2114014      838.80582      1190.6996      1580.4411    
     10100   10100          296.01459     -133.91565      25106.006      25303.549      6785.0793      18518.47       3046.35        5737.6871      5314.949       437.62389     -1320.7107      15710.941     -10408.371     -794.76119      101147.38      46.592736      46.592736      46.592736      1.2119438     -237.96071     -15.559282     -148.22696    
     10200   10200          299.45181      627.68769      26285.97       25359.662      6863.8653      18495.797      3044.9277      5740.9843      5296.5531      432.86534     -1329.8657      15720.564     -10410.232     -794.42996      101189.55      46.599211      46.599211      46.599211      1.2114387      713.04357      43.799116      1126.2204    
     10300   10300          301.7941       478.46659      26226.708      25519.276      6917.5541      18601.722      3078.9317      5801.1171      5312.0664      439.96202     -1331.6828      15713.778     -10412.451     -792.92909      101381.09      46.628593      46.628593      46.628593      1.20915        1437.9301      58.365223     -60.895519    
     10400   10400          304.1411       1634.5034      27916.089      25501.253      6971.3508      18529.902      3065.7222      5795.1358      5165.3474      449.3205      -1255.8807      15720.458     -10410.201     -793.5335       101303.87      46.616752      46.616752      46.616752      1.2100717      2338.7711      1196.7379      1368.0013    
     10500   10500          298.30841      679.28185      26408.455      25406.611      6837.6569      18568.954      3087.8613      5727.3641      5376.8146      446.95073     -1380.1869      15722.853     -10412.703     -794.90816      101128.68      46.589864      46.589864      46.589864      1.2121679      1709.7742      81.473276      246.59804    
     10600   10600          299.17841      751.15736      26452.749      25346.843      6857.5986      18489.244      3066.0555      5693.9226      5322.6815      459.87988     -1373.0152      15729.971     -10410.251     -796.30541      100951.23      46.562598      46.562598      46.562598      1.2142986      1916.4563     -450.66378      787.67958    
     10700   10700          298.26188      706.28834      26407.88       25367.904      6836.5905      18531.313      3009.513       5727.9992      5368.3972      430.05654     -1316.2123      15717.103     -10405.544     -796.20665      100963.76      46.564524      46.564524      46.564524      1.214148       186.95459      1232.9906      698.91986    
     10800   10800          297.42793     -243.07186      25054.831      25413.723      6817.4752      18596.248      3036.122       5746.8482      5429.1991      447.60734     -1377.1544      15725.805     -10412.179     -794.03301      101240.14      46.606975      46.606975      46.606975      1.2108334     -79.645805     -567.10369     -82.46609     
     10900   10900          296.2624       795.83866      26591.084      25412.858      6790.7595      18622.098      3044.7163      5849.6923      5319.3099      433.61732     -1334.1817      15719.46      -10410.516     -791.8871       101514.49      46.649036      46.649036      46.649036      1.2075611      524.20068      1260.8462      602.46909    
     11000   11000          298.41658     -1028.2666      23903.37       25427.91       6840.1366      18587.774      2979.5199      5827.793       5393.851       446.58393     -1377.2808      15724.726     -10407.419     -790.74055      101661.68      46.671572      46.671572      46.671572      1.2058127     -501.97212     -1810.7446     -772.08309    
     11100   11100          302.30275      799.57019      26636.183      25452.423      6929.2131      18523.21       3023.4469      5785.0147      5292.6849      432.59367     -1329.8214      15728.756     -10409.464     -791.88144      101515.21      46.649147      46.649147      46.649147      1.2075524      1034.8711     -143.82096      1507.6604    
     11200   11200          302.35911      745.64873      26546.624      25445.512      6930.5048      18515.007      2974.1278      5733.1475      5338.9505      459.94011     -1297.1391      15715.556     -10409.575     -793.90798      101256.08      46.609421      46.609421      46.609421      1.2106427      617.852       -181.9847       1801.0789    
     11300   11300          302.92016      1028.008       26917.314      25401.462      6943.365       18458.097      2953.1494      5720.0592      5358.3709      446.61101     -1324.4667      15714.167     -10409.794     -795.07267      101107.76      46.586651      46.586651      46.586651      1.2124188      957.41688      976.71653      1149.8906    
     11400   11400          297.99348      1081.7113      26912.783      25318.192      6830.4383      18487.753      3018.42        5730.1161      5365.7761      437.27373     -1380.6432      15723.368     -10406.558     -795.2964       101079.31      46.582282      46.582282      46.582282      1.21276        827.28535      1321.3837      1096.465     
     11500   11500          301.1737       774.5129       26468.93       25327.042      6903.3336      18423.709      2996.6863      5686.6053      5347.0876      442.60612     -1363.3054      15722.447     -10408.419     -795.19264      101092.5       46.584308      46.584308      46.584308      1.2126017      501.35271      472.77049      1349.4155    
     11600   11600          301.54228      252.29249      25821.495      25449.438      6911.782       18537.656      2962.2539      5755.8234      5417.0721      438.51406     -1328.5875      15705.19      -10412.61      -794.98942      101118.34      46.588277      46.588277      46.588277      1.2122918     -485.40012      182.68666      1059.5909    
     11700   11700          302.55427     -9.9181061      25532.928      25547.57       6934.9783      18612.592      2962.9401      5759.5628      5481.7356      423.42265     -1323.7574      15715.992     -10407.304     -794.13615      101226.99      46.604957      46.604957      46.604957      1.2109907      72.588141     -214.66998      112.32752    
     11800   11800          305.3801       338.08039      26023.755      25524.438      6999.7504      18524.688      2980.3153      5734.7647      5366.5773      443.75129     -1311.0232      15718.655     -10408.353     -793.8001       101269.85      46.611533      46.611533      46.611533      1.2104782      362.35623      986.79402     -334.90908    
     11900   11900          303.07768     -618.28296      24496.819      25410.191      6946.9755      18463.215      2963.1061      5719.5198      5380.3101      434.71838     -1353.1145      15726.623     -10407.948     -793.60993      101294.11      46.615255      46.615255      46.615255      1.2101882     -727.92457     -392.42395     -734.50036    
     12000   12000          297.41794      1421.544       27476.706      25377.118      6817.2461      18559.872      3070.6577      5740.277       5320.567       453.20206     -1332.9292      15717.717     -10409.62      -793.76745      101274.01      46.612172      46.612172      46.612172      1.2104284      541.31931      2579.6958      1143.6168    
     12100   12100          301.14357     -824.60158      24150.989      25369.548      6902.6429      18466.905      2936.4597      5754.1211      5444.1584      438.25358     -1410.0665      15714.985     -10411.006     -793.34963      101327.35      46.620353      46.620353      46.620353      1.2097913     -735.94644     -37.668376     -1700.1899    
     12200   12200          299.68822     -40.938971      25339.614      25400.071      6869.2841      18530.787      2961.5818      5738.9758      5455.5066      443.16436     -1382.7374      15724.602     -10410.307     -793.88993      101258.39      46.609774      46.609774      46.609774      1.2106152      730.70384      357.04918     -1210.5699    
     12300   12300          301.91708     -28.489503      25452.83       25494.848      6920.3729      18574.475      2947.2411      5745.1112      5438.4766      441.1557      -1302.8434      15715.254     -10409.92      -794.90598      101128.96      46.589907      46.589907      46.589907      1.2121646      1403.773      -1320.1898     -169.05169    
     12400   12400          301.88131      224.2581       25934.711      25603.955      6919.553       18684.402      3028.5981      5885.4017      5445.9201      457.23007     -1429.7599      15706.76      -10409.747     -794.89227      101130.7       46.590175      46.590175      46.590175      1.2121437      608.74232      53.931039      10.100939    
     12500   12500          303.9789       2261.4817      28895.928      25561.209      6967.6328      18593.576      3037.0655      5755.2967      5319.1274      458.6788      -1286.9787      15719.632     -10409.246     -795.06195      101109.12      46.58686       46.58686       46.58686       1.2124024      2214.244       1803.8422      2766.359     
     12600   12600          300.27171     -430.66995      24742          25379.322      6882.6586      18496.663      3003.7931      5723.893       5441.8741      439.23019     -1402.7836      15702.118     -10411.462     -792.23298      101470.17      46.642246      46.642246      46.642246      1.2080885     -261.6189      -331.34655     -699.04441    
     12700   12700          297.83155      679.28242      26356.868      25349.877      6826.7267      18523.15       2985.2314      5740.3061      5319.4604      447.5116      -1266.0523      15708.967     -10412.274     -790.84609      101648.11      46.669496      46.669496      46.669496      1.2059736      209.55214      1002.283       826.01218    
     12800   12800          298.84724     -830.72767      24173.707      25407.114      6850.0078      18557.106      2964.5142      5809.4202      5419.1662      421.46313     -1369.3228      15720.354     -10408.49      -789.62295      101805.57      46.69358       46.69358       46.69358       1.2041084     -670.27277     -408.32837     -1413.5819    
     12900   12900          304.4314       443.47178      26169.622      25513.348      6978.0047      18535.343      2941.319       5731.1217      5409.5284      452.14531     -1327.0786      15735.405     -10407.098     -792.2232       101471.42      46.642438      46.642438      46.642438      1.2080736     -1432.3195      2303.6797      459.0551     
     13000   13000          305.62589      2076.0152      28610.26       25546.681      7005.3842      18541.297      3010.3799      5702.6913      5359.3923      438.68451     -1285.701       15723.058     -10407.209     -794.45355      101186.55      46.598749      46.598749      46.598749      1.2114747      1288.154       3043.5514      1896.3401    
     13100   13100          299.31106     -156.1995       25132.024      25362.432      6860.6393      18501.793      2933.9331      5720.5295      5432.247       442.39589     -1335.8443      15719.029     -10410.497     -794.78552      101144.28      46.592261      46.592261      46.592261      1.2119809     -837.92166      184.53276      184.79042    
     13200   13200          297.46775     -448.20673      24642.747      25304.141      6818.388       18485.753      2980.9155      5768.4644      5369.0765      433.43397     -1370.9847      15717.865     -10413.017     -794.4838       101182.7       46.598158      46.598158      46.598158      1.2115208      668.86492     -637.9764      -1375.5087    
     13300   13300          302.1624      -394.35422      24759.172      25341.275      6925.9961      18415.279      3014.1478      5774.5547      5330.3744      411.92842     -1423.7651      15721.298     -10413.259     -794.24307      101213.36      46.602865      46.602865      46.602865      1.2111537     -678.02225      317.05144     -822.09185    
     13400   13400          301.10146      538.35332      26241.399      25448.152      6901.6778      18546.474      2961.9892      5852.9783      5314.4392      459.08696     -1350.6762      15722.258     -10413.602     -795.6576       101033.43      46.575232      46.575232      46.575232      1.2133108      1661.3714     -177.43659      131.12513    
     13500   13500          305.76303      769.8436       26682.744      25548.613      7008.5276      18540.086      3055.3376      5780.155       5319.9103      440.02694     -1349.0139      15708.62      -10414.95      -795.8052       101014.69      46.572352      46.572352      46.572352      1.2135358      1750.3053      968.74213     -409.51657    
     13600   13600          303.70438      707.58918      26549.665      25506.6        6961.3405      18545.26       3024.8541      5771.8565      5366.4255      456.40827     -1375.1531      15711.79      -10410.922     -795.31099      101077.46      46.581997      46.581997      46.581997      1.2127822      1439.7748     -487.51956      1170.5123    
     13700   13700          299.32257      1205.7323      27217.702      25439.807      6860.9031      18578.904      2984.9774      5804.9154      5330.2129      456.29001     -1296.4827      15711.952     -10412.961     -795.08214      101106.55      46.586466      46.586466      46.586466      1.2124332      913.69865     -87.631248      2791.1294    
     13800   13800          301.90639      226.25996      25749.296      25415.126      6920.1278      18494.999      2978.9584      5724.9972      5399.3635      431.43513     -1343.7988      15712.597     -10408.554     -793.79491      101270.51      46.611634      46.611634      46.611634      1.2104703      673.71275     -739.09435      744.16149    
     13900   13900          296.3801       231.4605       25725.31       25382.528      6793.4575      18589.07       3076.6639      5779.0615      5344.7637      443.53688     -1357.0978      15706.979     -10404.837     -791.63762      101546.48      46.653936      46.653936      46.653936      1.2071806     -770.66123      731.72073      733.32201    
     14000   14000          297.48615     -49.565697      25299.7        25373.213      6818.8097      18554.403      3021.2631      5711.8185      5384.466       444.92661     -1300.0829      15704.992     -10412.98      -790.46917      101696.58      46.676912      46.676912      46.676912      1.2053988      72.969047     -158.92416     -62.741977    
     14100   14100          298.68359     -139.22301      25251.17       25457.891      6846.2567      18611.634      3022.1401      5669.597       5539.675       463.97784     -1379.8521      15711.721     -10415.624     -789.57496      101811.76      46.694527      46.694527      46.694527      1.2040352      34.119521     -423.70108     -28.087469    
     14200   14200          303.19283      1192.1383      27321.77       25555.26       6949.615       18605.645      3022.9182      5733.2544      5411.7983      449.62258     -1319.8419      15719.397     -10411.504     -791.18413      101604.68      46.662848      46.662848      46.662848      1.2064891      1076.3188      1983.5614      516.53472    
     14300   14300          305.44447      656.25839      26472.306      25500.696      7001.2258      18499.47       3004.7659      5657.0831      5433.1532      450.16446     -1350.4587      15718.487     -10413.725     -791.8626       101517.63      46.649517      46.649517      46.649517      1.2075237      187.30134      1419.4833      361.99049    
     14400   14400          295.04332      133.65074      25555.869      25358.202      6762.8166      18595.385      2998.1161      5747.1793      5428.1939      463.46159     -1361.4135      15730.408     -10410.56      -792.69001      101411.66      46.633281      46.633281      46.633281      1.2087854      330.16673     -61.381345      132.16684    
     14500   14500          296.84255      679.091        26359.579      25354.932      6804.0575      18550.874      3024.5052      5771.3434      5360.8657      457.05643     -1370.6879      15717.289     -10409.497     -792.4682       101440.05      46.637631      46.637631      46.637631      1.2084472     -79.230652      1055.8504      1060.6532    
     14600   14600          301.41753      282.18066      25814.955      25398.045      6908.9225      18489.122      2926.6008      5688.2113      5444.3932      450.60314     -1335.0949      15725.959     -10411.55      -793.50865      101307.04      46.617238      46.617238      46.617238      1.2100338      830.05112      732.52147     -716.03061    
     14700   14700          303.09369      704.51611      26569.535      25529.264      6947.3426      18581.921      3076.7916      5803.2998      5337.8618      418.85697     -1363.8059      15721.087     -10412.17      -793.98341      101246.46      46.607945      46.607945      46.607945      1.2107578      633.50251      651.74563      828.30019    
     14800   14800          305.46186      941.01986      26966.259      25578.147      7001.6245      18576.522      3096.3992      5722.4457      5376.8819      448.82835     -1357.1447      15700.167     -10411.055     -794.76998      101146.26      46.592564      46.592564      46.592564      1.2119572      1106.3444      937.36429      779.35088    
     14900   14900          301.22073      321.36156      25986.086      25512.271      6904.4115      18607.859      3034.4723      5806.209       5382.3646      444.74688     -1371.3711      15721.67      -10410.232     -795.15521      101097.26      46.585039      46.585039      46.585039      1.2125446      1016.5363     -1258.5994      1206.1478    
     15000   15000          305.95214      700.54793      26472.239      25440.201      7012.8622      18427.339      3024.4818      5752.3567      5290.3403      440.56165     -1379.9058      15709.764     -10410.26      -795.81         101014.08      46.572259      46.572259      46.572259      1.2135432      867.65002      342.73573      891.25805    
     15100   15100          300.36968      1233.2541      27169.325      25354.367      6884.9044      18469.463      2978.4789      5757.7374      5344.3602      430.52382     -1356.6356      15725.936     -10410.938     -796.62384      100910.88      46.556394      46.556394      46.556394      1.2147842      752.17457      1198.3673      1749.2206    
     15200   15200          295.58509     -665.42637      24354.476      25332.845      6775.2345      18557.611      2985.1782      5783.6415      5425.5966      427.48856     -1358.4446      15707.089     -10412.939     -797.37818      100815.42      46.541708      46.541708      46.541708      1.2159345     -2303.4455     -96.506338      403.67278    
     15300   15300          300.72828      456.92355      26047.557      25375.721      6893.1239      18482.597      3030.0602      5757.1415      5349.2291      411.15088     -1350.0883      15698.178     -10413.074     -797.34776      100819.26      46.5423        46.5423        46.5423        1.2158881      712.30906      15.396819      643.06478    
     15400   15400          302.94961      1245.8724      27393.25       25557.554      6944.04        18613.514      3048.6318      5790.8498      5337.509       442.76232     -1322.4459      15727.431     -10411.224     -795.68289      101030.21      46.574739      46.574739      46.574739      1.2133493      1032.72        2378.0939      326.80348    
     15500   15500          303.03714      351.02372      26082.426      25562.814      6946.0464      18616.768      3114.0194      5822.2637      5328.3464      437.51361     -1388.5696      15716.719     -10413.524     -791.99837      101500.23      46.646852      46.646852      46.646852      1.2077307      68.166664      95.245707      889.65879    
     15600   15600          301.83691      1027.8314      26967.616      25443.742      6918.5354      18525.207      3070.7976      5895.3171      5154.9387      428.57913     -1332.9762      15718.641     -10410.09      -790.75158      101660.26      46.671355      46.671355      46.671355      1.2058295      900.69036      1250.3566      932.44712    
     15700   15700          300.70773     -908.36399      24041.372      25388.643      6892.6529      18495.99       3046.5864      5753.8451      5325.3249      404.93733     -1353.6212      15726.676     -10407.759     -790.44605      101699.56      46.677367      46.677367      46.677367      1.2053636     -982.77108     -1268.1444     -474.17649    
     15800   15800          299.65359      1449.0537      27536.875      25396.314      6868.4905      18527.824      3030.4318      5829.9525      5235.8292      432.94773     -1301.1363      15713.735     -10413.936     -793.64106      101290.14      46.614646      46.614646      46.614646      1.2102357      750.52202      1306.3697      2290.2695    
     15900   15900          298.54506      162.70226      25662.277      25422.389      6843.0813      18579.308      3042.5583      5839.7604      5305.9754      436.59225     -1345.4419      15710.425     -10410.562     -795.15638      101097.11      46.585016      46.585016      46.585016      1.2125464      534.71346     -1006.0511      959.4444     
     16000   16000          297.94945      1085.8781      27028.93       25430.417      6829.429       18600.988      3088.0328      5776.4904      5354.3155      428.00255     -1372.8498      15734.936     -10407.94      -796.40163      100939.04      46.560723      46.560723      46.560723      1.2144453      653.98151      437.94657      2165.7061    
     16100   16100          298.68012      793.50831      26577.079      25408.083      6846.1772      18561.906      3061.1284      5691.0229      5380.8881      429.27029     -1315.6853      15724.564     -10409.282     -795.80333      101014.92      46.572389      46.572389      46.572389      1.213533       1823.6947      298.93144      257.89874    
     16200   16200          300.174        899.48018      26694.032      25366.318      6880.4191      18485.899      3036.758       5801.8105      5297.1963      428.0135      -1383.6366      15714.955     -10409.198     -794.24443      101213.19      46.602839      46.602839      46.602839      1.2111558      1386.709      -331.30496      1643.0365    
     16300   16300          298.42366      105.79789      25522.396      25365.917      6840.2988      18525.618      3105.1501      5773.9631      5285.6099      429.59933     -1381.0919      15721.811     -10409.423     -792.66104      101415.37      46.633849      46.633849      46.633849      1.2087413     -534.54647      107.04128      744.89886    
     16400   16400          299.57289      722.66551      26510.415      25441          6866.6407      18574.359      3050.2066      5772.2969      5377.6557      448.81787     -1381.0187      15716.577     -10410.176     -792.24256      101468.94      46.642058      46.642058      46.642058      1.2081031      664.48933     -71.725257      1575.2325    
     16500   16500          301.17375     -937.57509      24166.83       25553.246      6903.3347      18649.912      2963.5793      5869.7049      5465.8614      445.10997     -1417.9743      15730.668     -10407.038     -792.82895      101393.89      46.630556      46.630556      46.630556      1.2089973     -1353.2066     -169.66308     -1289.8556    
     16600   16600          303.51038      529.18601      26319.934      25539.98       6956.8937      18583.086      2980.5303      5840.1606      5409.6373      414.23946     -1349.2898      15704.669     -10416.861     -795.43793      101061.33      46.579519      46.579519      46.579519      1.2129758     -21.34748       2532.1387     -923.23314    
     16700   16700          301.47358      746.33795      26451.771      25355.124      6910.2072      18444.917      3031.9022      5730.6034      5265.5965      426.8151      -1308.7247      15710.945     -10412.221     -797.8771       100752.38      46.532005      46.532005      46.532005      1.2166953     -918.55751      1264.5438      1893.0276    
     16800   16800          299.11492      341.43823      25814.563      25312.451      6856.1434      18456.307      2989.796       5704.0105      5371.2742      438.84178     -1348.4429      15712.963     -10412.135     -797.22115      100835.27      46.544763      46.544763      46.544763      1.215695      -616.75646      1460.1243      180.94685    
     16900   16900          297.14919      2594.8357      29197.329      25371.888      6811.0859      18560.802      3162.2396      5745.9722      5230.6949      437.35222     -1320.8504      15717.687     -10412.293     -795.23513      101087.1       46.583478      46.583478      46.583478      1.2126665      3271.0263      2679.1947      1834.2863    
     17000   17000          303.77563     -279.03208      25066.751      25479.339      6962.9736      18516.365      3011.4824      5737.0547      5435.2818      426.97951     -1406.2098      15721.098     -10409.322     -792.87481      101388.03      46.629657      46.629657      46.629657      1.2090672      21.322759     -909.68667      51.267662    
     17100   17100          300.95959      102.51921      25654.196      25502.419      6898.4258      18603.993      3050.4021      5764.2829      5383.7641      452.04889     -1349.2717      15716.1       -10413.333     -791.88931      101514.2       46.648993      46.648993      46.648993      1.2075644     -224.55235      790.81587     -258.70589    
     17200   17200          302.22822      352.12965      25961.048      25439.359      6927.5047      18511.854      2997.4169      5824.9263      5293.0657      430.40275     -1323.5908      15699.229     -10409.596     -791.33015      101585.94      46.659978      46.659978      46.659978      1.2067118     -281.90648      471.08919      867.20625    
     17300   17300          296.06177      1523.2541      27633.065      25379.061      6786.1608      18592.9        3079.569       5794.0254      5221.6949      440.17747     -1245.9816      15717.259     -10413.843     -792.29144      101462.68      46.641099      46.641099      46.641099      1.2081777      1142.7529      1159.3551      2267.6542    
     17400   17400          298.30454     -155.87772      25159.814      25390.805      6837.5683      18553.237      3025.7919      5780.9543      5351.7449      433.58242     -1335.0687      15709.691     -10413.459     -791.14659      101609.5       46.663586      46.663586      46.663586      1.2064319      1176.8028     -42.636482     -1601.7995    
     17500   17500          299.3688       942.73798      26813.561      25415.097      6861.9627      18553.135      3107.3132      5788.4176      5256.8464      440.72262     -1355.9275      15724.003     -10408.241     -790.32763      101714.8       46.679699      46.679699      46.679699      1.205183       1289.6458      763.6631       774.90504    
     17600   17600          297.07432     -263.02493      25044.236      25434.068      6809.37        18624.698      3025.5245      5786.4192      5359.9744      431.34478     -1286.4276      15717.219     -10409.356     -791.01895      101625.9       46.666096      46.666096      46.666096      1.2062372     -715.86402      288.09333     -361.30409    
     17700   17700          301.77002      312.23279      25962.947      25500.794      6917.0021      18583.792      2990.5243      5671.2097      5441.999       456.97394     -1282.7987      15719.45      -10413.566     -792.06317      101491.92      46.645579      46.645579      46.645579      1.2078295     -965.27363      953.32115      948.65086    
     17800   17800          304.54413      388.74138      26125.56       25550.914      6980.5887      18570.325      3082.7588      5766.5789      5270.6329      432.73292     -1291.9561      15721.723     -10412.145     -793.09972      101359.28      46.625249      46.625249      46.625249      1.2094102     -215.54524      1015.3084      366.46098    
     17900   17900          302.19056      246.85005      25778.499      25414.105      6926.6415      18487.463      3073.9439      5712.0163      5276.3062      428.67731     -1310.0384      15717.56      -10411.003     -794.19755      101219.17      46.603756      46.603756      46.603756      1.2110843      1249.1734     -262.78901     -245.83421    
     18000   18000          298.31821      1526.8679      27568.896      25318.26       6837.8816      18480.378      3048.1971      5758.8565      5250.6908      441.20503     -1317.694       15711.467     -10412.344     -795.35938      101071.31      46.581052      46.581052      46.581052      1.212856       1468.0697      871.7636       2240.7705    
     18100   18100          300.42563      850.49034      26600.948      25348.47       6886.1868      18462.283      3027.9076      5753.8664      5295.8832      414.09998     -1330.1089      15712.464     -10411.829     -796.09771      100977.57      46.566648      46.566648      46.566648      1.2139819      1009.0667      1131.4782      410.92615    
     18200   18200          300.43711      31.616883      25489.244      25442.682      6886.4498      18556.232      3015.095       5734.0851      5395.0665      442.66378     -1348.3592      15728.681     -10411.001     -796.0733       100980.67      46.567124      46.567124      46.567124      1.2139447      164.4897      -630.26584      560.62678    
     18300   18300          302.03324      1339.1802      27509.051      25533.241      6923.0355      18610.206      3091.8725      5761.7342      5339.3473      434.57437     -1321.8695      15716.757     -10412.21      -794.62277      101165         46.595441      46.595441      46.595441      1.2117327      537.76223      1372.273       2107.5054    
     18400   18400          302.33677     -332.34857      25079.974      25571.408      6929.9929      18641.416      3003.3844      5855.6564      5386.4733      435.57172     -1348.358       15720.648     -10411.96      -792.85806      101390.17      46.629986      46.629986      46.629986      1.2090417     -154.39175     -1078.1896      235.53561    
     18500   18500          297.62136      1403.3049      27580.742      25504.335      6821.9088      18682.426      3170.9996      5808.6269      5238.7288      453.75805     -1296.0761      15718.409     -10412.02      -792.33079      101457.64      46.640327      46.640327      46.640327      1.2082377      250.93611      1843.6644      2115.3142    
     18600   18600          297.41078      807.7265       26567.92       25371.209      6817.082       18554.127      3046.7267      5790.0148      5332.2461      436.77313     -1356.7959      15714.921     -10409.759     -791.30152      101589.61      46.66054       46.66054       46.66054       1.2066681      1532.906       626.69978      263.57371    
     18700   18700          299.36559     -159.41547      25118.062      25354.084      6861.8892      18492.195      2949.2809      5734.9125      5362.1202      453.65967     -1321.4711      15726.504     -10412.811     -791.85519      101518.58      46.649663      46.649663      46.649663      1.2075124     -917.32372     -122.73777      561.81508    
     18800   18800          300.73074     -184.30296      25130.314      25402.837      6893.1803      18509.657      2958.9425      5791.1606      5395.4142      443.38537     -1391.4609      15720.495     -10408.28      -792.85973      101389.96      46.629953      46.629953      46.629953      1.2090442     -1152.0112      933.11084     -334.00855    
     18900   18900          301.037        492.92969      26243.181      25516.409      6900.2003      18616.208      3015.594       5822.6556      5392.722       432.14924     -1358.4883      15720.624     -10409.049     -795.15871      101096.82      46.584971      46.584971      46.584971      1.21255        879.83992      748.10346     -149.15433    
     19000   19000          305.0944       364.28366      26131.634      25594.9        6993.2016      18601.699      3079.06        5793.7472      5320.0237      427.09881     -1328.6772      15720.998     -10410.552     -795.69698      101028.43      46.574464      46.574464      46.574464      1.2133708      114.08451      1520.1814     -541.41499    
     19100   19100          296.11586      1671.484       27934.713      25470.917      6787.4006      18683.517      3104.3087      5826.0701      5338.6461      441.89431     -1334.477       15721.336     -10414.262     -795.36182      101071         46.581005      46.581005      46.581005      1.2128597      1837.9749      1141.7753      2034.7016    
     19200   19200          299.08414      873.16794      26630.278      25343.659      6855.4379      18488.221      3097.0714      5715.6991      5298.862       428.81414     -1358.5984      15718.755     -10412.382     -795.63735      101036         46.575627      46.575627      46.575627      1.2132799      1900.6114      706.26389      12.628541    
     19300   19300          298.29245     -1535.2106      23124.064      25383.635      6837.2913      18546.344      3002.8442      5664.8733      5560.2262      445.19339     -1421.9626      15709.421     -10414.251     -796.5427       100921.16      46.557974      46.557974      46.557974      1.2146605     -1588.2915     -2024.3        -993.04024    
     19400   19400          300.54114      1077.2118      27034.133      25450.327      6888.8343      18561.493      3058.2182      5728.0843      5391.9003      427.60322     -1334.4757      15705.413     -10415.25      -797.38162      100814.98      46.541641      46.541641      46.541641      1.2159397      966.69691      464.53481      1800.4037    
     19500   19500          302.30934     -570.24294      24661.043      25500.439      6929.3642      18571.075      3018.5203      5808.8902      5392.5867      439.28625     -1422.4571      15741.327     -10407.078     -796.45245      100932.6       46.559733      46.559733      46.559733      1.2145228     -930.13877     -719.6742      -60.915847    
     19600   19600          300.61757      212.95863      25794.179      25480.565      6890.5863      18589.979      3078.9279      5726.9408      5437.5372      435.54401     -1404.6077      15725.457     -10409.82      -796.10053      100977.21      46.566593      46.566593      46.566593      1.2139862      565.22179      54.399774      19.254324    
     19700   19700          299.15973      1830.1374      28047.275      25351.356      6857.1705      18494.186      3098.0097      5823.7204      5201.3094      434.35712     -1387.041       15730.509     -10406.679     -795.87359      101006.01      46.571018      46.571018      46.571018      1.2136401      3200.3801      479.86172      1810.1702    
     19800   19800          298.12532      162.85258      25543.194      25303.382      6833.4603      18469.922      3065.0529      5754.1198      5326.8937      442.1386      -1423.9647      15717.862     -10412.181     -796.1447       100971.61      46.565731      46.565731      46.565731      1.2140535      78.124592     -527.75554      938.1887     
     19900   19900          301.68226      392.35725      25949.908      25372.67       6914.9906      18457.68       3018.5764      5785.277       5306.734       432.44831     -1384.5651      15714.179     -10414.97      -796.88291      100878.07      46.551348      46.551348      46.551348      1.2151793      1125.0244     -888.26218      940.30956    
     20000   20000          302.37599      1226.6501      27328.239      25524.218      6930.8917      18593.326      3000.7746      5831.0471      5328.9361      445.39761     -1315.374       15712.42      -10409.876     -797.16131      100842.84      46.545928      46.545928      46.545928      1.2156038      1547.823       437.98829      1694.1391    
     20100   20100          303.01251     -176.23178      25314.279      25574.322      6945.4817      18628.84       3003.5598      5844.594       5409.0537      440.97682     -1398.2897      15742.604     -10413.658     -794.5208       101177.98      46.597435      46.597435      46.597435      1.2115772     -1057.6011     -115.42627      644.33204    
     20200   20200          300.87913      138.54052      25723.652      25518.553      6896.5816      18621.972      3067.2155      5818.5335      5343.3124      434.26637     -1354.9058      15725.673     -10412.124     -791.91831      101510.49      46.648423      46.648423      46.648423      1.2076087      1007.8287     -1255.9664      663.75925    
     20300   20300          303.13582      360.62992      25988.254      25453.726      6948.3082      18505.417      3096.3166      5786.8797      5282.7529      437.71803     -1396.0953      15710.032     -10412.187     -790.96669      101632.62      46.667124      46.667124      46.667124      1.2061575      331.15372     -515.29666      1266.0327    
     20400   20400          297.78499      426.40516      26010.445      25379.954      6825.6594      18554.295      3030.4507      5743.3659      5345.4837      438.2843      -1300.3752      15712.513     -10415.428     -792.88682      101386.49      46.629422      46.629422      46.629422      1.2090856      668.16998      230.97691      380.06859    
     20500   20500          300.95448      572.8562       26161.504      25317.066      6898.3088      18418.757      3044.2999      5743.0493      5318.6436      421.48449     -1410.3644      15716.218     -10414.574     -795.32532      101075.64      46.581717      46.581717      46.581717      1.2128041      703.88868      628.08255      386.59738    
     20600   20600          295.48946      719.95057      26203.394      25145.832      6773.0427      18372.789      2973.3262      5717.6267      5343.9335      425.76769     -1390.583       15719.791     -10417.073     -798.11172      100722.76      46.527445      46.527445      46.527445      1.2170531      659.89776      1111.5675      388.3864     
     20700   20700          294.57976      185.59281      25436.254      25164.163      6752.191       18411.972      2968.4978      5701.9674      5379.0136      432.63963     -1365.0448      15708.936     -10414.038     -799.67514      100525.84      46.497103      46.497103      46.497103      1.2194372      104.54542      294.93421      157.29881    
     20800   20800          298.86406      1148.73        26988.638      25305.351      6850.3932      18454.958      3048.7576      5762.4599      5304.2578      424.45747     -1387.9827      15714.702     -10411.694     -800.06816      100476.46      46.489489      46.489489      46.489489      1.2200365      1953.2977      934.77122      558.12101    
     20900   20900          301.87079      2245.9605      28683.888      25389.142      6919.3119      18469.83       3059.7669      5769.2298      5290.2887      432.4983      -1393.1667      15723.373     -10412.16      -799.18485      100587.51      46.50661       46.50661       46.50661       1.2186895      1826.2818      3426.6739      1484.9257    
     21000   21000          298.44975     -619.92044      24542.256      25455.401      6840.8968      18614.505      3091.8355      5813.6662      5367.5739      428.20089     -1401.0567      15723.876     -10409.591     -795.90882      101001.54      46.570331      46.570331      46.570331      1.2136939     -197.30983     -159.04582     -1503.4057    
     21100   21100          302.33354      1051.7056      27060.771      25505.088      6929.9189      18575.169      3016.9826      5797.9616      5383.5942      446.06816     -1369.3463      15711.253     -10411.344     -792.5747       101426.42      46.635542      46.635542      46.635542      1.2086096      890.00459      1978.6107      286.50142    
     21200   21200          300.2058      -528.09752      24686.752      25470.213      6881.148       18589.065      2960.2754      5738.2762      5413.7606      437.78116     -1275.1251      15724.888     -10410.792     -790.24903      101724.91      46.681246      46.681246      46.681246      1.2050631     -688.40439     -1088.1364      192.24824    
[...]
    495200   495200         302.29         1161.0073      27174.416      25455.779      6928.9207      18526.859      3052.5215      5745.467       5342.0756      446.45056     -1354.908       15709.678     -10414.426     -791.9872       101501.66      46.647071      46.647071      46.647071      1.2077137      995.3616       1639.8809      847.77945    
    495300   495300         297.49929      445.35556      26040.54       25380.438      6819.1109      18561.327      2954.3595      5730.9163      5401.1866      427.97719     -1243.3014      15708.281     -10418.092     -790.97544      101631.49      46.666951      46.666951      46.666951      1.2061709     -979.60292      2238.5712      77.09842     
    495400   495400         295.81804     -210.00819      25077.731      25389.281      6780.5743      18608.707      3032.595       5770.4887      5438.8998      450.05152     -1378.0107      15710.558     -10415.876     -790.26967      101722.25      46.68084       46.68084       46.68084       1.2050946     -760.22222      1293.972      -1163.7744    
    495500   495500         295.64766      906.42061      26743.632      25403.142      6776.6688      18626.473      3069.789       5800.4635      5322.7985      424.6871      -1293.6173      15712.059     -10409.707     -792.74456      101404.69      46.632211      46.632211      46.632211      1.2088686      949.9472       149.15991      1620.1547    
    495600   495600         297.09862     -170.74352      25176.72       25428.276      6809.9268      18618.349      3063.3781      5773.0774      5413.5912      437.15963     -1377.3845      15719.611     -10411.084     -795.75032      101021.65      46.573423      46.573423      46.573423      1.2134521      761.10646     -1305.7163      32.37931     
    495700   495700         301.94648      512.02556      26232.3        25480.431      6921.0468      18559.384      2961.6366      5793.9803      5364.6013      426.15591     -1306.0946      15726.488     -10407.383     -798.39276      100687.3       46.521985      46.521985      46.521985      1.2174816      152.30641      1400.2215     -16.451286    
    495800   495800         302.9124       1182.6066      27316.351      25580.118      6943.1871      18636.931      3089.9923      5848.5902      5318.2372      438.17279     -1371.8467      15722.71      -10408.925     -798.54517      100668.08      46.519025      46.519025      46.519025      1.2177141      1955.5594      655.12621      937.13404    
    495900   495900         300.54818      1322.4807      27472.498      25527.727      6888.9958      18638.732      3073.9993      5810.263       5324.7811      414.68785     -1313.0183      15735.551     -10407.532     -797.23851      100833.08      46.544426      46.544426      46.544426      1.2157215      1892.9368      1380.0105      694.49499    
    496000   496000         302.4674      -68.54129       25283.185      25384.241      6932.987       18451.254      3032.8242      5772.7615      5292.1169      423.48782     -1385.0272      15723.892     -10408.801     -795.16227      101096.36      46.584901      46.584901      46.584901      1.2125554     -143.47922     -46.680396     -15.464258    
    496100   496100         297.34009     -434.69024      24706.323      25347.365      6815.4617      18531.904      3005.9385      5760.631       5428.8756      420.42433     -1422.7926      15744.391     -10405.564     -794.98803      101118.52      46.588304      46.588304      46.588304      1.2122897      492.71171     -1420.202      -376.58046    
    496200   496200         301.82868      968.65141      26793.936      25367.016      6918.3466      18448.67       2937.494       5831.5034      5268.9335      436.65404     -1339.1045      15721.508     -10408.319     -795.85741      101008.06      46.571334      46.571334      46.571334      1.2136155      810.48279      721.76456      1373.7069    
    496300   496300         302.07418      211.76656      25774.529      25462.956      6923.9738      18538.982      2962.2836      5828.6306      5356.8163      432.54969     -1364.2685      15730.378     -10407.407     -796.82694      100885.16      46.552438      46.552438      46.552438      1.2150939      311.66702      1497.3792     -1173.7466    
    496400   496400         303.35015      1024.7837      27118.569      25612.856      6953.2209      18659.635      3024.2106      5837.1338      5367.6664      435.08162     -1319.3574      15726.354     -10411.455     -797.9159       100747.48      46.531251      46.531251      46.531251      1.2167545      1453.1581      1431.6307      189.56234    
    496500   496500         303.94912      5.7828002      25554.6        25546.089      6966.9501      18579.139      2965.1753      5861.2911      5419.8864      438.6503      -1428.4959      15729.572     -10406.94      -796.57046      100917.64      46.557434      46.557434      46.557434      1.2147028      89.196364     -758.97511      687.12715    
    496600   496600         300.83392     -185.82292      25179.323      25453.378      6895.5453      18557.833      3033.1227      5818.2332      5376.6089      434.74533     -1412.5467      15718.783     -10411.113     -794.93023      101125.87      46.589433      46.589433      46.589433      1.2122016     -42.626407     -815.20585      300.36349    
    496700   496700         302.19469      490.65487      26139.893      25415.357      6926.7361      18488.621      2999.0183      5855.8203      5292.302       435.03115     -1413.431       15731.992     -10412.112     -793.93182      101253.04      46.608955      46.608955      46.608955      1.2106791      1418.1224     -667.72499      721.56724    
    496800   496800         300.06276      1024.0342      26888.934      25377.538      6877.8691      18499.669      3003.9941      5903.5861      5209.9168      409.11381     -1333.0168      15716.129     -10410.054     -794.3343       101201.74      46.601081      46.601081      46.601081      1.2112928      2015.854       372.82656      683.42215    
    496900   496900         298.31961     -311.75001      24894.051      25353.396      6837.9138      18515.482      3006.9415      5764.9918      5397.2894      431.06984     -1380.2553      15710.916     -10415.472     -795.67367      101031.39      46.574918      46.574918      46.574918      1.2133353      829.6259      -2476.2536      711.37762    
    497000   497000         301.26107      1556.1788      27676.585      25383.606      6905.3362      18478.27       3016.3662      5743.942       5257.7451      425.82111     -1288.5153      15729.65      -10406.739     -795.65853      101033.31      46.575214      46.575214      46.575214      1.2133122      2055.4645     -7.851127       2620.9231    
    497100   497100         302.56499      137.95712      25681.222      25477.593      6935.2239      18542.369      3019.4004      5777.9353      5411.4558      430.03364     -1387.6692      15699.979     -10408.766     -794.27515      101209.28      46.602238      46.602238      46.602238      1.2112026      1338.9297     -1744.4595      819.40119    
    497200   497200         303.0617      -198.92798      25241.107      25535.064      6946.6092      18588.455      3066.4874      5797.0357      5338.9332      443.77431     -1364.1337      15717.569     -10411.211     -793.3776       101323.77      46.619805      46.619805      46.619805      1.2098339      215.38095     -765.97834     -46.186547    
    497300   497300         300.92937      635.43988      26366.236      25427.179      6897.7331      18529.445      3027.7414      5788.4339      5357.2608      437.8839      -1390.9996      15719.016     -10409.891     -793.32172      101330.91      46.6209        46.6209        46.6209        1.2097487      1842.8802      592.01819     -528.57875    
    497400   497400         296.94222      1631.726       27711.22       25304.028      6806.3419      18497.686      3035.771       5808.8307      5224.5203      431.92702     -1315.6878      15725.531     -10413.206     -794.70068      101155.08      46.593919      46.593919      46.593919      1.2118515      197.86108      2185.8698      2511.4471    
    497500   497500         299.76031     -742.35795      24246.904      25341.566      6870.9366      18470.629      2946.7651      5764.5975      5432.567       432.35553     -1399.081       15708.095     -10414.67      -795.06097      101109.24      46.586879      46.586879      46.586879      1.2124009     -348.59388     -692.91224     -1185.5677    
    497600   497600         298.71102      495.88017      26162.711      25430.687      6846.8854      18583.802      2942.526       5818.9156      5442.7617      436.98283     -1359.7758      15714.463     -10412.071     -794.1802       101221.38      46.604095      46.604095      46.604095      1.2110578      112.91242      385.30349      989.42459    
    497700   497700         298.61066     -42.63959       25431.029      25494.05       6844.5851      18649.465      3050.5756      5827.5346      5340.0323      431.71663     -1306.4716      15715.451     -10409.374     -793.22717      101342.99      46.622752      46.622752      46.622752      1.2096046     -433.85508      956.82401     -650.88769    
    497800   497800         300.00842      830.08506      26706.298      25477.632      6876.6237      18601.009      3085.5312      5758.6514      5298.582       435.31994     -1278.6264      15715.017     -10413.466     -792.05596      101492.85      46.645721      46.645721      46.645721      1.2078186      489.28457      641.27859      1359.692     
    497900   497900         296.08332      819.28139      26488.501      25272.875      6786.6547      18486.221      2997.1235      5814.3494      5319.686       428.67655     -1389.2951      15726.441     -10410.761     -790.13355      101739.78      46.68352       46.68352       46.68352       1.204887       545.71159      1135.626       776.50659    
    498000   498000         295.27985      277.92231      25690.068      25277.576      6768.2382      18509.338      3029.8052      5817.9915      5220.2182      442.13622     -1306.0274      15715.012     -10409.798     -789.90563      101769.13      46.68801       46.68801       46.68801       1.2045395     -341.21763      63.040929      1111.9436    
    498100   498100         299.33901      720.70466      26472.5        25405.181      6861.2799      18543.901      3098.4379      5717.5839      5322.3771      419.69652     -1328.6578      15722.149     -10407.686     -791.64444      101545.6       46.653802      46.653802      46.653802      1.207191      -17.712822      243.1069       1936.7199    
    498200   498200         303.95918      1271.3113      27354.865      25476.968      6967.1807      18509.788      3034.7808      5864.7566      5197.6626      411.89902     -1305.204       15715.175     -10409.282     -793.68349      101284.72      46.613815      46.613815      46.613815      1.2103004      1368.4756     -322.55909      2768.0174    
    498300   498300         300.72596     -1435.3485      23330.439      25446.136      6893.0707      18553.065      3059.1143      5750.2144      5385.2376      419.48632     -1351.2689      15701.411     -10411.129     -795.37344      101069.52      46.580778      46.580778      46.580778      1.2128774     -1778.767      -2613.3065      86.028058    
    498400   498400         296.92948      1570.3955      27644.674      25332.246      6806.05        18526.196      3000.0927      5819.6619      5261.9737      443.42434     -1294.6227      15710.037     -10414.371     -796.17403      100967.89      46.56516       46.56516       46.56516       1.2140983      2445.5432      1661.8703      603.77308    
    498500   498500         297.39743      1186.9512      27066.103      25314.497      6816.7761      18497.72       3098.536       5768.8454      5263.703       427.59562     -1350.2981      15703.141     -10413.803     -794.44452      101187.7       46.598926      46.598926      46.598926      1.2114609      2622.4206     -82.421338      1020.8543    
    498600   498600         299.66567     -428.29766      24721.57       25355.545      6868.7673      18486.778      3022.3091      5755.4046      5354.6114      421.77327     -1369.2914      15716.887     -10414.916     -792.028        101496.43      46.64627       46.64627       46.64627       1.2077759     -378.02289     -415.30727     -491.56284    
    498700   498700         299.8996       1520.0851      27673.64       25423.126      6874.1293      18548.997      3095.982       5773.3559      5224.5591      424.95915     -1278.2568      15724.394     -10415.996     -791.8693       101516.77      46.649386      46.649386      46.649386      1.2075339      1058.4522      1937.5367      1564.2664    
    498800   498800         298.50909     -787.55288      24340.819      25508.708      6842.2569      18666.451      3000.0758      5914.4372      5379.985       428.49267     -1353.3312      15708.186     -10411.394     -790.57896      101682.46      46.674751      46.674751      46.674751      1.2055663     -744.47206     -996.8258      -621.36079    
    498900   498900         303.84584      214.2032       25905.549      25588.516      6964.5828      18623.933      3027.0767      5733.9212      5466.6461      433.5165      -1347.3545      15725.691     -10415.564     -792.11563      101485.2       46.64455       46.64455       46.64455       1.2079096      1464.2992      77.721199     -899.41084    
    499000   499000         306.5955       884.33922      26886.631      25581.475      7027.609       18553.866      3039.3802      5870.2973      5274.4813      432.38199     -1363.4341      15714.186     -10413.427     -794.37156      101196.99      46.600353      46.600353      46.600353      1.2113497      2560.8523      323.59728     -231.43195    
    499100   499100         300.86931      1175.3249      27146.369      25417.356      6896.3566      18521          3094.5231      5742.2278      5268.9805      437.95688     -1312.5438      15703.785     -10413.93      -796.94241      100870.54      46.550189      46.550189      46.550189      1.21527        1953.4007      116.91107      1455.6631    
    499200   499200         297.3689       970.96209      26762.028      25336.037      6816.1222      18519.915      3080.2312      5825.5878      5214.6046      421.8118      -1321.204       15712.05      -10413.167     -798.27482      100702.18      46.524276      46.524276      46.524276      1.2173018      2311.8976      349.62426      251.36441    
    499300   499300         296.90482      1443.6552      27455.376      25330.623      6805.4848      18525.138      3047.4747      5841.2817      5234.2091      438.01144     -1338.3485      15707.415     -10404.905     -796.56676      100918.11      46.557506      46.557506      46.557506      1.2146971      451.9354       1303.8431      2575.1873    
    499400   499400         301.014       -1085.4124      23820.858      25424.173      6899.6731      18524.5        3043.7049      5740.1665      5406.5563      435.84556     -1408.2698      15717.272     -10410.776     -793.67591      101285.69      46.613964      46.613964      46.613964      1.2102888     -884.19762     -1244.857      -1127.1827    
    499500   499500         303.65943      831.17179      26770.366      25540.711      6960.3101      18580.401      3020.1959      5888.2726      5254.3133      417.92846     -1297.1151      15705.2       -10408.394     -792.45513      101441.72      46.637888      46.637888      46.637888      1.2084273     -271.98311      2558.9018      206.59673    
    499600   499600         300.36821      273.89573      25938.078      25533.193      6884.8707      18648.322      3024.5502      5885.4753      5305.8717      441.41361     -1323.7572      15724.003     -10409.234     -793.08635      101360.98      46.625511      46.625511      46.625511      1.2093898      1658.3602     -243.44862     -593.22443    
    499700   499700         296.48589      185.66371      25630.513      25356.533      6795.8823      18560.651      3076.0699      5768.298       5304.8834      426.04818     -1343.6085      15736.024     -10407.065     -794.4659       101184.98      46.598508      46.598508      46.598508      1.2114935     -429.54744      301.45453      685.08404    
    499800   499800         301.59374      1284.14        27192.56       25297.652      6912.9616      18384.691      2988.4501      5829.721       5238.5914      415.42446     -1386.2024      15708.886     -10410.18      -794.49547      101181.21      46.59793       46.59793       46.59793       1.2115386      685.18841      1629.4766      1537.755     
    499900   499900         298.0042       762.55843      26491.093      25366.485      6830.6842      18535.801      3201.4204      5754.5935      5268.8381      419.43701     -1404.3505      15706.861     -10410.998     -794.94907      101123.48      46.589065      46.589065      46.589065      1.2122303      984.45357      1135.121       168.10077    
    500000   500000         303.76796     -113.17275      25283.703      25450.383      6962.7978      18487.585      2994.0681      5754.977       5385.624       447.83868     -1371.0986      15688.082     -10411.906     -796.02294      100987.06      46.568105      46.568105      46.568105      1.2138679     -385.07489      742.79005     -697.23342    
Loop time of 16260.2 on 1 procs for 500000 steps with 8720 atoms

Performance: 2.657 ns/day, 9.033 hours/ns, 30.750 timesteps/s, 268.139 katom-step/s
100.0% CPU use with 1 MPI tasks x 1 OpenMP threads

MPI task timing breakdown:
Section |  min time  |  avg time  |  max time  |%varavg| %total
---------------------------------------------------------------
Pair    | 435.95     | 435.95     | 435.95     |   0.0 |  2.68
Bond    | 1139.8     | 1139.8     | 1139.8     |   0.0 |  7.01
Kspace  | 9151.4     | 9151.4     | 9151.4     |   0.0 | 56.28
Neigh   | 100.43     | 100.43     | 100.43     |   0.0 |  0.62
Comm    | 121.1      | 121.1      | 121.1      |   0.0 |  0.74
Output  | 10.787     | 10.787     | 10.787     |   0.0 |  0.07
Modify  | 4974       | 4974       | 4974       |   0.0 | 30.59
Other   |            | 326.7      |            |       |  2.01

Nlocal:           8720 ave        8720 max        8720 min
Histogram: 1 0 0 0 0 0 0 0 0 0
Nghost:          20267 ave       20267 max       20267 min
Histogram: 1 0 0 0 0 0 0 0 0 0
Neighs:              0 ave           0 max           0 min
Histogram: 1 0 0 0 0 0 0 0 0 0
FullNghs:  4.79131e+06 ave 4.79131e+06 max 4.79131e+06 min
Histogram: 1 0 0 0 0 0 0 0 0 0

Total # of neighbors = 4791312
Ave neighs/atom = 549.46239
Ave special neighs/atom = 5.6385321
Neighbor list builds = 12039
Dangerous builds = 0

# --- Cleanup ---
unfix npt_fix
unfix shake_fix
undump dump_npt

# --- Write Output ---
write_dump all custom /home/alexzhao/PolyJarvis/data/PEEK4/lammps/mechanical/bm_series/bm_P500/bm_P500_last.dump id type mol x y z xu yu zu vx vy vz modify sort id
write_data /home/alexzhao/PolyJarvis/data/PEEK4/lammps/mechanical/bm_series/bm_P500/bm_P500_out.data
System init for write_data ...
PPPM Kokkos initialization ...
  using 12-bit tables for long-range coulomb
  G vector (1/distance) = 0.30735356
  grid = 36 36 36
  stencil order = 5
  estimated absolute RMS force accuracy = 0.00037174786
  estimated relative force accuracy = 1.1195077e-06
  using double precision cuFFT
  3d grid and FFT values/proc = 79507 46656
Generated 21 of 21 mixed pair_coeff terms from sixthpower/sixthpower mixing rule

print "STAGE COMPLETE: NPT T=300.0->300.0K P=500.0->500.0atm steps=500000"
STAGE COMPLETE: NPT T=300.0->300.0K P=500.0->500.0atm steps=500000
quit
