units real
atom_style full
boundary p p p

# --- Force Field Styles ---
pair_style lj/cut 14.0
dielectric 1.000000
bond_style harmonic
angle_style harmonic
dihedral_style multi/harmonic
improper_style none
special_bonds lj 0 0 0
pair_modify mix arithmetic tail yes
neighbor 2.0 bin
neigh_modify delay 0 every 1 check yes
neigh_modify one 4000
package gpu 1 neigh yes

read_data /home/arz2/PolyJarvis/data/cis-PBD2/lammps/equil/npt_pppm/npt_pppm_out.data
Reading data file ...
  orthogonal box = (3.707231 3.707231 3.707231) to (64.471147 64.471147 64.471147)
  1 by 1 by 1 MPI processor grid
  reading atoms ...
  8040 atoms
  reading velocities ...
  8040 velocities
  scanning bonds ...
  2 = max bonds/atom
  scanning angles ...
  1 = max angles/atom
  scanning dihedrals ...
  2 = max dihedrals/atom
  orthogonal box = (3.707231 3.707231 3.707231) to (64.471147 64.471147 64.471147)
  1 by 1 by 1 MPI processor grid
  reading bonds ...
  8020 bonds
  reading angles ...
  8000 angles
  reading dihedrals ...
  7980 dihedrals
Finding 1-2 1-3 1-4 neighbors ...
  special bond factors lj:    0        0        0       
  special bond factors coul:  0        0        0       
     2 = max # of 1-2 neighbors
     2 = max # of 1-3 neighbors
     4 = max # of 1-4 neighbors
     6 = max # of special neighbors
  special bonds CPU = 0.002 seconds
  read_data CPU = 0.104 seconds
include /home/arz2/PolyJarvis/data/cis-PBD2/lammps/cell/emc_build.params
# LAMMPS parameters created by EMC v9.4.4, build Jul 31 2025 20:33:44

# Variables

variable	seed		index	734812
variable	ntotal		index	8040
variable	fshape		index	1
variable	output		index	emc_build
variable	field		index	trappe/2014/trappe-ua
variable	location1	index	/home/arz2/emc/field/
variable	nav		index	0.6022141179
variable	temperature	index	300
variable	radius		index	5
variable	nrelax		index	100
variable	weight_nonbond	index	0.0001
variable	weight_bond	index	0.0001
variable	weight_focus	index	1
variable	cutoff		index	14
variable	charge_cutoff	index	14
variable	kappa		index	4
variable	density1	index	0.57
variable	lprevious	index	0
variable	lphase		index	68.1783775471
variable	f_poly		index	20
variable	chem_repeat	index	*C/C=C\C*
variable	chem_cap	index	*C
variable	lg_repeat	index	4
variable	lg_cap		index	1
variable	norm_poly	index	100
variable	l_poly		index	402
variable	mg_repeat	index	54.0914
variable	mg_cap		index	15.0347
variable	m_poly		index	5439.2094
variable	n_poly		index	20
variable	mtotal		index	108784.188
variable	nphase1		index	8040
variable	mphase1		index	108784.188
variable	vphase1		index	316912.949994
variable	lbox		index	68.1783775471
variable	lphase1		index	68.1783775471
variable	lxx		index	68.1783775471
variable	lyy		index	68.1783775471
variable	lzz		index	68.1783775471
variable	lzy		index	0
variable	lzx		index	0
variable	lyx		index	0
variable	vtotal		index	316912.949994
variable	nl_poly		index	20

# Types

variable	type_c3h	index	1
variable	type_c4h2	index	2
variable	type_c4h3	index	3

variable	type_bond_c3h_c3h index	1
variable	type_bond_c3h_c4h2 index	2
variable	type_bond_c4h2_c4h2 index	3
variable	type_bond_c4h2_c4h3 index	4

variable	type_angle_c3h_c3h_c4h2 index	1
variable	type_angle_c3h_c4h2_c4h2 index	2
variable	type_angle_c3h_c4h2_c4h3 index	3

# Clusters

variable	n0_poly		index	1
variable	n1_poly		index	20
variable	nl_poly		index	20

# Flags

variable	flag_charged	index	0

# Masses

mass		1    13.01890  # c3h
mass		2    14.02680  # c4h2
mass		3    15.03470  # c4h3

# Potentials

pair_modify	mix arithmetic tail yes
special_bonds	lj 0 0 0 coul 0 0 0.5
Finding 1-2 1-3 1-4 neighbors ...
  special bond factors lj:    0        0        0       
  special bond factors coul:  0        0        0.5     
     2 = max # of 1-2 neighbors
     2 = max # of 1-3 neighbors
     4 = max # of 1-4 neighbors
     6 = max # of special neighbors
  special bonds CPU = 0.002 seconds

# Pair Coeffs

pair_coeff	1 1    0.09340    3.71000  # c3h,c3h
pair_coeff	2 2    0.09141    3.95000  # c4h2,c4h2
pair_coeff	3 3    0.19475    3.75000  # c4h3,c4h3

# Bond Coeffs

bond_coeff	1  529.99987    1.33000  # c3h,c3h
bond_coeff	2  260.00013    1.54000  # c3h,c4h2
bond_coeff	3  260.00013    1.54000  # c4h2,c4h2
bond_coeff	4  260.00013    1.54000  # c4h2,c4h3

# Angle Coeffs

angle_coeff	1   69.96954  119.70000  # c3h,c3h,c4h2
angle_coeff	2   62.10020  114.00000  # c3h,c4h2,c4h2
angle_coeff	3   62.10020  114.00000  # c3h,c4h2,c4h3

# Dihedral Coeffs

dihedral_coeff	1    1.91086    1.85422    0.43627   -2.24348    0.00000  # c3h,c3h,c4h2,c4h2
dihedral_coeff	2    1.91086    1.85422    0.43627   -2.24348    0.00000  # c3h,c3h,c4h2,c4h3
dihedral_coeff	3    2.00702   -4.01203    0.27102    6.29006    0.00000  # c3h,c4h2,c4h2,c3h
dihedral_coeff	4   25.63496    0.99360  -25.63496   -0.99360    0.00000  # c4h2,c3h,c3h,c4h2


# --- Thermo Output ---
thermo_style custom step time temp press enthalpy etotal ke pe ebond eangle edihed eimp evdwl ecoul elong etail vol lx ly lz density pxx pyy pzz
thermo_modify flush yes
thermo 1000

# --- Trajectory ---
dump dump_npt all custom 1000 npt_cool.dump id type mol x y z ix iy iz vx vy vz

# --- Restart Checkpointing ---
restart 10000 npt_1.rst npt_2.rst

# --- Initial Velocities (optional) ---
# Velocities read from data file

# --- SHAKE Constraints ---
# SHAKE disabled (TraPPE-UA united-atom)

# --- NPT Thermostat + Barostat (Nose-Hoover) ---
# T_damp = 100.0 fs  (heat bath coupling)
# P_damp = 1000.0 fs  (pressure bath coupling, ~10x T_damp typical)
# Ramp: T=480.0->300.0K  P=1.0->1.0atm
timestep 2.0
fix npt_fix all npt temp 480.0 300.0 100.0 iso 1.0 1.0 1000.0

run 2000000

CITE-CITE-CITE-CITE-CITE-CITE-CITE-CITE-CITE-CITE-CITE-CITE-CITE

Your simulation uses code contributions which should be cited:

- GPU package (short-range, long-range and three-body potentials): doi:10.1016/j.cpc.2010.12.021, doi:10.1016/j.cpc.2011.10.012, doi:10.1016/j.cpc.2013.08.002, doi:10.1016/j.commatsci.2014.10.068, doi:10.1016/j.cpc.2016.10.020, doi:10.3233/APC200086

@Article{Brown11,
 author = {W. M. Brown and P. Wang and S. J. Plimpton and A. N. Tharrington},
 title = {Implementing Molecular Dynamics on Hybrid High Performance Computers---Short Range Forces},
 journal = {Comput.\ Phys.\ Commun.},
 year =    2011,
 volume =  182,
 pages =   {898--911},
 doi =     {10.1016/j.cpc.2010.12.021}
}

@Article{Brown12,
 author = {W. M. Brown and A. Kohlmeyer and S. J. Plimpton and A. N. Tharrington},
 title = {Implementing Molecular Dynamics on Hybrid High Performance Computers - Particle-Particle Particle-Mesh},
 journal = {Comput.\ Phys.\ Commun.},
 year =    2012,
 volume =  183,
 doi =     {10.1016/j.cpc.2011.10.012},
 pages =   {449--459}
}

@Article{Brown13,
 author = {W. M. Brown and Y. Masako},
 title = {Implementing Molecular Dynamics on Hybrid High Performance Computers---Three-Body Potentials},
 journal = {Comput.\ Phys.\ Commun.},
 year =    2013,
 volume =  184,
 pages =   {2785--2793},
 doi =     {10.1016/j.cpc.2013.08.002},
}

@Article{Trung15,
 author = {T. D. Nguyen and S. J. Plimpton},
 title = {Accelerating Dissipative Particle Dynamics Simulations for Soft Matter Systems},
 journal = {Comput.\ Mater.\ Sci.},
 year =    2015,
 doi =     {10.1016/j.commatsci.2014.10.068},
 volume =  100,
 pages =   {173--180}
}

@Article{Trung17,
 author = {T. D. Nguyen},
 title = {{GPU}-Accelerated {T}ersoff Potentials for Massively Parallel
    Molecular Dynamics Simulations},
 journal = {Comput.\ Phys.\ Commun.},
 year =    2017,
 doi =     {10.1016/j.cpc.2016.10.020},
 volume =  212,
 pages =   {113--122}
}

@inproceedings{Nikolskiy19,
 author = {V. Nikolskiy and V. Stegailov},
 title = {{GPU} Acceleration of Four-Site Water Models in {LAMMPS}},
 booktitle = {Proceedings of the International Conference on Parallel
    Computing (ParCo 2019), Prague, Czech Republic},
 doi =     {10.3233/APC200086},
 year =    2019
}

CITE-CITE-CITE-CITE-CITE-CITE-CITE-CITE-CITE-CITE-CITE-CITE-CITE

Generated 3 of 3 mixed pair_coeff terms from arithmetic mixing rule
Per MPI rank memory allocation (min/avg/max) = 15.62 | 15.62 | 15.62 Mbytes
   Step          Time           Temp          Press         Enthalpy        TotEng         KinEng         PotEng         E_bond        E_angle        E_dihed        E_impro         E_vdwl         E_coul         E_long         E_tail         Volume           Lx             Ly             Lz          Density          Pxx            Pyy            Pzz      
         0   0              487.50546      306.45009      22792.928      21790.224      11681.963      10108.261      3918.73        3813.1822      10027.644      0             -7651.2955      0              0             -259.07376      224355.78      60.763916      60.763916      60.763916      0.80515145     1064.2714     -499.30685      354.38567    
      1000   2000           475.52446     -61.554212      21677.39       21877.346      11394.865      10482.481      4017.7778      3944.2167      10140.362      0             -7619.8753      0              0             -260.95134      222741.51      60.61783       60.61783       60.61783       0.81098661    -606.5959       69.877466      352.0558     
      2000   4000           482.38704     -96.309213      21460.845      21780.082      11559.311      10220.771      3873.0617      3809.1869      10064.185      0             -7525.6626      0              0             -255.73559      227284.34      61.027162      61.027162      61.027162      0.79477705    -141.76878     -105.08963     -42.069223    
      3000   6000           488.91415      179.33014      22420.552      21827.556      11715.719      10111.838      3888.7269      3732.1822      10081.878      0             -7590.9492      0              0             -256.35282      226737.1       60.978143      60.978143      60.978143      0.7966953      655.05229      139.66082     -256.72269    
      4000   8000           477.52294      34.734303      21972.025      21857.038      11442.754      10414.284      3904.6721      3947.8752      10123.898      0             -7562.1619      0              0             -256.06351      226993.27      61.001099      61.001099      61.001099      0.79579618     155.61721      250.00091     -301.41522    
      5000   10000          478.56345      342.38008      22776.341      21633.781      11467.688      10166.093      3904.9811      3801.0821      10011.224      0             -7551.1943      0              0             -254.01883      228820.42      61.164335      61.164335      61.164335      0.78944169    -133.36481      317.21205      843.29301    
      6000   12000          472.94829     -980.89472      18432.279      21674.525      11333.133      10341.392      3946.3956      3770.2082      10151.274      0             -7526.4856      0              0             -256.45606      226645.82      60.969959      60.969959      60.969959      0.79701615    -745.797       -839.21573     -1357.6714    
      7000   14000          485.65299      543.41263      23802.98       21992.546      11637.573      10354.974      3960.2041      3834.6746      10083.884      0             -7523.7886      0              0             -254.43904      228442.52      61.130645      61.130645      61.130645      0.79074763     364.72099      150.61836      1114.8985    
      8000   16000          478.25283      192.13235      22397.324      21760.057      11460.244      10299.813      3902.0317      3892.2643      10116.355      0             -7610.838       0              0             -255.57341      227428.57      61.040068      61.040068      61.040068      0.79427303    -519.20218      539.68164      555.9176     
      9000   18000          481.36228     -415.62743      20369.373      21742.177      11534.755      10207.422      3851.3141      3793.9528      10084.669      0             -7522.5138      0              0             -256.64461      226479.32      60.955025      60.955025      60.955025      0.7976021     -264.21772     -715.83168     -266.8329     
     10000   20000          480.27599      48.53149       22042.355      21879.742      11508.725      10371.017      3976.2775      3785.612       10068.235      0             -7459.1073      0              0             -252.99091      229750.13      61.247062      61.247062      61.247062      0.78624711     11.616312      162.37222     -28.394066    
     11000   22000          472.91288      116.86188      21950.938      21560.482      11332.285      10228.197      3810.7316      3792.0166      10091.68       0             -7466.231       0              0             -253.7099       229099.04      61.18915       61.18915       61.18915       0.7884816      459.81943     -574.3032       465.06942    
     12000   24000          471.68413     -377.7648       20226.627      21488.546      11302.84       10185.706      3758.3331      3803.6715      10118.141      0             -7494.4392      0              0             -253.76186      229052.13      61.184974      61.184974      61.184974      0.78864309    -705.11676     -241.31681     -186.86083    
     13000   26000          477.28982     -44.636429      21541.623      21690.113      11437.168      10252.945      3871.7569      3757.5625      10108.133      0             -7484.5077      0              0             -254.8169       228103.77      61.100414      61.100414      61.100414      0.79192194    -376.61595      959.32313     -716.61647    
     14000   28000          475.14605      80.302048      21751.287      21487.067      11385.798      10101.27       3851.317       3715.0557      10113.943      0             -7579.0455      0              0             -257.6312       225612.02      60.877117      60.877117      60.877117      0.80066823     52.553911      91.184215      97.168019    
     15000   30000          475.7103      -132.77904      21199.926      21646.292      11399.318      10246.974      3810.238       3757.1766      10083.053      0             -7403.4937      0              0             -252.15892      230508.18      61.314348      61.314348      61.314348      0.78366145    -289.54453     -274.18868      165.39608    
     16000   32000          480.42499     -533.54791      20206.628      22002.906      11512.295      10490.611      3937.1462      3781.07        10165.507      0             -7393.1125      0              0             -251.78883      230847         61.344375      61.344375      61.344375      0.78251127    -925.44364     -277.59135     -397.60876    
     17000   34000          480.59694     -112.33661      21625.112      22003.481      11516.416      10487.066      3913.3086      3835.5182      10085.117      0             -7346.8778      0              0             -251.67595      230950.53      61.353544      61.353544      61.353544      0.78216048    -256.2553      -226.10079      145.34625    
     18000   36000          487.67931     -435.93188      20655.673      22113.673      11686.129      10427.544      3941.2785      3837.5904      10115.263      0             -7466.5881      0              0             -253.45311      229331.15      61.209808      61.209808      61.209808      0.78768356    -742.7274      -81.555017     -483.51323    
     19000   38000          473.00246      272.4538       22666.196      21761.667      11334.431      10427.235      3982.3885      3835.3394      10109.847      0             -7500.3393      0              0             -255.3328       227642.89      61.059235      61.059235      61.059235      0.79352525     87.471748      917.54504     -187.65539    
     20000   40000          481.40533      115.34825      22108.296      21721.84       11535.787      10186.053      3773.212       3732.0947      10140.448      0             -7459.7013      0              0             -253.01596      229727.39      61.24504       61.24504       61.24504       0.78632496     465.4769       24.570167     -144.0023     
     21000   42000          482.26172      45.773626      22165.818      22011.337      11556.308      10455.028      3996.8221      3777.6133      10026.023      0             -7345.4296      0              0             -251.17524      231410.93      61.394286      61.394286      61.394286      0.78060435     277.79954     -71.629097     -68.849568    
     22000   44000          472.80289     -187.83156      21082.199      21707.679      11329.649      10378.03       3877.9956      3841.6421      10131.267      0             -7472.8752      0              0             -254.56105      228333.03      61.120877      61.120877      61.120877      0.7911268      126.55244     -562.05419     -127.99295    
     23000   46000          472.73825     -201.0208       21102.057      21768.341      11328.1        10440.241      3897.8018      3854.5591      10144.419      0             -7456.5397      0              0             -255.75179      227269.94      61.025873      61.025873      61.025873      0.79482741    -265.03381     -325.00876     -13.019838    
     24000   48000          483.1194      -46.421147      21651.496      21805.636      11576.861      10228.775      3837.7243      3772.8929      10106.693      0             -7488.5352      0              0             -255.29199      227679.27      61.062488      61.062488      61.062488      0.79339844     410.93289      139.38074     -689.57707    
     25000   50000          482.43045      169.99914      22500.609      21933.43       11560.352      10373.078      3987.8865      3793.6658      10071.661      0             -7480.1354      0              0             -254.07555      228769.33      61.159783      61.159783      61.159783      0.78961797     109.18836      204.71994      196.08913    
     26000   52000          478.3188       260.16407      22757.669      21878.239      11461.825      10416.414      3905.7427      3757.1835      10141.978      0             -7388.4902      0              0             -250.77402      231781.17      61.427011      61.427011      61.427011      0.77935744    -234.33453      207.61286      807.21387    
     27000   54000          480.72808     -51.49071       21759.845      21930.263      11519.558      10410.705      3968.6585      3782.2559      10214.987      0             -7555.1958      0              0             -256.12286      226940.68      60.996388      60.996388      60.996388      0.79598061    -41.635005     -346.54488      233.70776    
     28000   56000          478.47524     -133.82761      20994.013      21437.182      11465.574      9971.6075      3809.6707      3768.8733      9934.5814      0             -7541.5179      0              0             -255.98433      227063.48      61.007388      61.007388      61.007388      0.7955501     -492.66592     -418.99396      510.17704    
     29000   58000          476.15975      312.86804      22615.036      21576.263      11410.088      10166.175      3897.8004      3668.3802      10078.521      0             -7478.5266      0              0             -255.31558      227658.23      61.060607      61.060607      61.060607      0.79347175     320.34851     -38.95823       657.21384    
     30000   60000          472.25925     -410.17002      20307.218      21669.547      11316.622      10352.925      3861.0956      3885.5961      10117.201      0             -7510.9677      0              0             -255.22223      227741.5       61.068051      61.068051      61.068051      0.79318165    -414.02456     -807.43894     -9.0465639    
     31000   62000          475.82195      319.34777      22843.027      21779.359      11401.994      10377.365      3972.5732      3700.0677      10161.369      0             -7456.6453      0              0             -254.50364      228384.53      61.125472      61.125472      61.125472      0.79094839     228.77731      362.48861      366.77739    
     32000   64000          471.1832       269.25098      22522.138      21630.179      11290.837      10339.343      3836.677       3836.5098      10184.176      0             -7518.02        0              0             -255.88767      227149.26      61.015069      61.015069      61.015069      0.79524969     239.74918      85.985349      482.01842    
     33000   66000          472.2701       199.09801      22245.956      21589.509      11316.882      10272.627      3784.3086      3853.6811      10219.247      0             -7584.6092      0              0             -257.10096      226077.32      60.918939      60.918939      60.918939      0.79902035    -94.702267     -103.09325      795.08954    
     34000   68000          476.32458     -170.05531      21287.148      21851.81       11414.038      10437.772      3915.3507      3836.681       10206.593      0             -7520.8533      0              0             -255.29264      227678.69      61.062437      61.062437      61.062437      0.79340045    -284.86296      30.140425     -255.4434     
     35000   70000          475.14378      287.30883      22745.101      21793.164      11385.743      10407.421      3901.1328      3782.7546      10223.728      0             -7500.1951      0              0             -255.84524      227186.93      61.018442      61.018442      61.018442      0.79511782     767.80517      220.2408      -126.11946    
     36000   72000          473.54819     -215.68256      21183.904      21907.019      11347.508      10559.51       3919.1071      3887.082       10100.237      0             -7346.9158      0              0             -252.83915      229888.03      61.259313      61.259313      61.259313      0.78577548    -206.10594     -116.01855     -324.9232     
     37000   74000          479.66761      299.61475      22824.08       21826.869      11494.146      10332.723      3891.0136      3749.4031      10160.243      0             -7467.9366      0              0             -254.69049      228216.98      61.110521      61.110521      61.110521      0.79152909     112.02794      567.97336      218.84294    
     38000   76000          483.39185     -36.081293      21751.053      21870.192      11583.389      10286.803      3840.782       3848.1824      10175.325      0             -7577.4857      0              0             -256.72203      226411.01      60.948897      60.948897      60.948897      0.79784272    -206.7972      -248.8401       347.39341    
     39000   78000          483.32002      364.54788      23071.199      21858.625      11581.668      10276.957      3817.2905      3778.3211      10131.631      0             -7450.2857      0              0             -254.84889      228075.14      61.097858      61.097858      61.097858      0.79202135     1047.8904     -227.62542      273.37867    
     40000   80000          475.64394      488.39242      23377.793      21764.167      11397.728      10366.439      4010.9706      3840.6026      10038.183      0             -7523.3177      0              0             -256.56811      226546.84      60.961082      60.961082      60.961082      0.79736437     667.48696      637.87973      159.81057    
     41000   82000          482.0537       214.01422      22366.868      21658.562      11551.324      10107.238      3857.4136      3763.2749      10021.603      0             -7535.0537      0              0             -256.12852      226935.66      60.995938      60.995938      60.995938      0.79599822     688.97606     -163.01147      116.07805    
     42000   84000          479.78553     -399.41712      20395.048      21721.972      11496.972      10225          3857.3038      3743.6148      10134.457      0             -7510.3756      0              0             -255.16261      227794.71      61.072807      61.072807      61.072807      0.79299636    -274.01916     -945.86103      21.62884     
     43000   86000          472.8989      -99.00977       21460.489      21789.356      11331.95       10457.407      3907.5004      3979.2086      10091.592      0             -7520.8947      0              0             -255.2074       227754.74      61.069234      61.069234      61.069234      0.79313554    -24.187435     -196.62402     -76.217857    
     44000   88000          481.50458     -165.78977      21245.414      21794.925      11538.165      10256.76       3909.6694      3838.4054      10057.822      0             -7549.1372      0              0             -255.75113      227270.53      61.025926      61.025926      61.025926      0.79482534    -148.3031       23.872195     -372.9384     
     45000   90000          470.33664      258.15114      22374.394      21517.108      11270.551      10246.557      3860.9786      3781.8874      10103.44       0             -7499.7491      0              0             -255.2612       227706.73      61.064943      61.064943      61.064943      0.79330275     298.61263      215.39491      260.44587    
     46000   92000          479.50725      93.269097      21876.658      21567.078      11490.304      10076.774      3802.8226      3748.8668      10023.684      0             -7498.5996      0              0             -255.38863      227593.12      61.054785      61.054785      61.054785      0.79369878     404.716        420.76007     -545.66878    
     47000   94000          473.56922      202.01243      22112.421      21446.324      11348.012      10098.312      3868.1385      3769.7439      10030.261      0             -7569.8315      0              0             -257.08516      226091.21      60.920187      60.920187      60.920187      0.79897126    -79.381602      753.26213     -67.843241    
     48000   96000          470.77126      372.14477      22542.953      21309.234      11280.966      10028.269      3808.7506      3632.5527      10131.812      0             -7544.8467      0              0             -255.701        227315.09      61.029914      61.029914      61.029914      0.79466954     773.21997      18.933075      324.28125    
     49000   98000          472.31085     -668.60011      19402.535      21614.602      11317.858      10296.744      3984.6952      3754.4332      10143.074      0             -7585.4583      0              0             -256.21505      226859.02      60.98907       60.98907       60.98907       0.79626713    -807.32613     -307.17419     -891.30002    
     50000   100000         479.38349      79.711935      22010.023      21746.781      11487.338      10259.443      3882.0871      3798.4458      10085.443      0             -7506.5327      0              0             -256.68732      226441.63      60.951644      60.951644      60.951644      0.79773485    -9.0659386      234.57902      13.622726    
     51000   102000         471.60052      34.754878      21631.957      21517.558      11300.837      10216.721      3887.4804      3858.2455      10040.228      0             -7569.2326      0              0             -257.53187      225699.03      60.884943      60.884943      60.884943      0.80035955     364.83971      105.15739     -365.73247    
     52000   104000         478.58509      543.51418      23603.562      21819.725      11468.206      10351.519      3958.6864      3774.7328      10207.43       0             -7589.3302      0              0             -258.28085      225044.54      60.826033      60.826033      60.826033      0.80268723     785.59945      283.94983      560.99325    
     53000   106000         477.58299      69.859576      21784.856      21553.606      11444.193      10109.413      3870.4994      3730.4028      10052.127      0             -7543.617       0              0             -256.08292      226976.07      60.999558      60.999558      60.999558      0.7958565     -301.71447      412.69273      98.600465    
     54000   108000         471.59817      751.15126      24048.61       21577.4        11300.781      10276.62       3936.5957      3793.6707      10120.704      0             -7574.3504      0              0             -257.66441      225582.93      60.874501      60.874501      60.874501      0.80077147     642.58978      667.93435      942.92965    
     55000   110000         472.98871     -108.25397      21128.781      21487.174      11334.102      10153.072      3829.881       3780.2811      10104.707      0             -7561.7962      0              0             -256.04737      227007.58      61.002381      61.002381      61.002381      0.795746      -110.33309      197.3426      -411.77141    
     56000   112000         475.99709      222.54551      22163.337      21425.264      11406.191      10019.073      3833.2195      3681.1769      10055.942      0             -7551.2645      0              0             -255.59721      227407.39      61.038173      61.038173      61.038173      0.79434699     83.881372      289.10694      294.64821    
     57000   114000         476.84941     -245.21061      20847.897      21662.744      11426.615      10236.129      3860.7582      3787.1971      10079.14       0             -7490.9662      0              0             -255.09368      227856.27      61.078308      61.078308      61.078308      0.79278213    -353.56023     -126.48506     -255.58655    
     58000   116000         478.49937      89.586887      22177.585      21881.85       11466.152      10415.697      3948.6235      3788.5079      10257.319      0             -7578.753       0              0             -256.78978      226351.28      60.943536      60.943536      60.943536      0.79805327     117.64843     -69.481537      220.59376    
     59000   118000         473.35544      190.76757      22238.68       21604.355      11342.89       10261.465      3902.1397      3792.2888      10096.589      0             -7529.5522      0              0             -254.93498      227998.12      61.090979      61.090979      61.090979      0.7922889      306.71093      450.39506     -184.80327    
     60000   120000         478.97978      244.94988      22258.905      21455.118      11477.664      9977.4536      3798.3825      3756.7588      10084.77       0             -7662.4579      0              0             -258.32881      225002.76      60.822269      60.822269      60.822269      0.80283627     20.358643      393.89537      320.59561    
     61000   122000         475.98748      242.73273      22270.537      21467.973      11405.96       10062.013      3850.2315      3716.1517      10079.415      0             -7583.7854      0              0             -256.38088      226712.29      60.975919      60.975919      60.975919      0.79678248     136.95227      570.46611      20.779825    
     62000   124000         470.74897     -286.7843       20579.607      21538.263      11280.431      10257.832      3889.0781      3785.9891      10072.669      0             -7489.9047      0              0             -253.58835      229208.85      61.198925      61.198925      61.198925      0.78810384    -23.207841     -659.35047     -177.79459    
     63000   126000         478.58887      391.254        22933.576      21633.212      11468.297      10164.915      3910.1081      3734.1594      10026.237      0             -7505.5898      0              0             -255.05294      227892.67      61.08156       61.08156       61.08156       0.7926555      612.01795      297.12561      264.61844    
     64000   128000         474.04459     -23.928997      21482.45       21561.825      11359.403      10202.422      3913.7966      3688.916       10093.407      0             -7493.6976      0              0             -255.54862      227450.63      61.042041      61.042041      61.042041      0.79419599     523.75887     -405.82704     -189.71882    
     65000   130000         470.79468     -515.75857      19856.997      21567.699      11281.527      10286.172      3922.8124      3754.9657      10159.646      0             -7551.2524      0              0             -255.5694       227432.14      61.040387      61.040387      61.040387      0.79426055    -605.10293     -469.7011      -472.47169    
     66000   132000         473.90464     -175.01992      20859.295      21436.767      11356.05       10080.717      3801.6939      3792.9195      10047.465      0             -7561.3614      0              0             -256.91729      226238.94      60.933452      60.933452      60.933452      0.79844956    -558.38256     -276.30622      309.62903    
     67000   134000         477.24693      9.7792284      21654.579      21622.178      11436.14       10186.038      3909.47        3767.8664      10062.695      0             -7553.9936      0              0             -255.85163      227181.26      61.017934      61.017934      61.017934      0.79513767     85.260806      402.07429     -457.99741    
     68000   136000         476.64601     -42.168869      21692.871      21832.147      11421.741      10410.406      3987.7809      3804.7269      10180.328      0             -7562.4294      0              0             -256.65627      226469.02      60.954102      60.954102      60.954102      0.79763836    -30.053612      169.0843      -265.53729    
     69000   138000         484.50001      482.16131      23478.736      21881.369      11609.944      10271.425      3873.7343      3832.8636      10059.707      0             -7494.8796      0              0             -255.87291      227162.36      61.016242      61.016242      61.016242      0.79520383     541.21072      334.57065      570.70255    
     70000   140000         473.9168       232.97327      22302.013      21530.541      11356.341      10174.2        3864.8556      3802.5382      10120.415      0             -7613.6085      0              0             -255.98969      227058.73      61.006963      61.006963      61.006963      0.79556675     709.7229       294.9717      -305.7748     
     71000   142000         482.35217     -46.142483      21529.742      21681.597      11558.476      10123.121      3896.0146      3807.6179      10054.58       0             -7635.0919      0              0             -257.57803      225658.59      60.881306      60.881306      60.881306      0.80050299    -231.16344     -244.81609      337.55209    
     72000   144000         473.9926      -254.46817      20692.973      21540.266      11358.158      10182.108      3912.4171      3758.3972      10027.944      0             -7516.65        0              0             -254.58721      228309.56      61.118783      61.118783      61.118783      0.79120812    -184.56875     -503.64897     -75.186798    
     73000   146000         466.16859     -125.70014      21035.899      21449.776      11170.673      10279.103      3881.5591      3829.0892      10136.924      0             -7568.4699      0              0             -257.45499      225766.44      60.891003      60.891003      60.891003      0.80012061    -237.68784      75.43236      -214.84492    
     74000   148000         468.08553      32.229832      21380.362      21273.643      11216.608      10057.035      3827.3413      3721.3373      10103.861      0             -7595.5051      0              0             -256.00672      227043.63      61.00561       61.00561       61.00561       0.79561968     524.4735      -446.67731      18.893298    
     75000   150000         472.84736      262.32161      22367.564      21504.306      11330.714      10173.591      3876.3612      3818.6621      10050.533      0             -7571.9648      0              0             -257.59063      225647.55      60.880313      60.880313      60.880313      0.80054215     186.93999      660.14448     -60.119652    
     76000   152000         479.62756     -191.8611       20936.063      21576.656      11493.187      10083.47       3721.3167      3830.6022      9983.5577      0             -7452.0068      0              0             -253.88729      228938.97      61.174897      61.174897      61.174897      0.78903288    -850.9276       120.8286       154.51571    
     77000   154000         475.26335     -439.83479      20145.913      21609.329      11388.608      10220.721      3893.9029      3796.385       10087.403      0             -7556.9701      0              0             -254.77594      228140.44      61.103688      61.103688      61.103688      0.79179464    -1495.6137     -219.88543      395.99478    
     78000   156000         471.59002      101.04334      21551.959      21218.86       11300.585      9918.2751      3754.8289      3687.1288      10089.488      0             -7613.1704      0              0             -257.14109      226042.03      60.91577       60.91577       60.91577       0.79914507     431.50788     -224.15339      95.775515    
     79000   158000         468.52205     -24.545298      21175.917      21256.087      11227.068      10029.018      3887.7503      3714.2144      10059.362      0             -7632.3085      0              0             -259.53612      223956.09      60.727811      60.727811      60.727811      0.80658836     55.902987      80.536972     -210.07585    
     80000   160000         471.50898      175.60641      21954.232      21378.488      11298.643      10079.845      3852.4672      3752.5228      10147.005      0             -7672.1494      0              0             -258.55188      224808.63      60.804771      60.804771      60.804771      0.80352955     13.74698       30.115985      482.95625    
     81000   162000         472.6935      -154.97513      21020.251      21530.612      11327.028      10203.584      3946.0162      3828.3411      9994.041       0             -7564.8144      0              0             -257.40756      225808.04      60.894742      60.894742      60.894742      0.79997321    -529.47079     -40.328649      104.87405    
     82000   164000         477.40723     -105.76536      21265.182      21616.662      11439.982      10176.681      3910.5276      3751.4345      10048.122      0             -7533.4033      0              0             -255.08151      227867.15      61.079279      61.079279      61.079279      0.79274429     403.29535     -402.93392     -317.65751    
     83000   166000         467.74373      160.7154       21754.739      21230.625      11208.418      10022.207      3874.4918      3755.7994      10043.031      0             -7651.1152      0              0             -259.93691      223610.78      60.696583      60.696583      60.696583      0.80783395     705.35118     -79.351445     -143.85353    
     84000   168000         474.33351      427.42355      22864.894      21445.149      11366.327      10078.822      3932.0052      3681.0749      10012.731      0             -7546.9888      0              0             -255.20231      227759.29      61.069641      61.069641      61.069641      0.79311971     200.3578       482.89261      599.02023    
     85000   170000         474.62543     -351.04147      20433.713      21604.297      11373.322      10230.974      3923.5675      3787.3274      10028.279      0             -7508.1996      0              0             -254.20992      228648.41      61.149005      61.149005      61.149005      0.79003557    -129.52889     -729.65919     -193.93633    
     86000   172000         464.29786      33.271784      21311.814      21201.796      11125.845      10075.951      3874.6742      3772.452       10005.131      0             -7576.3065      0              0             -256.35965      226731.06      60.977602      60.977602      60.977602      0.79671651     553.41737     -180.88665     -272.71537    
     87000   174000         475.44537      165.2064       22081.928      21537.176      11392.97       10144.206      3869.1852      3800.5876      10050.812      0             -7576.3786      0              0             -257.07779      226097.69      60.920769      60.920769      60.920769      0.79894836    -133.41368      249.7178       379.31509    
     88000   176000         471.88542     -203.0316       20679.828      21346.458      11307.664      10038.794      3910.6396      3741.9391      10036.685      0             -7650.4698      0              0             -258.17565      225136.24      60.834294      60.834294      60.834294      0.80236028    -157.47453     -70.244986     -381.37529    
     89000   178000         471.34577      486.2605       22746.437      21145.341      11294.732      9850.609       3768.0459      3624.0454      10085.411      0             -7626.8929      0              0             -257.44727      225773.2       60.891611      60.891611      60.891611      0.80009663     585.69099      583.35621      289.73429    
     90000   180000         474.32649     -137.53004      20989.966      21445.669      11366.159      10079.511      3804.7832      3840.0566      10012.238      0             -7577.5674      0              0             -255.83062      227199.91      61.019604      61.019604      61.019604      0.7950724     -431.53031     -182.68947      201.62964    
     91000   182000         481.77973      36.859403      21729.117      21607.848      11544.759      10063.09       3885.8756      3775.5583      9979.8843      0             -7578.2285      0              0             -257.65299      225592.93      60.8754        60.8754        60.8754        0.80073598    -140.99526     -53.315726      304.8892     
     92000   184000         464.34489     -340.63436      19901.877      21020.772      11126.972      9893.7998      3800.2896      3647.0899      10061.683      0             -7615.2626      0              0             -258.069        225229.28      60.842673      60.842673      60.842673      0.80202884    -148.03248     -534.16062     -339.70998    
     93000   186000         469.91515      188.6774       22064.582      21436.941      11260.451      10176.49       3879.7645      3738.5075      10089.69       0             -7531.4711      0              0             -254.82705      228094.68      61.099602      61.099602      61.099602      0.7919535      491.492       -209.62664      284.16683    
     94000   188000         470.97148     -550.72934      19574.653      21408.024      11285.763      10122.261      3831.0973      3698.2012      10085.176      0             -7492.2137      0              0             -254.63872      228263.38      61.114662      61.114662      61.114662      0.79136818    -996.0562      -194.5309      -461.60092    
     95000   190000         463.02686      74.16309       21457.829      21211.818      11095.388      10116.429      3817.8235      3775.9363      10035.696      0             -7513.0267      0              0             -255.5455       227453.41      61.04229       61.04229       61.04229       0.79418628    -496.01589      467.0019       251.50326    
     96000   192000         473.63674      205.38432      22085.208      21406.109      11349.63       10056.478      3830.9623      3741.4962      10061.989      0             -7577.9695      0              0             -256.37198      226720.15      60.976624      60.976624      60.976624      0.79675484     481.24722     -139.29093      274.19669    
     97000   194000         471.93156      548.04225      23160.411      21369.028      11308.77       10060.258      3924.5391      3681.9316      10078.328      0             -7624.5408      0              0             -259.3356       224129.25      60.743458      60.743458      60.743458      0.8059652      409.3955       794.05851      440.67273    
     98000   196000         472.39345     -589.3971       19532.171      21477.782      11319.838      10157.945      3984.5116      3750.1895      10014.013      0             -7590.7691      0              0             -256.79611      226345.7       60.943035      60.943035      60.943035      0.79807295    -475.80404     -572.25559     -720.13168    
     99000   198000         469.99549      186.98059      21880.698      21265.44       11262.376      10003.064      3806.0716      3689.0045      10111.367      0             -7603.379       0              0             -257.6176       225623.92      60.878188      60.878188      60.878188      0.80062599     599.09483     -501.52318      463.37011    
    100000   200000         469.30308      151.61909      21663.436      21168.447      11245.784      9922.6629      3883.6667      3756.7401      9918.3679      0             -7636.1118      0              0             -259.65414      223854.3       60.718609      60.718609      60.718609      0.80695515     589.86571      224.68039     -359.68883    
    101000   202000         465.30555      263.14184      22218.153      21346.596      11149.992      10196.604      3785.7686      3852.366       10079.478      0             -7521.0086      0              0             -255.93554      227106.77      61.011265      61.011265      61.011265      0.79539846    -475.22979      169.91006      1094.7453    
    102000   204000         467.86647     -271.57228      20510.641      21409.257      11211.359      10197.898      3863.9926      3794.0259      10041.002      0             -7501.1229      0              0             -256.18147      226888.75      60.991735      60.991735      60.991735      0.79616277    -595.40822     -53.030972     -166.27767    
    103000   206000         468.18386      530.19257      23214.828      21441.384      11218.964      10222.419      3840.4614      3735.1057      10078.281      0             -7431.4283      0              0             -253.42694      229354.84      61.211916      61.211916      61.211916      0.7876022      535.9416       602.05533      452.58078    
    104000   208000         460.83646     -234.14999      20435.347      21219.118      11042.901      10176.218      3758.4091      3803.2305      10089.78       0             -7475.2021      0              0             -253.24514      229519.49      61.22656       61.22656       61.22656       0.7870372     -180.1703      -457.5134      -64.766269    
    105000   210000         471.23072      245.8637       22358.5        21543.978      11291.975      10252.002      3814.3552      3877.9082      10113.439      0             -7553.7001      0              0             -255.87504      227160.47      61.016073      61.016073      61.016073      0.79521043     69.698686      70.406821      597.4856     
    106000   212000         471.15971      12.067473      21548.212      21508.16       11290.274      10217.886      3891.7935      3696.046       10153.75       0             -7523.7036      0              0             -255.40711      227576.65      61.053313      61.053313      61.053313      0.79375619     673.12095     -36.982105     -599.93642    
    107000   214000         473.17927      415.31134      22746.481      21371.281      11338.668      10032.613      3838.1671      3644.8246      10120.282      0             -7570.6616      0              0             -256.00268      227047.21      61.005931      61.005931      61.005931      0.79560711     611.9494       262.88119      371.10343    
    108000   216000         466.86264      292.40878      22243.822      21273.492      11187.304      10086.187      3757.8578      3751.8394      10085.04       0             -7508.5501      0              0             -255.4509       227537.64      61.049824      61.049824      61.049824      0.79389228     396.2288      -34.773257      515.77078    
    109000   218000         463.43221      65.36719       21609.819      21393.513      11105.102      10288.411      3832.4519      3766.707       10199.171      0             -7509.9186      0              0             -256.1692       226899.62      60.992709      60.992709      60.992709      0.79612464     66.455066      370.74832     -241.10182    
    110000   220000         468.41183      853.2815       24093.667      21280.844      11224.427      10056.417      3767.8301      3708.9614      10145.003      0             -7565.3778      0              0             -257.15002      226034.18      60.915064      60.915064      60.915064      0.79917285     1207.4774      442.22377      910.14334    
    111000   222000         471.45507     -8.6551158      21434.921      21463.465      11297.352      10166.113      3850.3944      3836.8496      10015.894      0             -7537.0252      0              0             -257.0345       226135.77      60.924189      60.924189      60.924189      0.79881381     238.61113      19.873107     -284.44959    
    112000   224000         467.70078     -239.58021      20347.044      21137.611      11207.388      9930.2221      3761.8578      3677.4239      10069.55       0             -7578.6096      0              0             -256.89109      226262.01      60.935524      60.935524      60.935524      0.79836813     360.02498     -401.71244     -677.05316    
    113000   226000         476.05523      84.391495      21857.029      21576.912      11407.584      10169.328      3877.4524      3751.8093      10065.748      0             -7525.6813      0              0             -255.38522      227596.15      61.055057      61.055057      61.055057      0.79368818     7.0095993      626.93625     -380.77136    
    114000   228000         466.43127      322.50183      22240.996      21184.188      11176.967      10007.22       3908.819       3711.4798      9977.1374      0             -7590.2159      0              0             -258.68571      224692.33      60.794284      60.794284      60.794284      0.80394546     143.61078      462.8003       361.09441    
    115000   230000         468.08183     -36.249772      21288.716      21409.132      11216.519      10192.612      3886.8161      3714.2199      10122.701      0             -7531.1248      0              0             -255.18664      227773.27      61.07089       61.07089       61.07089       0.79307101    -191.16742      216.67449     -134.25638    
    116000   232000         462.83019      129.56125      21518.856      21092.283      11090.676      10001.607      3876.2592      3624.2424      10082.925      0             -7581.8193      0              0             -257.46463      225757.98      60.890243      60.890243      60.890243      0.80015057     131.05286     -9.8690046      267.4999     
    117000   234000         468.05488      239.69975      21948.559      21170.641      11215.874      9954.7668      3929.3749      3772.9315      9921.9823      0             -7669.5219      0              0             -261.19823      222530.96      60.598725      60.598725      60.598725      0.8117539     -184.31671      869.44728      33.968689    
    118000   236000         476.81269      58.979317      21775.38       21581.199      11425.735      10155.464      3967.5225      3798.4671      10034.584      0             -7645.1087      0              0             -257.47166      225751.82      60.889688      60.889688      60.889688      0.80017242    -248.52058      629.9788      -204.52027    
    119000   238000         464.67609     -117.5197       20753.288      21141.694      11134.909      10006.786      3882.811       3631.7287      10079.894      0             -7587.6482      0              0             -256.48418      226620.98      60.967732      60.967732      60.967732      0.79710352     90.087227     -414.75652     -27.889816    
    120000   240000         465.57103     -244.40768      20518.982      21327.259      11156.354      10170.905      3840.6517      3743.036       10108.196      0             -7520.9791      0              0             -256.32525      226761.48      60.980329      60.980329      60.980329      0.79660962     163.62643     -531.47031     -365.37916    
    121000   242000         469.09959     -109.23568      20775.967      21136.726      11240.908      9895.8186      3744.5491      3705.9452      10009.751      0             -7564.4271      0              0             -256.67468      226452.78      60.952645      60.952645      60.952645      0.79769556    -81.998167      48.03403      -293.7429     
    122000   244000         473.45696      448.88731      22942.985      21455.15       11345.322      10109.828      3899.8854      3682.1179      10004.677      0             -7476.852       0              0             -255.75205      227269.71      61.025852      61.025852      61.025852      0.79482822     383.19811      442.40307      521.06075    
    123000   246000         462.88154      82.628895      21442.923      21167.889      11091.906      10075.983      3778.3358      3675.8338      10033.645      0             -7411.8324      0              0             -254.6728       228232.83      61.111935      61.111935      61.111935      0.79147412     153.94919      395.05885     -301.12136    
    124000   248000         471.94339      305.4293       22323.836      21306.848      11309.053      9997.7947      3758.6086      3655.6536      10110.125      0             -7526.5927      0              0             -254.58401      228312.43      61.119039      61.119039      61.119039      0.79119817    -153.60601     -33.451756      1103.3457    
    125000   250000         474.58763     -397.80907      20279.487      21601.129      11372.416      10228.712      3884.2346      3777.6062      10106.238      0             -7539.3659      0              0             -255.15111      227804.98      61.073724      61.073724      61.073724      0.79296062    -406.61492     -944.58488      157.77259    
    126000   252000         463.04997     -502.0554       19264.834      20933.448      11095.942      9837.5062      3648.1065      3764.3768      9972.3589      0             -7547.3361      0              0             -255.05408      227891.65      61.081469      61.081469      61.081469      0.79265904    -178.17709     -735.56156     -592.42755    
    127000   254000         472.85225      213.91713      22098.176      21394.071      11330.832      10063.239      3841.2468      3730.6899      10102.074      0             -7610.772       0              0             -257.53991      225691.99      60.884309      60.884309      60.884309      0.80038453     403.81404      155.71865      82.218701    
    128000   256000         473.11306      177.71124      22041.754      21457.032      11337.082      10119.95       3855.1042      3753.084       10020.291      0             -7508.5292      0              0             -257.63305      225610.4       60.876971      60.876971      60.876971      0.80067399    -442.2058       653.91332      321.42621    
    129000   258000         463.077       -557.48989      19143.997      21003.194      11096.59       9906.6041      3768.6892      3613.9208      10040.088      0             -7516.0937      0              0             -254.18394      228671.79      61.151089      61.151089      61.151089      0.78995482    -465.34819     -441.651       -765.47047    
    130000   260000         468.99655     -24.469348      21203.76       21284.428      11238.439      10045.989      3849.5499      3716.508       10074.225      0             -7594.2942      0              0             -257.13381      226048.43      60.916344      60.916344      60.916344      0.79912246    -155.92419     -247.99705      330.5132     
    131000   262000         469.80691      50.226564      21404.656      21238.937      11257.857      9981.0797      3802.8844      3686.595       10070.108      0             -7578.5079      0              0             -256.91928      226237.18      60.933295      60.933295      60.933295      0.79845574     265.67198     -670.76272      555.77043    
    132000   264000         468.4186       146.05908      21663.807      21184.605      11224.589      9960.0151      3871.7873      3684.5045      10032.882      0             -7629.1585      0              0             -258.37217      224965         60.818866      60.818866      60.818866      0.80297103     2.6677091     -29.664533      465.17407    
    133000   266000         464.90535      31.319497      20999.743      20896.702      11140.402      9756.2993      3688.3948      3626.5122      10070.29       0             -7628.8977      0              0             -257.65443      225591.67      60.875287      60.875287      60.875287      0.80074045     839.19723      22.883777     -768.12252    
    134000   268000         465.2991      -629.51234      19126.016      21211.429      11149.838      10061.591      3862.8046      3743.8818      9999.9549      0             -7545.0503      0              0             -255.88736      227149.54      61.015094      61.015094      61.015094      0.79524872    -546.80752     -500.38438     -841.34512    
    135000   270000         467.17021     -221.18905      20594.757      21325.786      11194.675      10131.112      3897.0581      3750.2017      10026.918      0             -7543.0667      0              0             -256.48704      226618.45      60.967505      60.967505      60.967505      0.79711241     132.52945     -900.62075      104.52417    
    136000   272000         472.77908     -160.85605      20699.298      21227.514      11329.078      9898.4354      3855.8633      3703.3742      9977.2469      0             -7638.049       0              0             -258.14451      225163.4       60.83674       60.83674       60.83674       0.80226352    -237.63814     -373.79375      128.86375    
    137000   274000         468.09046     -331.06995      20238.776      21336.353      11216.726      10119.627      3906.8614      3784.9349      10008.737      0             -7580.9062      0              0             -255.69439      227320.96      61.030439      61.030439      61.030439      0.79464902    -211.22751     -725.33358     -56.64876     
    138000   276000         465.21178     -128.68975      20695.158      21121.254      11147.745      9973.5085      3788.0627      3699.7809      10033.648      0             -7547.9826      0              0             -256.01962      227032.19      61.004585      61.004585      61.004585      0.79565976     66.310953     -51.762109     -400.61809    
    139000   278000         460.74271      124.61074      21480.727      21070.464      11040.654      10029.81       3774.8527      3785.6329      10045.225      0             -7575.9003      0              0             -257.47194      225751.57      60.889666      60.889666      60.889666      0.80017331     133.86679      89.638698      150.32673    
    140000   280000         465.58061     -379.02677      19768.688      21012.504      11156.583      9855.9201      3785.6347      3648.7719      10063.422      0             -7641.908       0              0             -258.31543      225014.42      60.823319      60.823319      60.823319      0.80279469    -684.1543      -118.81192     -334.11409    
    141000   282000         468.75858     -32.913037      21020.472      21127.895      11232.736      9895.1587      3770.214       3704.7004      10084.343      0             -7664.0982      0              0             -259.72083      223796.82      60.713412      60.713412      60.713412      0.8071624      281.11506     -324.50723     -55.346939    
    142000   284000         470.74         343.37004      22315          21188.278      11280.216      9908.0618      3740.1509      3769.6742      9989.9213      0             -7591.6846      0              0             -258.33433      224997.95      60.821836      60.821836      60.821836      0.80285342     482.02546      367.84949      180.23517    
    143000   286000         460.32836     -213.5269       20520.51       21226.829      11030.725      10196.104      3873.4905      3748.6482      10132.507      0             -7558.5416      0              0             -256.26435      226815.38      60.985159      60.985159      60.985159      0.79642034    -136.16588      185.94179     -690.35659    
    144000   288000         468.62728     -431.66531      19988.145      21420.146      11229.59       10190.556      3843.5022      3777.0659      10102.035      0             -7532.0469      0              0             -255.52914      227467.97      61.043593      61.043593      61.043593      0.79413544    -247.68009     -364.75046     -682.56537    
    145000   290000         472.55316     -640.0779       19277.748      21380.503      11323.665      10056.839      3978.2095      3703.2719      9993.8109      0             -7618.4536      0              0             -258.03621      225257.9       60.845249      60.845249      60.845249      0.80192695    -871.68744     -64.362227     -984.18404    
    146000   292000         464.57642      260.33978      21922.134      21062.284      11132.52       9929.764       3895.8501      3614.1551      9983.1488      0             -7563.39        0              0             -256.65783      226467.65      60.953978      60.953978      60.953978      0.7976432      664.60946     -179.34563      295.7555     
    147000   294000         469.51277      236.05011      21968.84       21199.309      11250.809      9948.4999      3777.3297      3757.2206      10086.674      0             -7672.7243      0              0             -260.02445      223535.5       60.689771      60.689771      60.689771      0.80810601     448.92799      199.387        59.835331    
    148000   296000         467.23329     -186.18047      20567.583      21184.088      11196.186      9987.9023      3849.6077      3736.5402      10004.372      0             -7602.6176      0              0             -255.99647      227052.72      61.006424      61.006424      61.006424      0.79558781    -206.78623     -480.81007      129.05488    
    149000   298000         465.03689     -44.980521      20823.035      20970.35       11143.554      9826.7955      3818.4417      3690.0281      9952.1798      0             -7633.8542      0              0             -258.82966      224567.37      60.783012      60.783012      60.783012      0.80439283     443.79494     -5.5904785     -573.14603    
    150000   300000         467.31647     -8.4354365      21076.668      21104.219      11198.179      9906.0396      3834.5352      3688.744       10062.037      0             -7679.2767      0              0             -259.53967      223953.02      60.727534      60.727534      60.727534      0.80659941    -143.00081      227.30355     -109.60904    
    151000   302000         467.65726     -359.91841      20079.831      21265.478      11206.346      10059.132      3810.9039      3802.5072      10010.214      0             -7564.4926      0              0             -257.32705      225878.68      60.901092      60.901092      60.901092      0.799723      -392.73313     -792.95768      105.93559    
    152000   304000         474.2226       40.950254      21291.701      21157.202      11363.669      9793.5331      3758.2161      3714.6719      9967.5229      0             -7646.8778      0              0             -258.0926       225208.69      60.840818      60.840818      60.840818      0.80210218     20.162906     -94.695832      197.38369    
    153000   306000         462.35856     -158.33343      20469.952      20989.292      11079.374      9909.9174      3844.0981      3662.6977      10044.263      0             -7641.141       0              0             -258.43864      224907.14      60.813651      60.813651      60.813651      0.80317761     284.84365     -429.81161     -330.03232    
    154000   308000         462.28218      200.59713      21630.386      20967.892      11077.544      9890.3478      3734.1673      3720.8049      10014.251      0             -7578.8751      0              0             -256.67231      226454.87      60.952832      60.952832      60.952832      0.7976882      264.21503      175.48587      162.09048    
    155000   310000         465.28445     -191.69013      20428.415      21061.323      11149.487      9911.8363      3774.0482      3732.8964      9968.9381      0             -7564.0464      0              0             -256.7415       226393.84      60.947356      60.947356      60.947356      0.79790322     388.11342     -190.08909     -773.09472    
    156000   312000         473.1345       100.36814      21568.478      21240.671      11337.595      9903.0756      3797.9675      3834.9818      9965.3768      0             -7695.2506      0              0             -259.54611      223947.47      60.727032      60.727032      60.727032      0.80661941     178.08243      241.54239     -118.5204     
    157000   314000         468.74004     -108.45322      20697.853      21055.11       11232.292      9822.8179      3770.6599      3657.4727      9991.4552      0             -7596.7699      0              0             -257.33472      225871.95      60.900487      60.900487      60.900487      0.79974684     280.31328     -766.58918      160.91625    
    158000   316000         463.07917     -69.382642      20652.64       20879.819      11096.642      9783.1773      3738.4483      3709.7173      10009.662      0             -7674.6501      0              0             -258.89194      224513.35      60.778137      60.778137      60.778137      0.80458637    -220.69095     -15.554585      28.097605    
    159000   318000         462.31315     -539.06886      19232.156      21004.918      11078.286      9926.6322      3755.1622      3770.0427      10029.789      0             -7628.3614      0              0             -257.76877      225491.61      60.866285      60.866285      60.866285      0.8010958     -284.07058     -208.53503     -1124.601     
    160000   320000         464.89248     -9.147458       20913.055      20943.112      11140.094      9803.0184      3864.4621      3605.9326      10005.907      0             -7673.2832      0              0             -257.98394      225303.54      60.849358      60.849358      60.849358      0.8017645      352.44844     -349.64956     -30.241252    
    161000   322000         458.65385     -436.3479       19643.271      21081          10990.599      10090.401      3902.0671      3751.5388      10096.335      0             -7659.5405      0              0             -257.27203      225926.98      60.905433      60.905433      60.905433      0.79955203    -908.23026      91.894211     -492.70765    
    162000   324000         469.96925     -151.12116      20631.693      21123.022      11261.747      9861.2748      3816.1483      3708.1518      10050.585      0             -7713.6103      0              0             -260.72906      222931.4       60.635051      60.635051      60.635051      0.8102958      337.87398     -222.39957     -568.83789    
    163000   326000         461.19176     -23.139504      21007.108      21082.452      11051.415      10031.037      3932.9006      3714.8162      10101.502      0             -7718.1818      0              0             -260.34395      223261.17      60.664934      60.664934      60.664934      0.80909896     307.77011     -137.70438     -239.48425    
    164000   328000         466.83288      572.39758      22890.098      21014.081      11186.591      9827.49        3740.6907      3722.389       10028.254      0             -7663.8432      0              0             -258.64117      224731.03      60.797774      60.797774      60.797774      0.80380703     467.99011      684.6754       564.52724    
    165000   330000         464.67379     -231.66086      20187.864      20945.439      11134.853      9810.5852      3744.6545      3662.1337      10105.953      0             -7702.1561      0              0             -259.21721      224231.62      60.752705      60.752705      60.752705      0.80559727     286.84891      70.96571      -1052.7972    
    166000   332000         467.6008       256.12884      21702.011      20869.41       11204.993      9664.4176      3707.1272      3662.1214      10004.741      0             -7709.5717      0              0             -260.7703       222896.15      60.631855      60.631855      60.631855      0.81042396    -70.58922       576.60968      262.36607    
    167000   334000         468.31496     -596.29894      19101.285      21048.611      11222.106      9826.5055      3809.0843      3650.0346      10064.414      0             -7697.0277      0              0             -259.57439      223923.07      60.724826      60.724826      60.724826      0.80670731    -828.49129     -555.93953     -404.46598    
    168000   336000         472.95388     -26.583949      21040.364      21127.961      11333.267      9794.6936      3681.2005      3701.6038      10050.742      0             -7638.8531      0              0             -257.2592       225938.26      60.906446      60.906446      60.906446      0.79951213     258.13741      264.32893     -602.21819    
    169000   338000         464.84216      310.66652      22069.668      21046.558      11138.888      9907.6696      3833.9319      3636.8715      10029.892      0             -7593.0258      0              0             -257.40013      225814.55      60.895328      60.895328      60.895328      0.79995011     27.081406      912.98032     -8.0621689    
    170000   340000         466.67518     -566.07133      19341.747      21201.542      11182.812      10018.729      3828.0334      3726.3792      10109.044      0             -7644.7274      0              0             -258.01375      225277.51      60.847015      60.847015      60.847015      0.80185715    -250.4998      -1232.8338     -214.88035    
    171000   342000         472.55595     -478.28107      19505.035      21072.065      11323.732      9748.3329      3768.9593      3676.83        10027.335      0             -7724.7915      0              0             -258.72745      224656.08      60.791015      60.791015      60.791015      0.80407518    -1111.3198      325.58772     -649.11115    
    172000   344000         466.01478     -88.387881      20789.576      21081.452      11166.987      9914.4644      3794.7108      3713.7222      10015.577      0             -7609.5459      0              0             -256.70321      226427.61      60.950386      60.950386      60.950386      0.79778422     614.76098     -295.38777     -584.53686    
    173000   346000         472.85748     -233.50201      20485.694      21252.256      11330.957      9921.2987      3782.7073      3675.4647      10059.487      0             -7596.3601      0              0             -258.2141       225102.72      60.831274      60.831274      60.831274      0.80247978    -210.02067     -24.877437     -465.60793    
    174000   348000         463.78366     -514.52543      19344.569      21042.366      11113.524      9928.8427      3823.0572      3580.9285      10107.22       0             -7582.3629      0              0             -256.89614      226257.56      60.935124      60.935124      60.935124      0.79838383     249.77811     -1010.828      -782.52644    
    175000   350000         461.59204     -64.116094      20633.26       20845.049      11061.006      9784.0427      3766.8654      3696.9978      9948.8694      0             -7628.6899      0              0             -256.62606      226495.68      60.956493      60.956493      60.956493      0.79754447    -177.85012     -51.315368      36.81721     
    176000   352000         459.22703     -456.00207      19476.288      20974.315      11004.334      9969.9807      3875.2153      3714.5394      10003.178      0             -7622.9516      0              0             -258.03812      225256.23      60.8451        60.8451        60.8451        0.80193287    -316.72637     -198.61717     -852.66268    
    177000   354000         468.35901      412.49456      22236.444      20889.974      11223.162      9666.8122      3782.5866      3516.0669      10091.103      0             -7722.9442      0              0             -259.69164      223821.97      60.715686      60.715686      60.715686      0.8070717      901.76494      692.91134     -357.1926     
    178000   356000         466.86438      333.55966      22242.899      21148.76       11187.346      9961.4145      3739.3035      3717.4974      10087.395      0             -7582.7809      0              0             -258.42685      224917.39      60.814576      60.814576      60.814576      0.80314099     472.31886     -90.921876      619.28198    
    179000   358000         463.69188     -138.67467      20587          21044.469      11111.324      9933.1448      3806.7816      3677.9129      10100.957      0             -7652.5063      0              0             -256.96398      226197.83      60.929761      60.929761      60.929761      0.79859466    -382.10981      87.016252     -120.93045    
    180000   360000         463.79777     -220.26497      19865.131      20579.871      11113.862      9466.0093      3723.2606      3560.2436      9959.1805      0             -7776.6755      0              0             -261.23656      222498.31      60.595761      60.595761      60.595761      0.81187302    -402.92195     -515.21477      257.34182    
    181000   362000         461.24108     -377.89637      19867.788      21115.025      11052.596      10062.429      3872.8172      3750.2081      10027.554      0             -7588.1501      0              0             -256.83851      226308.33      60.939682      60.939682      60.939682      0.79820471     115.67839     -657.90695     -591.46056    
    182000   364000         464.35877      29.506334      20950.697      20853.561      11127.305      9726.2567      3806.2717      3586.4532      9980.5466      0             -7647.0148      0              0             -257.49711      225729.5       60.887682      60.887682      60.887682      0.80025153    -336.3704      -54.825702      479.71511    
    183000   366000         467.04794      553.24897      22780.169      20954.408      11191.745      9762.6638      3795.9233      3609.7804      9981.7305      0             -7624.7704      0              0             -256.86997      226280.61      60.937193      60.937193      60.937193      0.7983025      480.97698      532.41929      646.35063    
    184000   368000         471.56833     -495.74281      19631.392      21260.508      11300.065      9960.4422      3907.4548      3652.7552      10074.024      0             -7673.7916      0              0             -257.95326      225330.33      60.851771      60.851771      60.851771      0.80166916    -509.17648     -153.06306     -824.98887    
    185000   370000         462.95969     -98.026314      20682.167      21004.623      11093.779      9910.8444      3728.5244      3791.1595      10079.709      0             -7688.5486      0              0             -257.69634      225554.98      60.871987      60.871987      60.871987      0.8008707      407.01526     -52.150318     -648.94388    
    186000   372000         466.75179     -615.2033       19081.657      21099.2        11184.648      9914.5525      3769.7307      3714.4019      10079.62       0             -7649.2003      0              0             -258.48319      224868.38      60.810158      60.810158      60.810158      0.80331605    -836.0238      -291.31419     -718.27192    
    187000   374000         461.95259     -184.84907      20026.745      20632.873      11069.646      9563.2273      3711.616       3574.3454      9968.5591      0             -7691.2932      0              0             -258.51704      224838.93      60.807503      60.807503      60.807503      0.80342126    -398.62926      46.83285      -202.7508     
    188000   376000         465.10391      23.054735      21099.382      21024.295      11145.16       9879.1344      3828.3304      3663.3081      10072.295      0             -7684.7987      0              0             -260.27377      223321.37      60.670387      60.670387      60.670387      0.80888083    -137.2013      -74.136222      280.50173    
    189000   378000         467.67121     -132.91091      20764.566      21198.038      11206.68       9991.3583      3743.6134      3837.3889      10069.224      0             -7658.8676      0              0             -259.91789      223627.14      60.698064      60.698064      60.698064      0.80777485     34.966743     -439.0238       5.3243379    
    190000   380000         458.0292      -46.24882       20678.823      20829.854      10975.631      9854.2226      3635.2538      3758.1861      10098.798      0             -7638.0155      0              0             -259.58121      223917.18      60.724294      60.724294      60.724294      0.80672852    -108.06948      243.26909     -273.94607    
    191000   382000         458.06318     -324.96309      19754.751      20822.002      10976.445      9845.5571      3780.8072      3713.1303      10021.628      0             -7670.0082      0              0             -258.1095       225193.94      60.83949       60.83949       60.83949       0.8021547     -256.18969     -433.72408     -284.97551    
    192000   384000         464.83993      48.595359      21179.157      21020.224      11138.835      9881.3898      3740.6198      3724.6855      10105.721      0             -7689.636       0              0             -259.18979      224255.34      60.754847      60.754847      60.754847      0.80551204     121.42567      108.19621     -83.835797    
    193000   386000         469.62597      178.3378       21693.246      21106.173      11253.521      9852.6513      3768.4671      3738.9308      9955.6627      0             -7610.4092      0              0             -257.50629      225721.45      60.886958      60.886958      60.886958      0.80028006     680.97483      487.82596     -633.78738    
    194000   388000         463.79452     -287.26285      20031.882      20972.764      11113.784      9858.9803      3727.6996      3715.1792      10092.126      0             -7676.0248      0              0             -258.80985      224584.55      60.784562      60.784562      60.784562      0.80433128    -329.51042     -205.80933     -326.46879    
    195000   390000         462.82561     -504.36647      19163.206      20833.566      11090.566      9742.9995      3750.8189      3616.956       9948.9263      0             -7573.7018      0              0             -255.96039      227084.73      61.009291      61.009291      61.009291      0.79547568    -884.79267     -342.10119     -286.20554    
    196000   392000         462.77543      435.85522      22273.961      20839.868      11089.364      9750.5044      3682.906       3673.9131      9977.0679      0             -7583.3826      0              0             -257.63296      225610.47      60.876978      60.876978      60.876978      0.80067372     153.35173      639.05086      515.16307    
    197000   394000         458.38133      658.53603      23124.088      20977.689      10984.069      9993.6198      3849.122       3761.9013      10058.009      0             -7675.4127      0              0             -260.07913      223488.5       60.685518      60.685518      60.685518      0.80827593     201.41118      1005.8754      768.32149    
    198000   396000         461.42651     -298.30341      19989.153      20965.696      11057.04       9908.6559      3844.9989      3623.9238      10089.022      0             -7649.2888      0              0             -258.94261      224469.41      60.774173      60.774173      60.774173      0.80474384    -836.70174      29.69901      -87.907499    
    199000   398000         460.53724     -409.24501      19548.6        20903.594      11035.73       9867.8632      3755.6601      3685.0727      10000.779      0             -7573.6483      0              0             -256.02512      227027.31      61.004148      61.004148      61.004148      0.79567687    -745.25855     -71.121241     -411.35522    
[...]
   1958000   3916000        300.77386     -5.4428904      11869.282      11885.351      7207.3635      4677.9875      2489.1626      2424.5222      8789.6454      0             -9025.3427      0              0             -287.13051      202433.02      58.716539      58.716539      58.716539      0.89234643     227.86678      214.49876     -458.69422    
   1959000   3918000        303.9423       83.638354      12095.713      11848.185      7283.288       4564.8972      2469.5278      2403.6105      8692.3359      0             -9000.5769      0              0             -286.42927      202928.62      58.764417      58.764417      58.764417      0.8901671      102.14144      61.671918      87.101703    
   1960000   3920000        303.8465       12.867002      11986.693      11948.572      7280.9923      4667.5798      2489.9875      2397.6108      8762.2597      0             -8982.2781      0              0             -286.12041      203147.67      58.785554      58.785554      58.785554      0.88920725    -158.01258      315.51037     -118.89679    
   1961000   3922000        304.9961       216.80392      12629.927      11992.854      7308.5398      4684.3147      2490.4716      2408.5305      8840.2098      0             -9054.8972      0              0             -288.47939      201486.47      58.62488       58.62488       58.62488       0.89653849    -218.6612       213.84268      655.23029    
   1962000   3924000        304.94402      35.47476       12034.318      11929.963      7307.2918      4622.6708      2458.3458      2417.929       8804.4885      0             -9058.0926      0              0             -288.16506      201706.25      58.646188      58.646188      58.646188      0.89556162    -47.942413     -70.995331      225.36202    
   1963000   3926000        302.07245     -46.847821      11807.116      11945.361      7238.4811      4706.8795      2495.8936      2405.0211      8827.243       0             -9021.2783      0              0             -287.26229      202340.15      58.707559      58.707559      58.707559      0.89275597     531.21657     -301.28636     -370.47367    
   1964000   3928000        301.39814      23.556134      11996.559      11926.872      7222.323       4704.5489      2449.3285      2475.2981      8799.3276      0             -9019.4052      0              0             -286.54233      202848.54      58.756687      58.756687      58.756687      0.89051849     371.88952      139.40344     -440.62456    
   1965000   3930000        301.22804     -194.0238       11273.134      11845.34       7218.2468      4627.0931      2457.8521      2413.8758      8785.5456      0             -9030.1804      0              0             -287.43495      202218.61      58.695801      58.695801      58.695801      0.89329257    -588.3801      -456.664        462.97269    
   1966000   3932000        302.11869      520.80186      13325.244      11792.587      7239.5891      4552.998       2422.6         2437.6905      8760.9075      0             -9068.2         0              0             -288.04763      201788.48      58.654156      58.654156      58.654156      0.89519668     763.37184      1236.1688     -437.13509    
   1967000   3934000        311.06985      147.45902      12499.597      12062.758      7454.0836      4608.6743      2461.2595      2402.5762      8738.419       0             -8993.5804      0              0             -286.1449       203130.29      58.783877      58.783877      58.783877      0.88928333     366.45022      269.26061     -193.33378    
   1968000   3936000        300.92715     -39.477916      11664.262      11780.45       7211.0366      4569.4133      2433.457       2389.4265      8779.5938      0             -9033.0639      0              0             -288.02483      201804.46      58.655704      58.655704      58.655704      0.89512581    -95.665243     -616.37336      593.60485    
   1969000   3938000        302.1195       4.4150509      11808.159      11795.196      7239.6085      4555.5871      2474.5802      2437.5601      8709.8991      0             -9066.4522      0              0             -288.71327      201323.25      58.609045      58.609045      58.609045      0.89726534     310.67986     -301.86471      4.4300074    
   1970000   3940000        302.38433      302.50355      12819.856      11931.148      7245.9547      4685.1932      2538.5745      2448.5372      8770.8312      0             -9072.7497      0              0             -288.54129      201443.24      58.620687      58.620687      58.620687      0.89673088     542.36727      277.15204      87.991343    
   1971000   3942000        303.50909      77.401345      11962.448      11735.152      7272.907       4462.2447      2514.8856      2324.6946      8750.6361      0             -9127.9716      0              0             -288.66396      201357.64      58.612382      58.612382      58.612382      0.89711211     355.06457      212.56743     -335.42796    
   1972000   3944000        304.45483     -41.788648      11744.406      11867.949      7295.5695      4572.3791      2465.5023      2358.5382      8765.5871      0             -9017.2485      0              0             -286.73264      202713.91      58.743684      58.743684      58.743684      0.89110994    -182.94692     -640.64012      698.2211     
   1973000   3946000        299.8787      -90.666274      11404.518      11669.74       7185.9128      4483.8272      2443.5993      2379.5167      8718.7794      0             -9058.0682      0              0             -289.7826       200580.35      58.536865      58.536865      58.536865      0.9005886      116.3163       177.93375     -566.24887    
   1974000   3948000        302.41102     -214.40836      11218.155      11848.038      7246.5942      4601.444       2501.2966      2465.3701      8718.7001      0             -9083.9228      0              0             -288.54819      201438.43      58.62022       58.62022       58.62022       0.89675232    -302.0088       126.57683     -467.7931     
   1975000   3950000        306.12007      196.03807      12556.27       11977.366      7335.4732      4641.8926      2444.3045      2422.5948      8804.7447      0             -9029.7513      0              0             -287.05824      202483.98      58.721466      58.721466      58.721466      0.89212183     384.71914     -2.6276121      206.02269    
   1976000   3952000        302.42703     -56.931902      11552.236      11719.931      7246.978       4472.9527      2386.9993      2390.9926      8735.6554      0             -9040.6946      0              0             -287.78819      201970.4       58.671777      58.671777      58.671777      0.89439037    -634.16146      670.08365     -206.7179     
   1977000   3954000        296.62292     -174.9957       11166.433      11680.29       7107.8955      4572.3942      2492.6558      2368.9621      8788.3872      0             -9077.611       0              0             -288.68369      201343.88      58.611047      58.611047      58.611047      0.89717343    -424.17482     -91.895802     -8.9164757    
   1978000   3956000        304.30228     -632.01062      10063.801      11921.236      7291.9139      4629.3226      2481.8921      2436.7289      8809.1634      0             -9098.4619      0              0             -288.43448      201517.85      58.627922      58.627922      58.627922      0.89639891    -774.05318     -425.4108      -696.56787    
   1979000   3958000        298.51173     -444.36968      10560.572      11876.115      7153.1567      4722.9586      2457.7216      2458.3296      8812.1899      0             -9005.2825      0              0             -286.33597      202994.73      58.770798      58.770798      58.770798      0.88987716    -428.66422     -320.15792     -584.28689    
   1980000   3960000        305.7885      -95.43675       11616.345      11896.762      7327.5278      4569.2338      2405.9593      2408.0014      8814.2448      0             -9058.9717      0              0             -288.50161      201470.95      58.623375      58.623375      58.623375      0.89660754     11.450992     -344.35404      46.592802    
   1981000   3962000        302.55261     -249.40086      11257.571      11989.545      7249.987       4739.5579      2455.8489      2459.2144      8885.605       0             -9061.1105      0              0             -288.82767      201243.51      58.601306      58.601306      58.601306      0.89762088    -76.155972     -315.99181     -356.0548     
   1982000   3964000        301.74104      400.54668      12961.186      11784.46       7230.5396      4553.9208      2369.4666      2422.8596      8858.7545      0             -9097.1599      0              0             -288.54556      201440.27      58.620398      58.620398      58.620398      0.89674413     192.50837      632.64929      376.48238    
   1983000   3966000        301.15894      155.26924      12249.097      11794.267      7216.591       4577.6764      2406.0479      2399.7689      8835.4946      0             -9063.635       0              0             -289.38301      200857.32      58.563796      58.563796      58.563796      0.89934675     313.04809     -10.993368      163.75298    
   1984000   3968000        307.0823       287.45255      12780.205      11935.539      7358.5309      4577.0079      2440.2007      2422.1307      8809.7113      0             -9095.0348      0              0             -288.4814       201485.07      58.624744      58.624744      58.624744      0.89654474     268.58283      800.24675     -206.47192    
   1985000   3970000        300.64409      554.69358      13434.322      11804.748      7204.2538      4600.494       2484.1786      2373.2175      8811.8695      0             -9068.7716      0              0             -288.54629      201439.76      58.620349      58.620349      58.620349      0.89674641     647.32443      478.49666      538.25967    
   1986000   3972000        301.99937      85.116706      12053.145      11803.776      7236.7299      4567.0463      2410.4395      2462.6382      8794.9767      0             -9101.0081      0              0             -289.34011      200887.1       58.56669       58.56669       58.56669       0.89921344    -59.21802      -161.46865      476.03679    
   1987000   3974000        303.45003     -387.68801      10725.167      11871.102      7271.4918      4599.6101      2440.7465      2395.3901      8782.6912      0             -9019.2178      0              0             -286.78681      202675.62      58.739986      58.739986      58.739986      0.89127828    -483.47178     -222.93328     -456.65897    
   1988000   3976000        301.97466     -96.341603      11525.039      11809.35       7236.1378      4573.2122      2410.7312      2383.7836      8842.7862      0             -9064.0888      0              0             -287.24772      202350.42      58.708552      58.708552      58.708552      0.89271068    -269.03461     -25.193265      5.2030684    
   1989000   3978000        297.35543      351.51418      12783.038      11748.981      7125.4484      4623.5326      2393.3781      2435.8724      8827.8436      0             -9033.5615      0              0             -288.16096      201709.12      58.646466      58.646466      58.646466      0.89554887     557.98328      381.773        114.78624    
   1990000   3980000        303.15319      12.94158       11808.938      11770.779      7264.3787      4506.3998      2359.3355      2352.5937      8841.7046      0             -9047.2339      0              0             -287.48683      202182.12      58.692271      58.692271      58.692271      0.89345379     2.0309821     -60.361551      97.15531     
   1991000   3982000        301.46789     -113.21697      11489.702      11822.681      7223.9942      4598.6868      2409.2713      2379.0196      8888.0196      0             -9077.6237      0              0             -288.22442      201664.71      58.642161      58.642161      58.642161      0.8957461     -260.59841      99.289715     -178.34222    
   1992000   3984000        302.82419     -115.94854      11590.293      11931.321      7256.4949      4674.8264      2425.7514      2476.5216      8836.8923      0             -9064.339       0              0             -288.21128      201673.9       58.643052      58.643052      58.643052      0.89570527     107.9422      -469.49455      13.706732    
   1993000   3986000        301.66756      89.371224      12183.187      11919.768      7228.7789      4690.9893      2450.3474      2407.3223      8859.8483      0             -9026.5288      0              0             -287.59923      202103.09      58.684623      58.684623      58.684623      0.89380313    -247.47357      417.02772      98.559523    
   1994000   3988000        301.54197      346.07189      12828.986      11807.711      7225.7695      4581.9414      2401.2902      2430.1372      8780.7328      0             -9030.2188      0              0             -287.25015      202348.7       58.708386      58.708386      58.708386      0.89271825     463.70172      173.35469      401.15925    
   1995000   3990000        300.58236     -199.55155      11157.039      11743.826      7202.7745      4541.0513      2428.1998      2468.6451      8727.5014      0             -9083.295       0              0             -288.27816      201627.12      58.638517      58.638517      58.638517      0.89591311    -312.23788     -501.4274       215.01062    
   1996000   3992000        301.86359     -544.81242      10192.017      11794.286      7233.4764      4560.8095      2480.9763      2379.0668      8747.7089      0             -9046.9426      0              0             -288.23597      201656.63      58.641378      58.641378      58.641378      0.895782      -493.28545     -228.44375     -912.70806    
   1997000   3994000        300.7926       385.84097      12755.518      11621.046      7207.8125      4413.2334      2423.1233      2341.4634      8715.0435      0             -9066.3968      0              0             -288.30438      201608.78      58.63674       58.63674       58.63674       0.8959946      667.17958      397.14012      93.203211    
   1998000   3996000        302.51604      513.91123      13167.108      11657.88       7249.1107      4408.7691      2420.8404      2357.2856      8695.9911      0             -9065.3479      0              0             -288.6489       201368.15      58.613402      58.613402      58.613402      0.8970653      728.43906      195.44015      617.8545     
   1999000   3998000        305.01001     -55.488295      11705.167      11868.443      7308.8731      4559.57        2455.1691      2393.2881      8764.5687      0             -9053.4559      0              0             -288.08172      201764.61      58.651843      58.651843      58.651843      0.89530259    -54.901739     -170.60954      59.046397    
   2000000   4000000        300.02185     -351.73836      10656.674      11691.356      7189.3432      4502.0132      2474.9829      2421.1201      8674.8125      0             -9068.9022      0              0             -288.1704       201702.52      58.645826      58.645826      58.645826      0.89557821    -418.1222      -549.82155     -87.271332    
Loop time of 3392.66 on 1 procs for 2000000 steps with 8040 atoms

Performance: 101.867 ns/day, 0.236 hours/ns, 589.508 timesteps/s, 4.740 Matom-step/s
99.5% CPU use with 1 MPI tasks x 1 OpenMP threads

MPI task timing breakdown:
Section |  min time  |  avg time  |  max time  |%varavg| %total
---------------------------------------------------------------
Pair    | 351.82     | 351.82     | 351.82     |   0.0 | 10.37
Bond    | 2395.2     | 2395.2     | 2395.2     |   0.0 | 70.60
Neigh   | 1.2671     | 1.2671     | 1.2671     |   0.0 |  0.04
Comm    | 212.37     | 212.37     | 212.37     |   0.0 |  6.26
Output  | 32.17      | 32.17      | 32.17      |   0.0 |  0.95
Modify  | 310.69     | 310.69     | 310.69     |   0.0 |  9.16
Other   |            | 89.1       |            |       |  2.63

Nlocal:           8040 ave        8040 max        8040 min
Histogram: 1 0 0 0 0 0 0 0 0 0
Nghost:          21636 ave       21636 max       21636 min
Histogram: 1 0 0 0 0 0 0 0 0 0
Neighs:              0 ave           0 max           0 min
Histogram: 1 0 0 0 0 0 0 0 0 0

Total # of neighbors = 0
Ave neighs/atom = 0
Ave special neighs/atom = 5.9701493
Neighbor list builds = 63881
Dangerous builds = 0

# --- Cleanup ---
unfix npt_fix

undump dump_npt

# --- Write Output ---
write_dump all custom npt_cool_last.dump id type mol x y z xu yu zu vx vy vz modify sort id
write_data /home/arz2/PolyJarvis/data/cis-PBD2/lammps/equil/npt_cool/npt_cool_out.data
System init for write_data ...
Generated 3 of 3 mixed pair_coeff terms from arithmetic mixing rule

print "STAGE COMPLETE: NPT T=480.0->300.0K P=1.0->1.0atm steps=2000000"
STAGE COMPLETE: NPT T=480.0->300.0K P=1.0->1.0atm steps=2000000
quit
.2671     | 1.2671     | 1.2671     |   0.0 |  0.04
Comm    | 212.37     | 212.37     | 212.37     |   0.0 |  6.26
Output  | 32.17      | 32.17      | 32.17      |   0.0 |  0.95
Modify  | 310.69     | 310.69     | 310.69     |   0.0 |  9.16
Other   |            | 89.1       |            |       |  2.63

Nlocal:           8040 ave        8040 max        8040 min
Histogram: 1 0 0 0 0 0 0 0 0 0
Nghost:          21636 ave       21636 max       21636 min
Histogram: 1 0 0 0 0 0 0 0 0 0
Neighs:              0 ave           0 max           0 min
Histogram: 1 0 0 0 0 0 0 0 0 0

Total # of neighbors = 0
Ave neighs/atom = 0
Ave special neighs/atom = 5.9701493
Neighbor list builds = 63881
Dangerous builds = 0
System init for write_data ...


---------------------------------------------------------------------
      Device Time Info (average): 
---------------------------------------------------------------------
Data Transfer:   178.9182 s.
Neighbor copy:   10.1336 s.
Neighbor build:  34.6810 s.
Force calc:      1097.1306 s.
Device Overhead: 64.0064 s.
CPU Neighbor:    20.4188 s.
CPU Cast/Pack:   149.6978 s.
CPU Driver_Time: 28.3362 s.
CPU Idle_Time:   3.6668 s.
Average split:   1.0000.
Max Mem / Proc:  94.80 MB.
Prefetch mode:   None.
Vector width:    32.
Lanes / atom:    4.
Pair block:      256.
Neigh block:     128.
Neigh mode:      Hybrid (binning on host) with subgroup support.
Neigh sorting:   Unavailable or disabled.
---------------------------------------------------------------------


--------------------------------------------------------------------------
- Using acceleration for lj/cut:
-  with 1 proc(s) per device.
-  with 1 thread(s) per proc.
-  Horizontal vector operations: ENABLED
-  Shared memory system: No
--------------------------------------------------------------------------
Device 0: Quadro RTX 6000, 72 CUs, 23/24 GB, 1.8 GHZ (Mixed Precision)
--------------------------------------------------------------------------

Initializing Device and compiling on process 0...Done.
Initializing Device 0 on core 0...Done.

Generated 3 of 3 mixed pair_coeff terms from arithmetic mixing rule
STAGE COMPLETE: NPT T=480.0->300.0K P=1.0->1.0atm steps=2000000
Cuda driver error 4 in call at file '/home/arz2/lammps/lib/gpu/geryon/nvd_timer.h' in line 98.
Cuda driver error 4 in call at file '/home/arz2/lammps/lib/gpu/geryon/nvd_timer.h' in line 99.
Cuda driver error 4 in call at file '/home/arz2/lammps/lib/gpu/geryon/nvd_timer.h' in line 98.
Cuda driver error 4 in call at file '/home/arz2/lammps/lib/gpu/geryon/nvd_timer.h' in line 99.
Cuda driver error 4 in call at file '/home/arz2/lammps/lib/gpu/geryon/nvd_timer.h' in line 98.
Cuda driver error 4 in call at file '/home/arz2/lammps/lib/gpu/geryon/nvd_timer.h' in line 99.
