LAMMPS data file via write_data, version 22 Jul 2025, timestep = 2000000, units = real

8720 atoms
7 atom types
9480 bonds
7 bond types
15104 angles
9 angle types
22512 dihedrals
13 dihedral types
4864 impropers
5 improper types

5.137087481883707 51.918441068124764 xlo xhi
5.137087481883707 51.918441068124764 ylo yhi
5.137087481883707 51.918441068124764 zlo zhi

Masses

1 12.01115
2 12.01115
3 1.00797
4 1.00797
5 15.9994
6 15.9994
7 15.9994

Pair Coeffs # lj/class2/coul/long/kk

1 0.12 3.308
2 0.064 4.01
3 0.02 2.995
4 0.013 1.098
5 0.267 3.3
6 0.24 3.535
7 0.24 3.535

Bond Coeffs # class2/kk

1 1.489 339.357 -655.724 670.236
2 1.216 823.795 -1878.79 2303.53
3 1.417 470.836 -627.618 1327.63
4 1.0982 372.825 -803.453 894.317
5 1.3768 428.88 -738.235 1114.97
6 1.3768 428.88 -738.235 1114.97
7 0.965 532.506 -1282.9 2004.77

Angle Coeffs # class2/kk

1 108.4 43.9594 -8.3924 -9.3379
2 110.588 34.6214 -7.0939 -7.4032
3 119.3 65.1016 -17.9766 0
4 118.9 61.0226 -34.9931 0
5 117.94 35.1558 -12.4682 0
6 123.42 73.6781 -21.6787 0
7 123.42 73.6781 -21.6787 0
8 109.5 60 0 0
9 108.19 53.125 -8.5016 0

BondBond Coeffs

1 0 1.489 1.417
2 0 1.489 1.489
3 0 1.489 1.216
4 68.2856 1.417 1.417
5 1.0795 1.417 1.0982
6 48.4754 1.417 1.3768
7 48.4754 1.417 1.3768
8 0 1.3768 1.3768
9 20.6577 1.3768 0.965

BondAngle Coeffs

1 0 0 1.489 1.417
2 0 0 1.489 1.489
3 0 0 1.489 1.216
4 28.8708 28.8708 1.417 1.417
5 20.0033 24.2183 1.417 1.0982
6 58.479 107.681 1.417 1.3768
7 58.479 107.681 1.417 1.3768
8 0 0 1.3768 1.3768
9 53.8614 23.9224 1.3768 0.965

Dihedral Coeffs # class2/kk

1 0 0 4.6282 0 0 0
2 0 0 2.167 0 0 0
3 0 0 2.5 0 0 0
4 0 0 0.9063 0 0 0
5 8.3667 0 1.1932 0 0 0
6 0 0 3.9661 0 0 0
7 0 0 4.8498 0 0 0
8 0 0 4.8498 0 0 0
9 0 0 1.8 0 0 0
10 -0.69 0 0.5097 0 0.0095 0
11 0 0 1.8769 0 0 0
12 0 0 1.7234 0 0 0
13 0 0 1.7234 0 0 0

AngleAngleTorsion Coeffs

1 0 108.4 118.9
2 0 108.4 117.94
3 0 110.588 108.4
4 0 108.4 119.3
5 0 118.9 118.9
6 -4.8141 118.9 117.94
7 -21.0247 118.9 123.42
8 -21.0247 118.9 123.42
9 0 123.42 109.5
10 -4.6072 123.42 108.19
11 0.3598 117.94 117.94
12 4.2296 117.94 123.42
13 4.2296 117.94 123.42

EndBondTorsion Coeffs

1 0 0 0 0 0 0 1.489 1.417
2 0 0 0 0 0 0 1.489 1.0982
3 0 0 0 0 0 0 1.489 1.417
4 0 0 0 0 0 0 1.417 1.216
5 -0.1185 6.3204 0 -0.1185 6.3204 0 1.417 1.417
6 0 -6.8958 0 0 -0.4669 0 1.417 1.0982
7 0 0.2655 0 0 4.8905 0 1.417 1.3768
8 0 0.2655 0 0 4.8905 0 1.417 1.3768
9 0 0 0 0 0 0 1.417 1.3768
10 0.9 -1.3456 1.19 3.4132 0.5873 -0.1323 1.417 0.965
11 0 -0.689 0 0 -0.689 0 1.0982 1.0982
12 0 -1.5867 0 0 4.2641 0 1.0982 1.3768
13 0 -1.5867 0 0 4.2641 0 1.0982 1.3768

MiddleBondTorsion Coeffs

1 0 0 0 1.417
2 0 0 0 1.417
3 0 0 0 1.489
4 0 0 0 1.489
5 27.5989 -2.312 0 1.417
6 0 -1.1521 0 1.417
7 0 4.8255 0 1.417
8 0 4.8255 0 1.417
9 0 0 0 1.3768
10 1.158 3.2697 3.5132 1.3768
11 0 4.8228 0 1.417
12 0 5.5432 0 1.417
13 0 5.5432 0 1.417

BondBond13 Coeffs

1 0 1.489 1.417
2 0 1.489 1.0982
3 0 1.489 1.417
4 0 1.417 1.216
5 53 1.417 1.417
6 -6.2741 1.417 1.0982
7 -2.2436 1.417 1.3768
8 -2.2436 1.417 1.3768
9 0 1.417 1.3768
10 1.159 1.417 0.965
11 -1.7077 1.0982 1.0982
12 2.0517 1.0982 1.3768
13 2.0517 1.0982 1.3768

AngleTorsion Coeffs

1 0 0 0 0 0 0 108.4 118.9
2 0 0 0 0 0 0 108.4 117.94
3 0 0 0 0 0 0 110.588 108.4
4 0 0 0 0 0 0 108.4 119.3
5 1.9767 1.0239 0 1.9767 1.0239 0 118.9 118.9
6 0 2.5014 0 0 2.7147 0 118.9 117.94
7 0 10.0155 0 0 1.7404 0 118.9 123.42
8 0 10.0155 0 0 1.7404 0 118.9 123.42
9 0 0 0 0 0 0 123.42 109.5
10 -5.136 -1.0122 0 4.6852 0.023 -0.598 123.42 108.19
11 0 2.4501 0 0 2.4501 0 117.94 117.94
12 0 1.8729 0 0 2.5706 0 117.94 123.42
13 0 1.8729 0 0 2.5706 0 117.94 123.42

Improper Coeffs # class2/kk

1 38.7949 0
2 0 0
3 4.8912 0
4 13.0421 0
5 13.0421 0

AngleAngle Coeffs

1 0 0 0 110.588 119.3 119.3
2 0 0 0 108.4 108.4 118.9
3 0 0 0 118.9 117.94 117.94
4 0 0 0 118.9 123.42 123.42
5 0 0 0 118.9 123.42 123.42

Atoms # full/kk

7963 8 2 -0.1268 7.651969621284712 8.483156216119177 7.797103616875656 0 1 1
7950 8 2 0 7.6073887036779 7.28286028958259 6.958199653837729 0 1 1
7951 8 1 0.3964 6.228278729005189 6.689298351507883 6.5388898980723615 0 1 1
3372 4 3 0.1268 6.932222018543681 11.659651453501349 6.592977706062915 0 0 0
7948 8 2 -0.1268 8.76758393958444 6.897985306576986 6.268348278662709 0 1 1
7965 8 2 -0.1268 8.867659783260933 9.110171268914906 7.989847697390731 0 1 1
7964 8 3 0.1268 6.788345683486133 8.928303486227993 8.31939382689794 0 1 1
7966 8 3 0.1268 8.85635307500847 9.956735077095168 8.670599399948042 0 1 1
7946 8 2 -0.1268 9.941841193526962 7.493427171411687 6.600737469397426 0 1 1
7945 8 2 0.0265 10.102332441496728 8.54129890848304 7.489686370944251 0 1 1
7942 8 3 0.1268 10.746162583500785 11.704623545967628 7.615493148884402 0 1 1
7949 8 3 0.1268 8.692715003385253 6.1614998498956375 5.400384460766401 0 1 1
7584 7 3 0.1268 10.605576714128635 11.564842389929694 5.39613877193949 2 0 2
7953 8 2 0 6.045233843016629 5.238084822241651 5.93919265555462 0 1 1
7586 7 3 0.1268 9.328747428458945 9.582804405688492 51.65949988381852 2 0 1
7583 7 2 -0.1268 9.743019338065327 11.65141119836401 51.49479890916056 2 0 1
7952 8 5 -0.3964 5.253320402735923 7.3815952952004595 6.677626966033508 0 1 1
7947 8 3 0.1268 10.85034134702032 7.07096538574308 6.238959544466654 0 1 1
7941 8 2 -0.1268 11.088508980106969 11.295533694152645 8.584934021885465 0 1 1
7944 8 6 -0.053 11.382213283290586 9.001783722502354 7.66607404047883 0 1 1
7943 8 2 0.0265 11.5009968539091 9.926681018089239 8.680775766661423 0 1 1
1664 2 3 0.1268 14.230897858603978 6.2389557778343665 6.9238770710945765 1 1 0
4099 4 3 0.1268 16.197596503006995 6.518996753333992 10.046588436037313 1 1 0
3246 3 2 -0.1268 15.954497283646127 8.930818135857663 8.316238833213857 0 -1 0
3247 3 3 0.1268 15.821421093911027 8.599611102900466 9.374459233360364 0 -1 0
3243 3 2 0.0265 14.9238938572223 10.576136621872552 6.823872026429017 0 -1 0
3244 3 2 -0.1268 14.930901673101326 9.84072948273725 8.005680917075756 0 -1 0
1663 2 2 -0.1268 14.220864909982694 5.595414633301459 6.0472357924306985 1 1 0
3245 3 3 0.1268 14.037518565109332 9.89879084928818 8.69939955991361 0 -1 0
3263 3 2 -0.1268 16.025063400850854 10.3090795113419 5.909264967438252 0 -1 0
3248 3 2 0 17.018076054339794 8.687782025168477 7.42884341778144 0 -1 0
3261 3 2 -0.1268 17.0068421600415 9.329775683268231 6.19155686347596 0 -1 0
4102 4 5 -0.3964 13.827526910100952 6.192741235674976 9.355705515915378 1 1 0
5979 6 3 0.1268 17.46861760740947 9.303479904567197 11.079462515540536 0 0 1
3249 3 1 0.3964 17.934461856966465 7.533008672755774 7.609114257205092 0 -1 0
3250 3 5 -0.3964 18.06051361601113 7.11047984326939 8.746074986716337 0 -1 0
3251 3 2 0 18.56925167867901 6.767717224251425 6.477936872792509 0 -1 0
5972 6 2 -0.1268 20.529296314592667 9.879155591729269 8.337291360759291 0 0 1
5973 6 3 0.1268 21.281774234225757 9.169779341203382 7.975022161608503 0 0 1
5976 6 5 -0.3964 21.406764923252744 8.20803417816931 10.382868498803663 0 0 1
3253 3 3 0.1268 20.344684008099804 6.306520232214633 7.579977071905494 0 -1 0
5975 6 1 0.3964 20.45369996364584 8.902981079251951 10.63348345668378 0 0 1
3252 3 2 -0.1268 19.834521179138726 6.230781617598781 6.620134673206743 0 -1 0
5974 6 2 0 20.056650634670692 9.94336884141395 9.634775636467745 0 0 1
3254 3 2 -0.1268 20.487563914496008 5.6029621095221405 5.545267194863853 0 -1 0
3255 3 3 0.1268 21.545216447730983 5.260378131798191 5.574290441690382 0 -1 0
6304 6 3 0.1268 22.02811985959831 5.454099197448356 10.098041981074875 0 0 2
3533 4 2 -0.1268 24.251534722222083 8.048562419609967 11.411346264597668 0 0 0
7424 7 3 0.1268 22.494200728175986 8.183676402139643 6.0689877427301 2 0 1
3534 4 3 0.1268 24.0411736722123 6.956178226510163 11.365876911782367 0 0 0
7422 7 3 0.1268 23.292769903188745 6.58093594936639 7.859040598825237 2 0 1
7418 7 3 0.1268 27.90750939827118 8.253182755480488 10.637183085470875 2 0 1
3532 4 3 0.1268 23.773187863209536 8.371010273671093 9.223649516621478 0 0 0
7417 7 2 -0.1268 27.380593856746653 7.296164503262574 10.561677370084292 2 0 1
7421 7 2 -0.1268 23.939147109901448 6.916589884638125 7.0488822821950965 2 0 1
7398 7 6 -0.053 25.600451494394672 5.397227083748783 7.9076231900739895 2 0 1
7395 7 2 -0.1268 26.153362576882 6.882985518747104 6.117358562752268 2 0 1
7396 7 3 0.1268 27.19671271806561 6.4636785578492555 6.25340746084731 2 0 1
7419 7 2 -0.1268 26.69869766943721 7.0268971345582285 9.379903856734746 2 0 1
3530 4 2 0.0265 24.41753141233346 10.148990842566901 10.294840188327305 0 0 0
7423 7 2 -0.1268 23.517638633203475 7.818455196372451 6.104184856035783 2 0 1
3531 4 2 -0.1268 24.126789040404397 8.792017980602095 10.237125187758272 0 0 0
7399 7 2 0.0265 26.228013706059333 5.7437230921188425 9.147566298441367 2 0 1
7420 7 3 0.1268 26.701608446508786 7.846638553943102 8.690686757354802 2 0 1
7397 7 2 0.0265 25.246610926379965 6.4347719220889905 7.000882834106432 2 0 1
7402 7 2 -0.1268 26.90138483480939 51.886845174299026 11.375116711904287 2 -1 1
7400 7 2 -0.1268 26.29903415264916 51.5247520312773 10.165077088674453 2 -1 1
4507 5 3 0.1268 29.698808027075724 7.627960118475899 5.561430155174241 0 1 0
4505 5 2 0.0265 29.90624888658993 5.502430273428344 5.511704102730997 0 1 0
4530 5 3 0.1268 30.52374350541058 7.523323874821259 10.696646516893066 0 1 0
4484 5 2 0.0265 31.6670855048888 9.697633813939543 10.635719123363522 0 1 0
4528 5 3 0.1268 29.319841072500868 5.68318286189481 9.379121726131336 0 1 0
4502 5 3 0.1268 32.45523373573943 6.21714717320488 6.375351715814018 0 1 0
4485 5 2 -0.1268 30.758147644216546 10.286276831068044 9.766632439539062 0 1 0
4527 5 2 -0.1268 30.155778208094638 6.265846680520696 8.964296938028111 0 1 0
4497 5 6 -0.053 32.58984923527871 8.816813626860387 10.138537597657056 0 1 0
4498 5 2 0.0265 32.04722055026413 7.813807994860113 9.305075286778415 0 1 0
4501 5 2 -0.1268 31.90727987459126 6.571918238972502 7.266446426121345 0 1 0
4503 5 2 0.0265 30.679835530512225 6.026015203941467 7.670731872449867 0 1 0
4499 5 2 -0.1268 32.6116144238881 7.411232754484896 8.085498045142227 0 1 0
4486 5 3 0.1268 30.848841307061296 10.253201076341576 8.620386120620879 0 1 0
4529 5 2 -0.1268 30.86274512177401 7.215432475697087 9.747376951331212 0 1 0
4500 5 3 0.1268 33.50336581672993 8.025267153033056 7.626918837384295 0 1 0
1754 2 2 -0.1268 37.295671782297276 8.64573142298366 10.2646091123187 0 1 0
1761 2 2 -0.1268 35.61751751059738 9.821549188858029 9.032268511541306 0 1 0
1752 2 5 -0.3964 36.19263298319461 8.11548985453105 6.844319407954211 0 1 0
1759 2 2 -0.1268 35.42379668561189 10.74880280868182 10.07919922520685 0 1 0
1414 2 2 -0.1268 39.373375167192066 9.093636138914857 5.891712905076935 0 0 0
1417 2 3 0.1268 38.282512216403006 10.34826194037539 7.267626666045747 0 0 0
1746 2 2 -0.1268 38.31801030418015 51.35690611116756 6.515333534609361 0 0 0
2061 2 3 0.1268 34.669900514888155 5.738326306215104 8.955008946700522 0 1 0
1762 2 3 0.1268 34.903231606125374 9.769357108507986 8.191426906146212 0 1 0
1755 2 3 0.1268 38.08638924038186 7.937916826577094 10.35644288144854 0 1 0
1416 2 2 -0.1268 39.07871910607652 9.625962770694684 7.169666252127234 0 0 0
1764 2 3 0.1268 37.51005616548194 6.01337636057443 9.964489017636476 0 1 0
1748 2 2 -0.1268 37.71020636593079 5.806874601399238 6.639860176891742 0 1 0
1751 2 1 0.3964 36.65024864398636 7.766672073467003 7.935138890968479 0 1 0
1753 2 2 0 36.53262433409962 8.725109446310277 9.134324471600017 0 1 0
1750 2 2 0 37.39319917366042 6.419579692916113 7.897939990781116 0 1 0
1763 2 2 -0.1268 37.88239998439849 5.718001929335916 8.987880878413755 0 1 0
1749 2 3 0.1268 37.341372783559564 6.203981610604421 5.727245725128741 0 1 0
3126 3 3 0.1268 43.36747301552377 10.000257675323862 10.834020746127106 -1 -1 0
3121 3 2 -0.1268 41.32138460492783 5.531616813681089 11.141780895059705 -1 -1 0
3120 3 2 0.0265 42.68553111082335 5.306739262134014 10.966353872827288 -1 -1 0
5706 6 2 -0.1268 45.055941611242275 5.5447510661078265 5.367708406701541 0 1 0
1413 2 2 0 40.23408969395571 7.9530157004744515 5.9249547418379045 0 0 0
1418 2 2 0.0265 39.973806111430264 9.400981083366728 8.217067921603284 0 0 0
1431 2 6 -0.053 40.02201654929017 10.262030409791919 9.343449238333042 0 0 0
5704 6 5 -0.3964 43.69938740515926 8.02063588076242 5.296839272809154 0 1 0
1420 2 3 0.1268 41.248611038468994 7.954863742049529 9.113710843150475 0 0 0
5236 5 3 0.1268 44.411586598067245 9.258516174321535 7.817813861954579 -1 1 0
1422 2 3 0.1268 41.58981831344035 6.626772467940851 7.089595542640101 0 0 0
1419 2 2 -0.1268 40.8053263651114 8.287444689463404 8.194272183435395 0 0 0
3136 3 3 0.1268 44.08401154716397 6.039630314131642 8.948684039725343 -1 -1 0
1421 2 2 -0.1268 40.884328695306166 7.466421116845909 7.0754211522565615 0 0 0
5707 6 3 0.1268 43.93207001420974 5.382926025175922 5.61715623057756 0 1 0
3146 3 2 0 51.319462774624895 5.50842797282189 10.031477061726482 -1 -1 0
7961 8 2 -0.1268 51.58546958412278 51.75531897876208 5.346516305539033 -1 0 1
7962 8 3 0.1268 50.8013495702499 5.722050091703381 5.361864964566216 -1 1 1
3330 4 3 0.1268 49.24932319905555 9.216332251607511 51.31544435274149 -1 0 -1
5233 5 2 -0.1268 45.98829302372603 9.199182372475587 9.46927890945136 -1 1 0
5234 5 3 0.1268 45.64629279313901 8.305173576094296 10.016825514669232 -1 1 0
5235 5 2 -0.1268 45.266400349922776 9.685396344864738 8.354407393047987 -1 1 0
3339 4 6 -0.053 51.1928941315189 11.780269346710014 7.813103385824398 -1 0 0
3326 4 2 0.0265 50.818265119693294 11.508880302909441 6.522312937585394 -1 0 0
5232 5 2 0.0265 47.18907782793812 9.879487465520725 9.959142428992083 -1 1 0
3329 4 2 -0.1268 49.70619005834686 10.155590069914245 51.63234018481153 -1 0 -1
3328 4 3 0.1268 49.84982523826176 9.555932232917694 6.900121853165953 -1 0 0
3327 4 2 -0.1268 50.160584056506096 10.290951667299328 6.160113736011116 -1 0 0
3159 3 2 -0.1268 50.032879125567504 5.901443707068337 10.39403995581937 -1 -1 0
3151 3 3 0.1268 51.55161355077196 8.314970789317618 9.73847538936213 -1 -1 0
5230 5 2 -0.1268 47.54526659361693 11.07365908886767 9.390722388988028 -1 1 0
3138 3 3 0.1268 46.444569430478296 6.071356982172041 7.835916027046648 -1 -1 0
3325 4 3 0.1268 51.479467896173176 13.426360796512956 5.811845496789872 -1 0 0
3091 3 2 -0.1268 6.791501011573058 17.024763696597578 5.926996107845271 0 -1 0
3092 3 3 0.1268 7.55564884362858 17.10356291328317 6.71168558158214 0 -1 0
3340 4 2 0.0265 5.548376106954903 12.44232046527102 8.13961321123649 0 0 0
3371 4 2 -0.1268 6.748302064502975 12.382713448837553 7.359093817863848 0 0 0
3370 4 3 0.1268 8.715635054830347 13.116287684392114 7.1494817742345145 0 0 0
3346 4 6 -0.053 8.841276966732263 14.750885245309398 9.191815598859995 0 0 0
3369 4 2 -0.1268 7.7932195549044465 13.2291844234682 7.699213375837476 0 0 0
3343 4 2 -0.1268 6.615938005555015 13.99973356418497 9.58112838143028 0 0 0
3345 4 2 0.0265 7.781778514651332 13.982254646194379 8.870072588835805 0 0 0
3093 3 2 -0.1268 7.204255693379187 16.916911997807937 51.394984478090585 0 -1 -1
3347 4 2 0.0265 9.110514834110207 14.954092824166192 10.469004839879032 0 0 0
3344 4 3 0.1268 6.564456854672122 14.770729473349157 10.340341329719156 0 0 0
3348 4 2 -0.1268 9.362107687533706 16.30810843240127 10.776894253031191 0 0 0
7598 7 3 0.1268 11.187490945232765 16.18831817974198 5.289576640984339 2 0 2
3349 4 3 0.1268 9.529305600079985 17.037516123273576 9.956178476494019 0 0 0
3341 4 2 -0.1268 5.519584522727175 13.238335035570202 9.274054928418757 0 0 0
7940 8 3 0.1268 10.896185640275638 13.130548460814772 9.731687234560452 0 1 1
7939 8 2 -0.1268 11.32516537404106 12.035026509665151 9.7151607437929 0 1 1
3452 4 2 -0.1268 13.188121975229611 15.877416184964476 9.095629823116154 0 0 0
3242 3 6 -0.053 13.872107500667289 11.365607510171628 6.546703165590821 0 -1 0
3453 4 3 0.1268 13.288290980268426 15.02245155455282 8.49091237725965 0 0 0
3240 3 3 0.1268 15.42737103971999 13.609542111015122 7.030969338394493 0 -1 0
3238 3 3 0.1268 15.395029317798961 15.575850499513077 5.7198226064382744 0 -1 0
3239 3 2 -0.1268 14.799128746628396 13.599653769578518 6.179630310837797 0 -1 0
3241 3 2 0.0265 14.049576145299396 12.503631682601833 5.805873346562961 0 -1 0
3455 4 1 0.3964 15.217729669744896 15.090878665953241 10.232274662658398 0 0 0
3456 4 5 -0.3964 15.234820551915469 14.044672809073585 9.654236385890773 0 0 0
3454 4 2 0 14.1033282918038 16.01893604635797 10.11165281172404 0 0 0
5987 6 2 -0.1268 19.1239152418101 10.922129567359786 10.024469545795567 0 0 1
3457 4 2 0 16.53938648083636 15.493316252792129 10.937631850214913 0 0 0
5990 6 3 0.1268 17.749842318181592 12.483535200486765 9.33559915545066 0 0 1
5993 6 2 -0.1268 17.998441184670142 15.845689559201933 5.626905545263916 0 0 1
5963 6 2 -0.1268 18.543166028299723 15.88635389117317 7.887578057722257 0 0 1
5964 6 3 0.1268 18.87580003568422 16.481686048210285 8.74778662246198 0 0 1
5971 6 3 0.1268 20.340567678185877 10.762479537014508 6.309634680773628 0 0 1
5965 6 2 -0.1268 18.668538737552808 14.492776418884914 7.913438481617783 0 0 1
5970 6 2 -0.1268 20.00503763518863 10.735518710672824 7.344086239690391 0 0 1
7787 8 3 0.1268 21.398338230962494 15.067992007466193 9.93212970339627 0 1 1
5969 6 2 0.0265 18.9898640430091 11.662815435042463 7.749294365293841 0 0 1
5968 6 6 -0.053 18.42957511886097 12.357572348390772 6.716865324863248 0 0 1
5989 6 2 -0.1268 18.589442209374116 11.787144913941093 9.096362439316987 0 0 1
5988 6 3 0.1268 18.768907415880747 11.019932725801294 11.026680227438762 0 0 1
5967 6 2 0.0265 18.472692073556907 13.742656734793368 6.762024378414871 0 0 1
5966 6 3 0.1268 18.87688013943218 14.140838261902761 8.929099480511253 0 0 1
5991 6 2 -0.1268 18.13980643692377 14.462002399825016 5.63535256786082 0 0 1
7785 8 3 0.1268 21.611225948345304 14.91762570822176 7.564723798140114 0 1 1
7779 8 3 0.1268 21.606062161221452 13.112056076817181 6.350159220887695 0 1 1
7778 8 2 -0.1268 21.62793639443345 13.631779266216098 5.3834580808253145 0 1 1
7786 8 2 -0.1268 22.400239224040227 14.85408368970877 9.44597959617771 0 1 1
7784 8 2 -0.1268 22.543771722400024 14.737528048008437 8.09832551564151 0 1 1
3576 4 3 0.1268 26.744795992642366 9.871091109734145 9.448242349579878 0 0 0
3573 4 2 -0.1268 27.484592795031844 10.501820881276723 7.554613655036437 0 0 0
3544 4 2 0.0265 25.22575517163363 10.866225514654378 8.210364065750259 0 0 0
3575 4 2 -0.1268 26.48646305286944 10.401193669726876 8.532195349587784 0 0 0
3529 4 3 0.1268 24.88260917859331 11.892219774514775 11.449617741751918 0 0 0
7780 8 2 0 22.74420339390458 14.497412589568597 51.88511694324234 0 1 0
3528 4 2 -0.1268 24.76987722085543 10.798227025785277 11.497268081056951 0 0 0
3546 4 3 0.1268 24.031574913893454 11.812825778382262 6.712316667623009 0 0 0
3543 4 6 -0.053 24.249257929977954 10.918760906855937 9.13433878992792 0 0 0
3547 4 2 -0.1268 25.971260634990877 11.564179653031886 6.028229000686198 0 0 0
3545 4 2 -0.1268 24.990715588235684 11.38212505064202 6.92651521079941 0 0 0
7789 8 2 -0.1268 24.761276542767554 14.431271664080654 9.718490350554102 0 1 1
3549 4 2 0.0265 27.249254258443074 11.120343573683716 6.269958773727122 0 0 0
7790 8 3 0.1268 25.61921972232817 14.192176165805636 10.38944341829097 0 1 1
7782 8 5 -0.3964 25.111069919394534 14.673836054265728 5.5265543690117465 0 1 1
7788 8 2 0.0265 23.457135162387683 14.664778528795447 10.286932375784533 0 1 1
7792 8 3 0.1268 25.864815184249704 14.12701326342182 8.032597714126167 0 1 1
7791 8 2 -0.1268 24.891053993371 14.412057097900968 8.375255957268035 0 1 1
7783 8 2 0 23.790190656112266 14.5775260134986 7.517339225292832 0 1 1
7781 8 1 0.3964 23.988731698425372 14.562389342361598 6.005466210971438 0 1 1
3572 4 3 0.1268 27.831643002539963 13.698151526201787 6.597992968440594 0 0 0
3574 4 3 0.1268 28.437631290406866 9.960430599959114 7.722170972419221 0 0 0
6454 6 2 -0.1268 32.901752205548824 14.742633493995424 10.566467363498715 -1 0 2
3571 4 2 -0.1268 28.74902138663839 13.548057886827127 6.013239888385664 0 0 0
3570 4 3 0.1268 29.24580222703471 15.692294520171755 6.212270029211594 0 0 0
3569 4 2 -0.1268 29.557272555462387 14.713073085872432 5.8115507551891845 0 0 0
4488 5 3 0.1268 29.097107015934757 11.740222595094503 9.579825506722083 0 1 0
6457 6 3 0.1268 31.807258550845944 13.055107070083285 9.873135830921726 -1 0 2
3561 4 3 0.1268 31.007003429328606 15.562361088340017 7.718837458702629 0 0 0
6456 6 2 -0.1268 32.514354375342705 13.864226568576107 9.607443426284576 -1 0 2
6471 6 6 -0.053 32.727275106206946 12.745617518471477 7.483054186463835 -1 0 2
6458 6 2 0.0265 33.10950468828595 13.801743658802005 8.3008548813587 -1 0 2
6472 6 2 0.0265 33.58548711792922 12.23012422107028 6.537000451648788 -1 0 2
1760 2 3 0.1268 34.66132750925308 11.490234763651982 9.903393850020144 0 1 0
4487 5 2 -0.1268 29.87050808699298 11.271855879571067 10.251628071880129 0 1 0
6453 6 2 0 33.939387902812655 15.589472853915591 10.271950803991412 -1 0 2
6461 6 2 -0.1268 34.322486599261595 15.690778504186325 8.964990164423707 -1 0 2
6459 6 2 -0.1268 33.966367842061665 14.84449257339387 7.973333377611221 -1 0 2
6503 6 2 -0.1268 34.99458017403356 12.396947997764798 6.584658607968723 -1 0 2
6502 6 3 0.1268 36.90158127593185 11.694123533162514 5.728696306488916 -1 0 2
5546 6 3 0.1268 38.49534437638822 13.614065097554882 5.747694371050063 0 0 0
5533 6 1 0.3964 37.48186109433763 16.185657769734732 5.827475954561089 0 0 0
6504 6 3 0.1268 35.553425683474586 12.783974913980682 7.4441529628482 -1 0 2
5534 6 5 -0.3964 37.17699078088488 15.502602512464907 6.77188462323665 0 0 0
6460 6 3 0.1268 34.3634511720894 15.09966460553251 6.970477315142132 -1 0 2
6501 6 2 -0.1268 35.78013964407955 11.641879159067736 5.70718322388509 -1 0 2
1433 2 2 -0.1268 39.29812188940562 12.486657038832949 9.874564414185524 0 0 0
1442 2 2 -0.1268 42.608135664575386 17.154327291058134 6.198519180027976 0 0 0
1435 2 2 -0.1268 39.38971901701062 13.862195202693755 9.781657673426338 0 0 0
1443 2 3 0.1268 43.539721959143804 16.861363498047755 5.748354285508405 0 0 0
1439 2 2 0.0265 40.728131296445454 16.58006631331027 7.604506408491085 0 0 0
3132 3 3 0.1268 43.527366177589585 15.893512485705106 9.156682801213094 -1 -1 0
5226 5 5 -0.3964 43.63658508473753 11.2269988233775 6.71434532352262 -1 1 0
1438 2 6 -0.053 40.0390866738674 15.825011133910028 8.538480437087127 0 0 0
5237 5 2 -0.1268 44.825112383272355 13.653791076908256 5.449986953535025 -1 1 0
5238 5 3 0.1268 43.7609795055112 13.834157782753458 5.799414131427837 -1 1 0
5225 5 1 0.3964 44.773999103327085 11.582883316315357 6.848976032028333 -1 1 0
1437 2 2 0.0265 39.98805368126487 14.475798430817466 8.570649153352047 0 0 0
3131 3 2 -0.1268 44.25042799826528 15.545103752372652 9.888554419297297 -1 -1 0
3100 3 2 0.0265 45.624752166335526 15.773479911798713 9.722936830479387 -1 -1 0
1432 2 2 0.0265 39.88037458222256 11.619762704177969 8.994672322311436 0 0 0
1440 2 2 -0.1268 41.975595936038346 16.313786060812365 7.07987258942642 0 0 0
1462 2 3 0.1268 41.17377229282401 13.790428808629935 6.758101128982528 0 0 0
1441 2 3 0.1268 42.40505144109922 15.319467728296782 7.195529333710941 0 0 0
1463 2 2 -0.1268 40.50236793298791 12.21584029960618 7.8841770261369915 0 0 0
1461 2 2 -0.1268 40.55485160904513 13.555803103592025 7.647572298589147 0 0 0
1464 2 3 0.1268 41.19820234361134 11.53928765955282 7.27018656776254 0 0 0
3177 3 3 0.1268 51.241713997880126 16.675324164571663 11.282760549010808 -1 -1 0
3322 4 2 -0.1268 50.739035527723146 12.263397582305902 51.00832561996132 -1 0 -1
5227 5 2 0 45.616903101786605 10.955364574796281 7.919800384938625 -1 1 0
5224 5 2 0 45.508955295343625 12.521337132998404 5.913176090498545 -1 1 0
3342 4 3 0.1268 51.30387820028332 13.349154356471745 9.88675793249508 -1 0 0
3089 3 2 -0.1268 49.55044841379467 15.877920252217908 7.329458440465069 -1 -1 0
5228 5 2 -0.1268 46.66033232125338 11.682137112089375 8.472780363139135 -1 1 0
3088 3 3 0.1268 47.72445680177492 14.703870442671235 7.181216853492932 -1 -1 0
5223 5 3 0.1268 47.32268823762705 11.365691884487827 5.6738089360557895 -1 1 0
3087 3 2 -0.1268 48.24498367222563 15.580047559254519 7.6691945118625116 -1 -1 0
5220 5 2 -0.1268 47.507063647620456 13.302273496255914 51.69702513297006 -1 1 -1
5221 5 3 0.1268 48.55568873446077 13.164674134448292 51.30323299954267 -1 1 -1
5231 5 3 0.1268 48.38585640090233 11.694275984233343 9.849412984191762 -1 1 0
3324 4 2 -0.1268 51.06627874979026 12.459225867462887 5.540267205175773 -1 0 0
3090 3 3 0.1268 50.01648675260449 15.04836421387495 6.723486979882078 -1 -1 0
5229 5 3 0.1268 46.83305334113895 12.736191766011906 8.301040182266751 -1 1 0
5222 5 2 -0.1268 46.81913898252316 12.279353917066103 5.505652983515283 -1 1 0
3446 4 3 0.1268 8.956276695674308 20.100345091829205 9.769205838238262 0 0 0
3442 4 2 0.0265 9.175459971136128 20.27859558348264 6.4277649301586735 0 0 0
3443 4 2 -0.1268 8.636205927462687 20.441203085085604 7.729748019626801 0 0 0
3080 3 5 -0.3964 5.728194175270647 17.612551827237187 8.56737504300887 0 -1 0
3447 4 2 0.0265 10.641517454846065 19.409821367646618 8.633958611762058 0 0 0
3078 3 2 0 5.385301025862218 17.135390408252984 6.158379434620461 0 -1 0
3444 4 3 0.1268 7.590970598953144 20.87010708466953 7.850994094235551 0 0 0
3473 4 2 -0.1268 10.452857700702417 19.739763565353975 6.283676934492652 0 0 0
3445 4 2 -0.1268 9.409948270553423 19.984118259409513 8.78116056048201 0 0 0
3441 4 6 -0.053 8.525324867849157 20.664713636918023 5.223634747852257 0 0 0
3426 4 2 -0.1268 7.538246720573123 22.767769744059407 5.949935292831135 0 0 0
3234 3 3 0.1268 9.365530806109021 22.027313495114818 10.65399558449799 0 -1 0
3191 3 2 -0.1268 5.443799881121156 21.375115883480223 11.087443599706738 0 -1 0
3428 4 2 0.0265 7.361739501909327 21.464161232818007 5.471764392655196 0 0 0
3429 4 2 -0.1268 6.119467004970695 21.08806728276511 51.72094269888962 0 0 -1
3471 4 2 -0.1268 11.234080471764477 19.32522952384566 7.3255382421670365 0 0 0
3448 4 6 -0.053 11.295632271783646 18.983782866674346 9.789792807958902 0 0 0
3230 3 3 0.1268 12.135546606891163 21.9337689094985 8.097512750759103 0 -1 0
3229 3 2 -0.1268 13.027550222233451 22.378535292985255 7.62794152451171 0 -1 0
3472 4 3 0.1268 12.15684707304423 18.85778409124633 7.114275374115866 0 0 0
3227 3 2 -0.1268 13.522874727209695 21.778195538060018 6.386798882111289 0 -1 0
3450 4 2 -0.1268 12.154819805435604 16.82759062938436 8.989376111805262 0 0 0
3226 3 3 0.1268 14.621064893689134 19.370564658008668 6.420102411497628 0 -1 0
3214 3 2 0 14.81522629162048 22.078101154070275 5.91301590252717 0 -1 0
3449 4 2 0.0265 12.188694097288678 17.955486328905323 9.826370594284727 0 0 0
3228 3 3 0.1268 13.001822569278467 20.88311603427124 5.998783472204214 0 -1 0
3232 3 3 0.1268 11.83759145136893 22.292650559204443 10.686979257563321 0 -1 0
3467 4 2 -0.1268 14.148331333093948 17.08535680596524 10.961610918220195 0 0 0
3224 3 3 0.1268 13.929308179492793 17.085114813825452 5.8275809189065715 0 -1 0
3451 4 3 0.1268 11.401748598074128 16.759403698289706 8.211065147509311 0 0 0
3469 4 2 -0.1268 13.200765800381642 18.031752046066913 10.821965030225664 0 0 0
3459 4 3 0.1268 16.566369685525622 17.709574856609244 10.426601458193094 0 0 0
3458 4 2 -0.1268 17.161321614818632 16.794473165980236 10.722557789301796 0 0 0
4883 5 3 0.1268 19.221689648594296 21.13416252668125 8.959911463062863 0 1 0
5962 6 2 0.0265 18.256222378709612 16.60795077517693 6.714303148525549 0 0 1
438 1 3 0.1268 21.394237203491098 21.68529252779271 9.965882798514116 0 0 -1
4882 5 2 -0.1268 18.46616686239777 21.724382192243397 9.534975352445516 0 1 0
5949 6 2 -0.1268 19.92943277202548 18.146222859999344 51.9052492545095 0 0 0
5961 6 6 -0.053 18.028371733797798 17.993535404903614 6.772193875158505 0 0 1
5947 6 3 0.1268 18.077852079212946 20.626535394496493 6.458157138501278 0 0 1
437 1 2 -0.1268 21.84134036940104 20.725708500402355 9.655153878489864 0 0 -1
5948 6 2 0.0265 18.862772288969815 18.73974846136762 5.936795040997749 0 0 1
5946 6 2 -0.1268 18.74100595150106 20.10606711669675 5.787250499033116 0 0 1
436 1 3 0.1268 21.8379614432708 21.11234504148279 7.557055518439192 0 0 -1
435 1 2 -0.1268 22.15420234633284 20.417818426766317 8.326321440590716 0 0 -1
4880 5 2 -0.1268 17.69101191903593 20.992338847687797 10.4288995270694 0 1 0
4881 5 3 0.1268 17.893519335822674 19.959776276453585 10.722871542454488 0 1 0
422 1 2 0 22.86929278626807 19.195407774765783 8.02291820535206 0 0 -1
5950 6 3 0.1268 20.217570923880857 17.094336245471176 51.868527616849974 0 0 0
417 1 2 0.0265 22.191861595776505 19.84884690503206 10.719033300750539 0 0 -1
418 1 2 -0.1268 22.79676992380732 18.60180188404695 10.375344373483182 0 0 -1
420 1 2 -0.1268 23.114029706548795 18.359885496289255 9.069193597447734 0 0 -1
424 1 5 -0.3964 23.503868497110545 17.5639577920928 6.377123160326974 0 0 -1
4978 5 3 0.1268 28.51232578884258 16.40411460609679 9.31175938285384 0 1 0
4984 5 2 -0.1268 26.84635464797115 17.502509317077415 5.556622214256711 0 1 0
4977 5 2 -0.1268 27.74724030816089 16.97795855832323 9.89466368409503 0 1 0
421 1 3 0.1268 23.55435721600064 17.379276748004962 8.923006298877926 0 0 -1
423 1 1 0.3964 23.427797019923233 18.73659601421506 6.694568079300563 0 0 -1
4979 5 2 0.0265 27.425292079734874 18.326289998284345 9.730630331347712 0 1 0
425 1 2 0 23.90909271977494 19.768746693117556 5.696542222998598 0 0 -1
196 1 3 0.1268 27.736504597663014 21.823675800511754 10.312745763989872 0 0 0
434 1 3 0.1268 24.347517565536425 21.24002873830253 7.270781808506671 0 0 -1
433 1 2 -0.1268 24.269757204569387 21.078752964694214 6.155893878031381 0 0 -1
4982 5 2 -0.1268 26.991219837789497 17.696780302449305 6.908485137453921 0 1 0
4981 5 2 0.0265 27.829673246152012 18.715303584421868 7.389646106636747 0 1 0
4983 5 3 0.1268 26.153325537389186 17.2155493049773 7.532343787493653 0 1 0
4980 5 6 -0.053 27.89466477633113 19.090614926331686 8.711100179030183 0 1 0
4999 5 2 -0.1268 28.449616044115913 19.256873438994013 51.86409661667787 0 1 -1
5001 5 2 -0.1268 28.553125237197175 19.52756140813162 6.4143550779246885 0 1 0