LAMMPS data file via write_data, version 22 Jul 2025, timestep = 1000000, units = real

10900 atoms
7 atom types
11850 bonds
7 bond types
18880 angles
9 angle types
28140 dihedrals
13 dihedral types
6080 impropers
5 improper types

4.44018107179669 57.02102391820133 xlo xhi
4.44018107179669 57.02102391820133 ylo yhi
4.44018107179669 57.02102391820133 zlo zhi

Masses

1 12.01115
2 12.01115
3 1.00797
4 1.00797
5 15.9994
6 15.9994
7 15.9994

Pair Coeffs # lj/class2/coul/long/kk

1 0.12 3.308
2 0.064 4.01
3 0.02 2.995
4 0.013 1.098
5 0.267 3.3
6 0.24 3.535
7 0.24 3.535

Bond Coeffs # class2/kk

1 1.489 339.357 -655.724 670.236
2 1.216 823.795 -1878.79 2303.53
3 1.417 470.836 -627.618 1327.63
4 1.0982 372.825 -803.453 894.317
5 1.3768 428.88 -738.235 1114.97
6 1.3768 428.88 -738.235 1114.97
7 0.965 532.506 -1282.9 2004.77

Angle Coeffs # class2/kk

1 108.4 43.9594 -8.3924 -9.3379
2 110.588 34.6214 -7.0939 -7.4032
3 119.3 65.1016 -17.9766 0
4 118.9 61.0226 -34.9931 0
5 117.94 35.1558 -12.4682 0
6 123.42 73.6781 -21.6787 0
7 123.42 73.6781 -21.6787 0
8 109.5 60 0 0
9 108.19 53.125 -8.5016 0

BondBond Coeffs

1 0 1.489 1.417
2 0 1.489 1.489
3 0 1.489 1.216
4 68.2856 1.417 1.417
5 1.0795 1.417 1.0982
6 48.4754 1.417 1.3768
7 48.4754 1.417 1.3768
8 0 1.3768 1.3768
9 20.6577 1.3768 0.965

BondAngle Coeffs

1 0 0 1.489 1.417
2 0 0 1.489 1.489
3 0 0 1.489 1.216
4 28.8708 28.8708 1.417 1.417
5 20.0033 24.2183 1.417 1.0982
6 58.479 107.681 1.417 1.3768
7 58.479 107.681 1.417 1.3768
8 0 0 1.3768 1.3768
9 53.8614 23.9224 1.3768 0.965

Dihedral Coeffs # class2/kk

1 0 0 4.6282 0 0 0
2 0 0 2.167 0 0 0
3 0 0 2.5 0 0 0
4 0 0 0.9063 0 0 0
5 8.3667 0 1.1932 0 0 0
6 0 0 3.9661 0 0 0
7 0 0 4.8498 0 0 0
8 0 0 4.8498 0 0 0
9 0 0 1.8 0 0 0
10 -0.69 0 0.5097 0 0.0095 0
11 0 0 1.8769 0 0 0
12 0 0 1.7234 0 0 0
13 0 0 1.7234 0 0 0

AngleAngleTorsion Coeffs

1 0 108.4 118.9
2 0 108.4 117.94
3 0 110.588 108.4
4 0 108.4 119.3
5 0 118.9 118.9
6 -4.8141 118.9 117.94
7 -21.0247 118.9 123.42
8 -21.0247 118.9 123.42
9 0 123.42 109.5
10 -4.6072 123.42 108.19
11 0.3598 117.94 117.94
12 4.2296 117.94 123.42
13 4.2296 117.94 123.42

EndBondTorsion Coeffs

1 0 0 0 0 0 0 1.489 1.417
2 0 0 0 0 0 0 1.489 1.0982
3 0 0 0 0 0 0 1.489 1.417
4 0 0 0 0 0 0 1.417 1.216
5 -0.1185 6.3204 0 -0.1185 6.3204 0 1.417 1.417
6 0 -6.8958 0 0 -0.4669 0 1.417 1.0982
7 0 0.2655 0 0 4.8905 0 1.417 1.3768
8 0 0.2655 0 0 4.8905 0 1.417 1.3768
9 0 0 0 0 0 0 1.417 1.3768
10 0.9 -1.3456 1.19 3.4132 0.5873 -0.1323 1.417 0.965
11 0 -0.689 0 0 -0.689 0 1.0982 1.0982
12 0 -1.5867 0 0 4.2641 0 1.0982 1.3768
13 0 -1.5867 0 0 4.2641 0 1.0982 1.3768

MiddleBondTorsion Coeffs

1 0 0 0 1.417
2 0 0 0 1.417
3 0 0 0 1.489
4 0 0 0 1.489
5 27.5989 -2.312 0 1.417
6 0 -1.1521 0 1.417
7 0 4.8255 0 1.417
8 0 4.8255 0 1.417
9 0 0 0 1.3768
10 1.158 3.2697 3.5132 1.3768
11 0 4.8228 0 1.417
12 0 5.5432 0 1.417
13 0 5.5432 0 1.417

BondBond13 Coeffs

1 0 1.489 1.417
2 0 1.489 1.0982
3 0 1.489 1.417
4 0 1.417 1.216
5 53 1.417 1.417
6 -6.2741 1.417 1.0982
7 -2.2436 1.417 1.3768
8 -2.2436 1.417 1.3768
9 0 1.417 1.3768
10 1.159 1.417 0.965
11 -1.7077 1.0982 1.0982
12 2.0517 1.0982 1.3768
13 2.0517 1.0982 1.3768

AngleTorsion Coeffs

1 0 0 0 0 0 0 108.4 118.9
2 0 0 0 0 0 0 108.4 117.94
3 0 0 0 0 0 0 110.588 108.4
4 0 0 0 0 0 0 108.4 119.3
5 1.9767 1.0239 0 1.9767 1.0239 0 118.9 118.9
6 0 2.5014 0 0 2.7147 0 118.9 117.94
7 0 10.0155 0 0 1.7404 0 118.9 123.42
8 0 10.0155 0 0 1.7404 0 118.9 123.42
9 0 0 0 0 0 0 123.42 109.5
10 -5.136 -1.0122 0 4.6852 0.023 -0.598 123.42 108.19
11 0 2.4501 0 0 2.4501 0 117.94 117.94
12 0 1.8729 0 0 2.5706 0 117.94 123.42
13 0 1.8729 0 0 2.5706 0 117.94 123.42

Improper Coeffs # class2/kk

1 38.7949 0
2 0 0
3 4.8912 0
4 13.0421 0
5 13.0421 0

AngleAngle Coeffs

1 0 0 0 110.588 119.3 119.3
2 0 0 0 108.4 108.4 118.9
3 0 0 0 118.9 117.94 117.94
4 0 0 0 118.9 123.42 123.42
5 0 0 0 118.9 123.42 123.42

Atoms # full/kk

8730 9 2 -0.1268 7.246072603265864 8.189739734244244 8.387431533105419 0 0 1
8729 9 2 0.0265 6.27979071389457 8.706393508093832 9.26684745877817 0 0 1
8731 9 3 0.1268 7.300722263773951 7.11616937899486 8.278823148586149 0 0 1
8727 9 2 0.0265 4.601972724671317 7.120312731972609 8.980640588385413 0 0 1
8726 9 3 0.1268 4.78496755996554 8.522799255759523 7.266594773037924 0 0 1
8725 9 2 -0.1268 56.8611382092043 7.65651272571125 7.684658342669656 -1 0 1
8734 9 2 0 8.176163728807634 10.40388560571227 7.81297269070092 0 0 1
8747 9 2 -0.1268 7.121561374592635 10.928665983973936 8.673697189507678 0 0 1
8749 9 2 -0.1268 6.2072029451456485 10.131951812690295 9.441052337427458 0 0 1
8732 9 2 -0.1268 8.22151410103423 9.02109904942146 7.765076563042906 0 0 1
2204 3 3 0.1268 4.861824048634034 9.341744468499378 5.379401105438002 0 0 1
8733 9 3 0.1268 9.047502007483173 8.638845227323714 7.162077489381066 0 0 1
8736 9 5 -0.3964 9.793113172140377 10.576216145592 5.98527129128976 0 0 1
8735 9 1 0.3964 9.034912495144226 11.160076174531135 6.768373498888822 0 0 1
2205 3 2 -0.1268 5.828955404447193 10.902104820281366 4.48682004768083 0 0 1
2206 3 3 0.1268 5.709050772574189 11.650410516343698 5.295722838789301 0 0 1
952 1 3 0.1268 11.015535412335264 6.1186948443485 5.791218509135388 1 1 1
4027 4 2 0.0265 12.636868722679543 8.192854104256183 8.018360493821667 1 1 0
4047 4 2 -0.1268 13.857389848136458 7.457945335799495 7.789601214283383 1 1 0
4045 4 2 -0.1268 13.883555782290161 6.1463213311030085 8.389683000349132 1 1 0
4048 4 3 0.1268 14.804560867712317 7.8393233827888 7.323214023537078 1 1 0
4026 4 6 -0.053 12.2942046140903 9.542167523489006 7.574432678987707 1 1 0
4032 4 2 0 12.995750671481055 5.556700974226403 9.24881990692767 1 1 0
4046 4 3 0.1268 14.841502409597142 5.666816033078841 8.375326124087412 1 1 0
4024 4 3 0.1268 15.087007077374942 9.554946046348444 8.112355041624575 1 1 0
950 1 3 0.1268 12.749684897010313 6.8597232587141175 56.53123642236395 1 1 0
949 1 2 -0.1268 12.801042813582258 5.781914564534298 4.495761302689092 1 1 1
951 1 2 -0.1268 11.720201905405485 5.442905226459645 5.373972230730156 1 1 1
4029 4 3 0.1268 10.707346354708813 8.067772631401207 8.92638927051467 1 1 0
4033 4 1 0.3964 13.320860020369723 56.76912729981966 9.901698675674123 1 0 0
4031 4 3 0.1268 10.947068898524977 5.824754216182114 9.911754022340517 1 1 0
4030 4 2 -0.1268 11.799808491493812 6.28259180516167 9.383400898487961 1 1 0
4028 4 2 -0.1268 11.694121205044539 7.447166837954763 8.638449935562198 1 1 0
1524 2 3 0.1268 17.235629545311397 7.7046824156083655 7.121835743020283 0 1 -1
1523 2 2 -0.1268 17.83466739879578 8.640815907200807 6.705827134310616 0 1 -1
2960 3 3 0.1268 20.122686682884122 6.088189548477087 5.981846010814281 -1 -1 1
1522 2 3 0.1268 18.302466755184263 9.435864702496083 8.676638309547823 0 1 -1
1521 2 2 -0.1268 18.413781095863037 9.61750524702931 7.4939159904592145 0 1 -1
1519 2 3 0.1268 19.50932834983532 11.727505319097697 5.041376950846615 0 1 -1
3383 4 3 0.1268 21.314602038577167 6.253747375226537 9.424727241638045 0 0 0
1518 2 2 -0.1268 19.136536680435878 10.787292402866889 5.511102587352545 0 1 -1
2959 3 2 -0.1268 21.05313774998026 5.441040294287365 6.080429078731873 -1 -1 1
1520 2 2 0.0265 19.08306431660221 10.704199610128871 6.928187118368399 0 1 -1
1533 2 6 -0.053 19.42271275909259 11.839720614499502 7.724976071321571 0 1 -1
7766 8 3 0.1268 17.981474369004484 5.377537202242115 8.52685625013523 0 1 0
7765 8 2 -0.1268 17.57723147381714 5.4522341262440825 9.563457113900741 0 1 0
7764 8 3 0.1268 17.920635662937432 7.676624813667592 9.915895311461842 0 1 0
1516 2 2 -0.1268 18.711803517849166 9.722843741256092 4.713625862780798 0 1 -1
1515 2 2 0 18.130442372226174 8.56930948391164 5.335087360796287 0 1 -1
2933 3 2 -0.1268 23.45585283098613 5.439311717000546 5.9781114911089475 -1 -1 1
2934 3 3 0.1268 24.290960029305406 6.05243942597116 5.661296346161413 -1 -1 1
1566 2 3 0.1268 22.038936019534194 11.1424403359234 7.659240406907019 0 1 -1
10830 10 3 0.1268 24.344183078495018 4.446509599206664 8.555903271721807 -2 2 2
2935 3 2 0.0265 22.26602296883864 6.036742327925722 6.141172794615805 -1 -1 1
2936 3 6 -0.053 22.192076871544465 7.479691255992229 6.353299371336902 -1 -1 1
2956 3 3 0.1268 25.533280460202025 8.489331338154962 9.35757429926935 -1 -1 1
2957 3 2 -0.1268 23.913236407856388 7.815493737288558 7.946486164546327 -1 -1 1
2937 3 2 0.0265 23.37387106788402 8.086341825196154 6.619854632973851 -1 -1 1
2938 3 2 -0.1268 24.164992141470453 8.619767654072845 5.5708373232018165 -1 -1 1
2940 3 2 -0.1268 25.372751754895802 9.149937416681926 5.982457158666215 -1 -1 1
2955 3 2 -0.1268 25.08650672271947 8.457411993366751 8.325099816737279 -1 -1 1
2941 3 3 0.1268 26.068977348340482 9.509346937859018 5.195283704807787 -1 -1 1
2958 3 3 0.1268 23.321323832023328 7.304702992577752 8.869242646182638 -1 -1 1
2942 3 2 0 25.817171113748223 9.171195754748853 7.316083888466358 -1 -1 1
2944 3 5 -0.3964 27.435861712383755 10.766188255994418 7.33075489367706 -1 -1 1
2954 3 3 0.1268 27.24517940697043 7.211631273319291 9.254294058708055 -1 -1 1
2943 3 1 0.3964 27.0706231115698 9.74782984255879 7.817659491524297 -1 -1 1
2945 3 2 0 28.024750770307033 9.166160441515984 8.890375146300933 -1 -1 1
2953 3 2 -0.1268 28.13855203619272 7.827972958418085 9.332838336434483 -1 -1 1
2951 3 2 -0.1268 28.91181424778662 7.680210883731105 10.463183633626736 -1 -1 1
1417 2 3 0.1268 27.321365565996015 6.126216836308943 5.617089532041153 0 1 -1
1415 2 3 0.1268 28.17091803237386 5.101620583430034 8.043345234914145 0 1 -1
971 1 3 0.1268 29.481451813695326 8.547673162300741 5.639059093635861 1 1 1
970 1 2 -0.1268 30.3995461937693 7.940553878489473 5.362140405982426 1 1 1
973 1 3 0.1268 30.60434510336471 7.206798900369392 7.361557818255326 1 1 1
972 1 2 -0.1268 31.095416733541644 7.269347023551113 6.369151477067656 1 1 1
974 1 2 0.0265 32.48268371931222 7.056857435879596 6.184866547200272 1 1 1
987 1 6 -0.053 33.27777531132699 6.603999442099847 7.29223185888602 1 1 1
2946 3 2 -0.1268 29.18468900257649 10.039932687001993 9.259241829107404 -1 -1 1
2948 3 2 -0.1268 29.88050140784319 9.828099757840608 10.39070692047072 -1 -1 1
990 1 3 0.1268 32.985758221593485 4.9563562823773175 5.251854937048145 1 1 1
1020 1 3 0.1268 35.59344905439541 6.087797436819384 8.395132682947475 1 1 1
975 1 2 -0.1268 33.16489900358495 7.374788061112261 4.99920926724052 1 1 1
989 1 2 -0.1268 33.7509245443032 4.614525460863587 6.020176221491756 1 1 1
988 1 2 0.0265 34.028594993453815 5.4996747790184655 7.026552023187952 1 1 1
976 1 3 0.1268 34.26152737712263 7.1850240896267135 5.024800109614448 1 1 1
1019 1 2 -0.1268 35.226760059744414 5.244476128606806 7.793546468388404 1 1 1
5203 5 2 -0.1268 38.00661433723893 8.984936581254374 5.299788824761177 -1 -1 0
9328 9 3 0.1268 44.93315878954547 56.51581891391294 7.000428513066918 -1 0 1
5201 5 2 -0.1268 39.992591124889316 9.453148245417445 9.482632915226926 -1 -1 0
5202 5 3 0.1268 40.98854609945401 9.602644159778418 9.20367224937098 -1 -1 0
5193 5 2 0 39.159362345316666 9.032413904184526 8.406585847573607 -1 -1 0
5204 5 3 0.1268 37.547638838348064 8.043736125626722 5.6948903645761515 -1 -1 0
10843 10 3 0.1268 39.879551858284515 6.342683782106837 6.745150780750952 -2 2 2
9314 9 5 -0.3964 43.07633099103147 6.981075530675292 56.35451035170348 -1 1 0
9326 9 3 0.1268 44.62429716403159 5.019143551554404 5.052593990529608 -1 1 1
9325 9 2 -0.1268 44.69962251853484 5.681603053058897 5.919954702401351 -1 1 1
9308 9 2 -0.1268 45.46099171389696 7.270631374768156 7.910633147656982 -1 1 1
9310 9 2 -0.1268 44.7953003618659 7.827306350032366 6.813401251839024 -1 1 1
9327 9 2 -0.1268 45.109918279355455 5.104307728372082 7.074197794762575 -1 1 1
9312 9 2 0 44.550690622832704 6.98131213186735 5.638512709252505 -1 1 1
9313 9 1 0.3964 43.91724529892579 7.564125871112967 57.008133666501216 -1 1 0
9315 9 2 0 44.25683616894658 8.958857411587493 56.68437887102984 -1 1 0
9304 9 3 0.1268 48.28769650433004 6.176321398598635 9.433119461118388 -1 1 1
9311 9 3 0.1268 44.7014288262198 8.816766849942038 6.69006357456419 -1 1 1
9309 9 3 0.1268 45.83030361395029 8.111701342984555 8.674048506597023 -1 1 1
9317 9 3 0.1268 46.30776974825933 8.590970768910346 4.682762235245195 -1 1 1
9316 9 2 -0.1268 45.564130419077415 9.319261310701812 56.819861485143505 -1 1 0
9976 10 3 0.1268 45.25979372639347 54.73140263553279 56.338549935137394 -1 0 0
2702 3 2 -0.1268 48.34906389413642 9.678351554713604 8.697051072392647 -2 -1 0
2703 3 3 0.1268 49.15184318877324 8.957791881581695 8.351583591518583 -2 -1 0
2701 3 3 0.1268 47.65071649099214 9.767007371116598 6.695386082006758 -2 -1 0
2700 3 2 -0.1268 47.44250436268527 10.110504360428482 7.6942539953867755 -2 -1 0
4500 5 3 0.1268 48.49389104908657 7.598708930083674 6.640984537180139 0 0 0
4499 5 2 -0.1268 49.37851655740822 7.457128171444312 5.883362643030318 0 0 0
8723 9 2 -0.1268 55.824203600322505 6.967434343822342 6.973775103167105 -1 0 1
8724 9 3 0.1268 55.4815386319993 7.265033190993414 5.94966398836292 -1 0 1
4487 5 2 -0.1268 53.734845428678 8.146155848154272 9.46985838453817 0 0 0
4485 5 2 -0.1268 52.65498935803846 7.452019094437336 8.984016020350271 0 0 0
4484 5 2 0.0265 51.70497117213698 8.12685949603533 8.204261881441338 0 0 0
4482 5 2 -0.1268 51.694656069748234 9.543013500068728 8.089282412408059 0 0 0
4530 5 3 0.1268 52.77417903107248 7.297521539391334 5.994976648307898 0 0 0
4529 5 2 -0.1268 51.76067944272749 7.29492361783336 5.614937818412632 0 0 0
4479 5 2 0 53.82602673621385 9.583015743092453 9.11125420649252 0 0 0
4480 5 2 -0.1268 52.833699155695314 10.245676427004792 8.455227541115041 0 0 0
4483 5 3 0.1268 50.78082538837896 10.08043874007022 7.721361830110366 0 0 0
4486 5 3 0.1268 52.85208145588916 6.380097131427672 9.262524525032156 0 0 0
4497 5 6 -0.053 50.75891260692234 7.250513886343445 7.827799043374589 0 0 0
4498 5 2 0.0265 50.67104526058034 7.35767622855265 6.468254991725025 0 0 0
4476 5 2 0 55.45890687679497 11.678769208438009 9.47616471680666 0 0 0
8748 9 3 0.1268 6.81034611374385 11.91985992306415 8.846883890745103 0 0 1
4491 5 2 -0.1268 55.9726539789736 13.211230121151186 7.729953187655807 0 0 0
8743 9 2 -0.1268 9.90945728591203 14.51745202487658 5.119943795495679 0 0 1
8741 9 3 0.1268 8.805230376662173 15.477371701607213 8.147548993767664 0 0 1
8742 9 2 0.0265 9.511068819152708 15.444376424820147 6.126478558947442 0 0 1
8737 9 2 0 9.125485845604487 12.663341042093489 6.523368640353099 0 0 1
8738 9 2 -0.1268 8.864512844064276 13.572098009973068 7.5354419866304685 0 0 1
8739 9 3 0.1268 8.275893205069348 13.379562630614478 8.473220091057616 0 0 1
8740 9 2 -0.1268 8.91954942104452 14.95106348503782 7.23923740979805 0 0 1
4471 5 2 0.0265 56.99609007337983 13.813612048311947 8.54014532171106 0 0 0
4472 5 2 -0.1268 4.52489398614997 13.303731654736424 9.86634381249337 1 0 0
4470 5 6 -0.053 5.173046177842898 14.729281169137959 7.953618294873571 1 0 0
8745 9 2 -0.1268 9.644945125391072 13.217711256371006 5.288308356054532 0 0 1
8746 9 3 0.1268 9.839418054295857 12.687031417733978 56.970483512457875 0 0 0
4489 5 2 -0.1268 55.34322029441847 12.052552596936799 8.161649078775797 0 0 0
4490 5 3 0.1268 55.096605730526974 11.569588642114946 7.246781797357782 0 0 0
4492 5 3 0.1268 55.850797964224526 13.285846617060448 6.650265564688157 0 0 0
8755 9 6 -0.053 9.636156634779846 16.85968690080181 6.077250124833336 0 0 1
8757 9 2 -0.1268 11.577439777323551 16.65886576607331 7.618335667469177 0 0 1
10116 10 3 0.1268 10.39103340874843 8.73431172968357 55.401794765479686 -1 1 0
10114 10 3 0.1268 11.996846744818596 10.399973993513495 56.05375716186453 -1 1 0
4023 4 2 -0.1268 14.649648423276036 10.341184055618431 7.453661232824772 1 1 0
8744 9 3 0.1268 10.31034672687224 14.90223699011194 56.75459847297643 0 0 0
8758 9 3 0.1268 11.297338786349805 15.627297182808952 7.792406105997102 0 0 1
4050 4 3 0.1268 11.85143579798438 11.436413406497643 5.899453051528983 1 1 0
4049 4 2 -0.1268 12.939574629162587 11.379096452407135 6.157610080271691 1 1 0
4025 4 2 0.0265 13.273255273531667 10.415283968190337 7.150323626923462 1 1 0
4021 4 2 -0.1268 15.484784656850886 11.448081022343917 7.114908842237394 1 1 0
4020 4 2 0.0265 14.903261938084778 12.508900090182964 6.491031326023368 1 1 0
4052 4 3 0.1268 13.374925531992558 13.3018620905408 5.374436965548473 1 1 0
4051 4 2 -0.1268 13.661126844483112 12.454730324684482 5.897856845271818 1 1 0
4004 4 2 -0.1268 17.066366571468755 15.49845422643824 6.639577821079876 1 1 0
4019 4 6 -0.053 15.822549372098333 13.557600840500934 6.126216277071496 1 1 0
4006 4 2 0.0265 16.143484290437122 14.503377787866533 7.054695838025078 1 1 0
4022 4 3 0.1268 16.48301213532929 11.572856206069561 7.409040925224108 1 1 0
4005 4 3 0.1268 17.292359138720105 15.700498939408327 5.5334029954468615 1 1 0
4007 4 2 -0.1268 15.82439301978247 14.481826006463105 8.471746461278935 1 1 0
1536 2 3 0.1268 19.170248161165063 14.361991961431334 6.766539439744473 0 1 -1
1534 2 2 0.0265 20.417031820633294 12.724078577755007 7.463063435265316 0 1 -1
1535 2 2 -0.1268 20.27384957022095 13.977998281341922 6.9459491303905185 0 1 -1
1537 2 2 -0.1268 21.36063106073321 14.87696508582826 6.9524266009625855 0 1 -1
1538 2 3 0.1268 21.359501452314078 15.955321980157466 6.874545356994594 0 1 -1
1565 2 2 -0.1268 21.722043839998598 12.152424807666748 7.361811468139127 0 1 -1
4008 4 3 0.1268 15.169344299629113 13.71070247386259 8.894967266661963 1 1 0
4009 4 2 -0.1268 16.355265407256965 15.393299958902368 9.27246571694882 1 1 0
1539 2 2 0.0265 22.703525515599125 14.280894471220103 7.107374099531254 0 1 -1
1563 2 2 -0.1268 22.8284121528655 12.910609994449475 7.264565591617648 0 1 -1
6258 6 3 0.1268 26.35608586676417 12.127811710717143 57.00971941653425 0 1 -1
1564 2 3 0.1268 23.770249213223874 12.3472167649287 7.210887607985358 0 1 -1
3357 4 3 0.1268 27.677577569157016 13.596683039237801 9.637112579782963 0 0 0
1540 2 6 -0.053 23.972674622973372 14.805028326983418 6.939476996203863 0 1 -1
1541 2 2 0.0265 24.12238059414038 15.975224053862943 7.5927531090408635 0 1 -1
1561 2 2 -0.1268 24.99808581110563 17.068479318876705 7.231906447707806 0 1 -1
1562 2 3 0.1268 25.459968484452393 17.167345912805914 6.250322297289945 0 1 -1
1542 2 2 -0.1268 23.479275011283832 16.163458674982895 8.857616382379666 0 1 -1
3358 4 2 -0.1268 26.899138010979662 11.992328136287362 10.729095306173454 0 0 0
3359 4 3 0.1268 27.043302117915403 11.300861803202974 9.982196011651267 0 0 0
6248 6 5 -0.3964 26.756452739836465 16.07451371240844 4.47223797099257 0 1 0
6245 6 3 0.1268 27.542515722280573 15.280538946096891 6.99409956717339 0 1 0
6247 6 1 0.3964 26.841380349403344 14.822511763330539 4.466971655967338 0 1 0
6246 6 2 0 28.060450163105216 14.205991039000665 5.173903889866411 0 1 0
6260 6 3 0.1268 28.892376342891595 13.062118513503453 56.13564583895461 0 1 -1
6244 6 2 -0.1268 28.139941855439208 14.388180795580295 6.588415531079181 0 1 0
6259 6 2 -0.1268 28.893403243667862 13.312197134104418 4.592108358287772 0 1 0
6243 6 3 0.1268 29.074173081301137 13.892456898791453 8.436809500695094 0 1 0
6241 6 2 0.0265 30.034636992684334 12.860383343871797 6.73003224243478 0 1 0
6242 6 2 -0.1268 29.018668963762924 13.700552217783894 7.285223238082129 0 1 0
6238 6 3 0.1268 32.370908757311994 14.226317215884352 6.157554695167994 0 1 0
6262 6 3 0.1268 30.54611431543921 12.062780742997923 4.682924939992214 0 1 0
6261 6 2 -0.1268 29.912839664484697 12.718152779515869 5.313242058430711 0 1 0
6240 6 6 -0.053 31.00304415360049 12.283971927446988 7.448838880674802 0 1 0
6239 6 2 0.0265 32.264892750006965 12.220851730648263 6.908531645235751 0 1 0
6237 6 2 -0.1268 33.01287589162932 13.333639410311052 6.390406893853204 0 1 0
2947 3 3 0.1268 29.21277995612448 11.069808395567293 8.79347272208448 -1 -1 1
2949 3 3 0.1268 30.81795901880994 10.37723229653417 10.530807771807082 -1 -1 1
5240 5 3 0.1268 30.48398706690219 12.827464956403473 10.052395899258245 -1 -1 0
5238 5 3 0.1268 29.81658060156679 14.926108200821092 9.706289219600972 -1 -1 0
6224 6 3 0.1268 38.818545341898215 13.869447983938777 7.7290492229824 0 1 0
6263 6 2 -0.1268 33.08486944425958 11.018193812786532 7.195719658463398 0 1 0
6235 6 2 -0.1268 34.295424055715635 13.24498537939654 5.882921055474717 0 1 0
6264 6 3 0.1268 32.745597860822734 10.031040819758108 7.288915296657362 0 1 0
5194 5 2 -0.1268 37.728445538508836 9.060497805926016 8.718880020135492 -1 -1 0
6222 6 3 0.1268 37.09997570910886 12.323604918831638 7.358246430426191 0 1 0
6221 6 2 -0.1268 37.559245079053895 12.862305675160611 6.514153136481242 0 1 0
5195 5 3 0.1268 37.1456751875982 8.706028451442236 7.922047991786911 -1 -1 0
6223 6 2 -0.1268 38.55471019852371 13.816207367478809 6.691924213516851 0 1 0
6265 6 2 -0.1268 34.18982139945791 10.893731842241326 6.392094992035954 0 1 0
6234 6 2 0.0265 34.85205131639506 11.973200977746071 5.771296848212693 0 1 0
6266 6 3 0.1268 34.5008590417747 9.888862375454417 6.309154819251135 0 1 0
6220 6 2 0.0265 37.05413257978563 12.67286224165107 5.2483277671562005 0 1 0
5196 5 2 -0.1268 37.232488032511824 9.139126997971527 10.003449659617257 -1 -1 0
5197 5 3 0.1268 36.167366809773725 8.651955205232701 10.250712645425464 -1 -1 0
6215 6 2 0 39.02780103820771 14.679883218436682 5.733770122061092 0 1 0
2694 3 3 0.1268 42.562892196619174 14.768143616151258 7.003835797519727 -2 -1 0
5191 5 1 0.3964 39.806648742791694 9.151709340544155 7.055054122040384 -1 -1 0
2693 3 2 -0.1268 43.60463071598916 14.463642687854296 6.9494368299937985 -2 -1 0
5192 5 5 -0.3964 40.87752317504997 8.626767722023757 6.938438827819283 -1 -1 0
2696 3 3 0.1268 43.039378365833656 12.464415796562092 6.729670217330844 -2 -1 0
5190 5 2 0 38.99858341040752 9.747927633645897 5.885105238138648 -1 -1 0
5189 5 3 0.1268 40.51547431342338 11.372453448099982 5.708792501458938 -1 -1 0
5188 5 2 -0.1268 39.704427072495946 10.712263222592071 5.138016896393114 -1 -1 0
6226 6 3 0.1268 40.95807738101958 14.877500516879689 56.0898046777255 0 1 -1
2695 3 2 -0.1268 43.89853810901671 13.103750281018598 6.865061628494309 -2 -1 0
2697 3 2 0.0265 45.179133451637824 12.733479148931194 6.946176928050476 -2 -1 0
2692 3 2 0.0265 44.45539676773278 15.510189806588375 7.020128455487959 -2 -1 0
2721 3 2 -0.1268 46.16347848016471 13.745373578899615 7.172150657108766 -2 -1 0
2722 3 3 0.1268 47.18370766694105 13.502305655498668 7.135137348271401 -2 -1 0
2723 3 2 -0.1268 45.833970529914296 15.047509426208478 7.148459211992545 -2 -1 0
1222 2 3 0.1268 49.885694229731186 16.035474232376743 7.944519307028269 0 0 0
2724 3 3 0.1268 46.49120911375526 15.95031840763905 7.06408335610938 -2 -1 0
2691 3 6 -0.053 43.97785092323636 16.795707446959245 6.868544469475238 -2 -1 0
2698 3 6 -0.053 45.5300626045031 11.343283856238497 7.033916329847208 -2 -1 0
2699 3 2 0.0265 46.417612359712024 10.98854620087509 8.031573987479298 -2 -1 0
9319 9 3 0.1268 46.988758370719225 10.80077489543003 56.79257341285789 -1 1 0
2677 3 3 0.1268 45.07616432462662 16.771778051904434 4.557452324660909 -2 -1 0
9338 9 3 0.1268 49.1365396786784 15.107658800373963 4.499095275753355 -1 1 1
1199 2 2 0.0265 50.952197306502285 13.544976072729215 7.930314638594315 0 0 0
1200 2 6 -0.053 50.9813650324179 14.015763048304475 6.614580883676156 0 0 0
2210 3 3 0.1268 55.536266481196776 14.78398360075619 4.796035985417754 -1 0 1
4468 5 3 0.1268 55.233451025546174 15.854075063321197 7.735116601362301 0 0 0
1195 2 2 -0.1268 49.78204885410997 12.723149228533174 9.782598096016976 0 0 0
1198 2 3 0.1268 48.953100961083734 13.116547643255482 7.75346354797307 0 0 0
1197 2 2 -0.1268 49.808510656166945 13.153305320972045 8.49366949043035 0 0 0
1196 2 3 0.1268 48.857514964158 12.145013361457996 10.011663087644754 0 0 0
1223 2 2 -0.1268 52.09371926369741 13.814572383636069 8.672823144469811 0 0 0
1224 2 3 0.1268 52.950301375107614 14.363591434521846 8.278346718227137 0 0 0
4481 5 3 0.1268 52.82586149081071 11.366680957598584 8.465875727391754 0 0 0
4495 5 2 -0.1268 5.578212530681995 18.316742961162277 8.56636141936587 1 0 0
8100 8 3 0.1268 8.754917709111048 22.85757531146235 5.11712693608772 0 1 0
2213 3 2 -0.1268 5.358868605559221 20.337981761061087 5.286920258777274 0 0 1
2214 3 3 0.1268 6.243855980136642 20.6638555920406 5.81636262069313 0 0 1
8788 9 3 0.1268 10.233474570938832 19.52798609601522 6.183246495368844 0 0 1
2181 3 7 -0.4506 4.844358972585041 22.60746164213642 4.980790445210577 0 0 1
2182 3 2 0.0265 4.495174965302797 21.37291071770217 4.812244963799473 0 0 1
4448 5 2 -0.1268 5.088616397834289 22.168454723813035 8.385674905673838 1 0 0
4449 5 3 0.1268 4.491272942859601 22.436789903109986 7.427393170699649 1 0 0
3269 3 4 0.4241 56.92574767784046 23.216967023660075 57.00370654962364 -1 0 0
2211 3 2 -0.1268 5.025821205341938 19.017660848071216 5.1817709527102 0 0 1
2212 3 3 0.1268 5.5151001456513615 18.269244554377593 5.894803781566261 0 0 1
4467 5 2 -0.1268 56.038006016970556 16.420910606794372 8.096261314225226 0 0 0
4496 5 3 0.1268 6.504614248379962 18.979903539479075 8.778163684357839 1 0 0
4493 5 2 -0.1268 5.9222191477983 17.037150007886094 8.18534299273887 1 0 0
4464 5 2 0.0265 56.875202529524614 18.701628451664597 8.660819418648533 0 0 0
8088 8 5 -0.3964 8.648973551293025 20.44875110788635 4.463330973257122 0 1 0
4469 5 2 0.0265 4.816383547502077 16.006812360811885 8.107301055553812 1 0 0
4494 5 3 0.1268 6.915216331955426 16.678184371353858 8.07193999456125 1 0 0
4450 5 2 0.0265 4.841803534447269 21.033077646411076 9.220888656358536 1 0 0
4463 5 6 -0.053 56.51315054347904 20.108643895338957 8.78544708621283 0 0 0
8099 8 2 -0.1268 9.807134398271947 22.807409084300975 4.8745841004657615 0 1 0
8756 9 2 0.0265 10.665887987260415 17.41671915987112 6.821514036325433 0 0 1
8787 9 2 -0.1268 10.863505371595753 18.7671734549296 6.759433298737568 0 0 1
8785 9 2 -0.1268 12.079519359581726 19.297366244236308 7.156187569671913 0 0 1
8760 9 3 0.1268 13.238149098804465 16.560839579048444 8.712338633775587 0 0 1
8761 9 2 0.0265 12.902892666450583 18.573238756851 7.905612216356169 0 0 1
8762 9 6 -0.053 14.20096695650863 18.988702634515324 8.143137716585448 0 0 1
8759 9 2 -0.1268 12.65038810251486 17.177924041917308 8.123105485833708 0 0 1
8763 9 2 0.0265 14.413979183496261 19.6150211472359 9.347481021083459 0 0 1
8786 9 3 0.1268 12.261759445898498 20.3241646754623 6.928841071117292 0 0 1
8783 9 2 -0.1268 15.62621931678029 19.989409976513578 9.652764518748585 0 0 1
8764 9 2 -0.1268 13.454378717022433 19.85983728868262 10.403763781349415 0 0 1
8765 9 3 0.1268 12.442788794467301 19.21611548732335 10.541885918039497 0 0 1
8784 9 3 0.1268 16.44081431716458 19.85891317186558 8.878338529647463 0 0 1
4002 4 2 -0.1268 17.446169936092993 16.611109969627435 7.479870365836596 1 1 0
8050 8 2 -0.1268 22.248679165606227 19.195680656937956 6.476575367553858 0 1 0
8051 8 3 0.1268 22.133260109542995 18.367511442855054 7.304491184505857 0 1 0
4001 4 2 0 17.076820696238784 16.489777522120512 8.78909389197654 1 1 0
4003 4 3 0.1268 18.25797325915228 17.27719481259485 7.075446175832978 1 1 0
8052 8 2 0 21.712500829980275 20.443812962329233 6.603981057016909 0 1 0
8053 8 1 0.3964 21.191753914386645 20.752057709619734 7.875245565177538 0 1 0
8054 8 5 -0.3964 21.490335014343625 20.120396709495417 8.823395922832123 0 1 0
8065 8 2 -0.1268 21.82380174470163 21.33505488033515 5.468968564278769 0 1 0
8056 8 2 -0.1268 19.308646880423478 22.28842042032411 6.916647444340461 0 1 0
8055 8 2 0 20.236855577570285 21.9468664360687 7.874196524572246 0 1 0
8057 8 3 0.1268 18.913200458512613 21.564383557450988 6.159886643319938 0 1 0
8067 8 2 -0.1268 22.58960978718264 21.004691358833576 56.99036228367933 0 1 -1
8048 8 2 -0.1268 22.984493078463856 18.890650018969197 5.382288195358216 0 1 0
8049 8 3 0.1268 23.30886809941612 17.848348671698744 5.188485463700285 0 1 0
1550 2 2 -0.1268 24.551477088997462 21.250557358921643 8.747324257084493 0 1 -1
1553 2 3 0.1268 24.442434404366207 22.848582966516528 7.327292429431454 0 1 -1
1552 2 2 -0.1268 24.765816337505463 22.578707100746115 8.355088191908074 0 1 -1
1551 2 3 0.1268 24.292700488053082 20.62920984664675 7.89788422564982 0 1 -1
8072 8 3 0.1268 27.95604772189934 19.384923423839997 4.4671019306363915 0 1 0
8070 8 3 0.1268 25.767999472665835 20.174612576617925 4.640731191794994 0 1 0
1559 2 2 -0.1268 25.332220198641892 18.148799932438536 8.07016014221342 0 1 -1
1560 2 3 0.1268 26.05915417855206 18.860234830745483 7.762436958067659 0 1 -1
1549 2 2 0 24.768396225614833 20.814557172858894 10.030771842925377 0 1 -1
1546 2 2 0 24.605960173222083 18.270894863644813 9.301202020448201 0 1 -1
5230 5 2 -0.1268 29.254999285657902 18.372087846959722 7.631985524103279 -1 -1 0
5245 5 6 -0.053 28.56303649188553 20.503962792695283 6.642643296378758 -1 -1 0
5278 5 3 0.1268 31.093853162700377 20.987188186325632 7.589518935798642 -1 -1 0
8017 8 3 0.1268 32.871044922585426 17.969126201891093 7.813070327744289 0 1 0
5231 5 3 0.1268 29.05156441381198 17.885638772524807 6.7143043783143375 -1 -1 0
8016 8 2 -0.1268 33.87222459043271 17.57196122288974 7.6057313308593635 0 1 0
8015 8 3 0.1268 34.15436323739499 16.5843359420536 9.491131297338695 0 1 0
5232 5 2 0.0265 28.93639868366366 19.683723894509434 7.805181883721527 -1 -1 0
5234 5 3 0.1268 29.025105548584424 21.3766211973145 9.081011088725582 -1 -1 0
5229 5 3 0.1268 30.17403818544672 16.568874135239838 8.194680981156699 -1 -1 0
5233 5 2 -0.1268 29.354501123850504 20.343996515501253 8.937330831082305 -1 -1 0
5228 5 2 -0.1268 29.881906610002208 17.573122144084046 8.629599996444078 -1 -1 0
8014 8 2 -0.1268 34.6589322715746 16.93836062554037 8.605604899079905 0 1 0
8013 8 2 0.0265 36.09274402471307 16.789741667267435 8.468868999928269 0 1 0
646 1 3 0.1268 38.414697243418615 20.87805314951574 7.280730129477316 0 0 0
8011 8 2 0.0265 36.83240177332834 17.568636546991755 10.662848219515492 0 1 0
8012 8 6 -0.053 36.892775177837436 16.587965506534477 9.630326627143965 0 1 0
6216 6 2 -0.1268 38.54587333172729 14.42545125892997 56.94356881275542 0 1 -1
4158 4 3 0.1268 41.102228123883464 20.470806811282475 8.83046642526644 0 1 0