units real
atom_style full
boundary p p p

# --- Force Field Styles ---
pair_style lj/class2/coul/long 9.5 9.5
kspace_style pppm 1e-6
dielectric 1.000000
bond_style class2
angle_style class2
dihedral_style class2
improper_style class2
special_bonds lj/coul 0 0 1
pair_modify mix sixthpower tail yes
neighbor 2.0 bin
neigh_modify delay 0 every 1 check yes
neigh_modify one 4000
# KOKKOS: package loaded via -pk kokkos on the command line

read_data /home/arz2/PolyJarvis/data/PMMA3/lammps/equil/npt_production/npt_production_out.data
Reading data file ...
  orthogonal box = (4.4019421 4.4019421 4.4019421) to (47.349056 47.349056 47.349056)
  1 by 1 by 1 MPI processor grid
  reading atoms ...
  7520 atoms
  reading velocities ...
  7520 velocities
  scanning bonds ...
  4 = max bonds/atom
  scanning angles ...
  17 = max angles/atom
  scanning dihedrals ...
  40 = max dihedrals/atom
  scanning impropers ...
  14 = max impropers/atom
  orthogonal box = (4.4019421 4.4019421 4.4019421) to (47.349056 47.349056 47.349056)
  1 by 1 by 1 MPI processor grid
  reading bonds ...
  7510 bonds
  reading angles ...
  14000 angles
  reading dihedrals ...
  18910 dihedrals
  reading impropers ...
  8500 impropers
Finding 1-2 1-3 1-4 neighbors ...
  special bond factors lj:    0        0        1       
  special bond factors coul:  0        0        1       
     4 = max # of 1-2 neighbors
    11 = max # of 1-3 neighbors
    15 = max # of special neighbors
  special bonds CPU = 0.014 seconds
  read_data CPU = 0.323 seconds
include /home/arz2/PolyJarvis/data/PMMA3/lammps/equil/emc_build.params
# LAMMPS parameters created by EMC v9.4.4, build Jul 31 2025 20:33:44

# Variables

variable	seed		index	555781
variable	ntotal		index	7520
variable	fshape		index	1
variable	output		index	emc_build
variable	field		index	pcff/pcff
variable	location1	index	/home/arz2/emc/field/
variable	nav		index	0.6022141179
variable	temperature	index	300
variable	radius		index	5
variable	nrelax		index	100
variable	weight_nonbond	index	0.0001
variable	weight_bond	index	0.0001
variable	weight_focus	index	1
variable	cutoff		index	9.5
variable	charge_cutoff	index	9.5
variable	kappa		index	4
variable	density1	index	0.6
variable	lprevious	index	0
variable	lphase		index	51.7509981335
variable	f_poly		index	10
variable	chem_repeat	index	*CC(C)(C(=O)OC)*
variable	chem_cap	index	*[H]
variable	lg_repeat	index	15
variable	lg_cap		index	1
variable	norm_poly	index	100
variable	l_poly		index	752
variable	mg_repeat	index	88.10716
variable	mg_cap		index	1.00797
variable	m_poly		index	4407.37394
variable	n_poly		index	10
variable	mtotal		index	50079.3144
variable	nphase1		index	7520
variable	mphase1		index	50079.3144
variable	vphase1		index	138597.753721
variable	lbox		index	51.7509981335
variable	lphase1		index	51.7509981335
variable	lxx		index	51.7509981335
variable	lyy		index	51.7509981335
variable	lzz		index	51.7509981335
variable	lzy		index	0
variable	lzx		index	0
variable	lyx		index	0
variable	vtotal		index	138597.753721
variable	nl_poly		index	10

# Types

variable	type_c		index	1
variable	type_c1		index	2
variable	type_c_1	index	3
variable	type_hc		index	4
variable	type_o_1	index	5
variable	type_o_2	index	6

variable	type_bond_c_c	index	1
variable	type_bond_c_c1	index	2
variable	type_bond_c_c_1	index	3
variable	type_bond_c_hc	index	4
variable	type_bond_c_o_2	index	5
variable	type_bond_c1_c_1 index	6
variable	type_bond_c1_hc	index	7
variable	type_bond_c_1_o_1 index	8
variable	type_bond_c_1_o_2 index	9

variable	type_angle_c_c_c index	1
variable	type_angle_c_c_c1 index	2
variable	type_angle_c_c_c_1 index	3
variable	type_angle_c_c_hc index	4
variable	type_angle_c_c1_c index	5
variable	type_angle_c_c1_c_1 index	6
variable	type_angle_c_c1_hc index	7
variable	type_angle_c_c_1_o_1 index	8
variable	type_angle_c_c_1_o_2 index	9
variable	type_angle_c_o_2_c_1 index	10
variable	type_angle_c1_c_hc index	11
variable	type_angle_c1_c_1_o_1 index	12
variable	type_angle_c1_c_1_o_2 index	13
variable	type_angle_c_1_c1_hc index	14
variable	type_angle_hc_c_hc index	15
variable	type_angle_hc_c_o_2 index	16
variable	type_angle_o_1_c_1_o_2 index	17

# Clusters

variable	n0_poly		index	1
variable	n1_poly		index	10
variable	nl_poly		index	10

# Flags

variable	flag_charged	index	1

# Masses

mass		1    12.01115  # c
mass		2    12.01115  # c1
mass		3    12.01115  # c_1
mass		4     1.00797  # hc
mass		5    15.99940  # o_1
mass		6    15.99940  # o_2

# Potentials

pair_modify	mix sixthpower tail yes
special_bonds	lj/coul 0 0 1

# Pair Coeffs

pair_coeff	 1  1    0.05400    4.01000  # c,c
pair_coeff	 2  2    0.05400    4.01000  # c1,c1
pair_coeff	 3  3    0.12000    3.81000  # c_1,c_1
pair_coeff	 4  4    0.02000    2.99500  # hc,hc
pair_coeff	 5  5    0.26700    3.30000  # o_1,o_1
pair_coeff	 6  6    0.24000    3.42000  # o_2,o_2

# Bond Coeffs

bond_coeff	1    1.53000  299.67000 -501.77000  679.81000  # c,c
bond_coeff	2    1.53000  299.67000 -501.77000  679.81000  # c,c1
bond_coeff	3    1.52020  253.70670 -423.03700  396.90000  # c,c_1
bond_coeff	4    1.10100  345.00000 -691.89000  844.60000  # c,hc
bond_coeff	5    1.43000  326.72730 -608.53060  689.03330  # c,o_2
bond_coeff	6    1.52020  253.70670 -423.03700  396.90000  # c1,c_1
bond_coeff	7    1.10100  345.00000 -691.89000  844.60000  # c1,hc
bond_coeff	8    1.20200  851.14030 -1918.48820 2160.76590  # c_1,o_1
bond_coeff	9    1.36830  367.14810 -794.79080 1055.23190  # c_1,o_2

# Angle Coeffs

angle_coeff	 1  112.67000   39.51600   -7.44300   -9.55830  # c,c,c
angle_coeff	 2  112.67000   39.51600   -7.44300   -9.55830  # c,c,c1
angle_coeff	 3  108.52950   51.97470   -9.48510  -10.99850  # c,c,c_1
angle_coeff	 4  110.77000   41.45300  -10.60400    5.12900  # c,c,hc
angle_coeff	 5  112.67000   39.51600   -7.44300   -9.55830  # c,c1,c
angle_coeff	 6  108.52950   51.97470   -9.48510  -10.99850  # c,c1,c_1
angle_coeff	 7  110.77000   41.45300  -10.60400    5.12900  # c,c1,hc
angle_coeff	 8  123.14510   55.54310  -17.21230    0.13480  # c,c_1,o_1
angle_coeff	 9  100.31820   38.86310   -3.83230   -7.98020  # c,c_1,o_2
angle_coeff	10  113.28800   61.28680  -28.97860    7.99290  # c,o_2,c_1
angle_coeff	11  110.77000   41.45300  -10.60400    5.12900  # c1,c,hc
angle_coeff	12  123.14510   55.54310  -17.21230    0.13480  # c1,c_1,o_1
angle_coeff	13  100.31820   38.86310   -3.83230   -7.98020  # c1,c_1,o_2
angle_coeff	14  107.73360   40.60990  -28.81210    0.00000  # c_1,c1,hc
angle_coeff	15  107.66000   39.64100  -12.92100   -2.43180  # hc,c,hc
angle_coeff	16  107.68800   65.48010  -10.34980    5.88660  # hc,c,o_2
angle_coeff	17  120.79700   95.34460  -32.28690    6.37780  # o_1,c_1,o_2

# BondBond Coeffs

angle_coeff	 1 bb    0.00000    1.53000    1.53000  # c,c,c
angle_coeff	 2 bb    0.00000    1.53000    1.53000  # c,c,c1
angle_coeff	 3 bb    5.41990    1.53000    1.52020  # c,c,c_1
angle_coeff	 4 bb    3.38720    1.53000    1.10100  # c,c,hc
angle_coeff	 5 bb    0.00000    1.53000    1.53000  # c,c1,c
angle_coeff	 6 bb    5.41990    1.53000    1.52020  # c,c1,c_1
angle_coeff	 7 bb    3.38720    1.53000    1.10100  # c,c1,hc
angle_coeff	 8 bb   46.06850    1.52020    1.20200  # c,c_1,o_1
angle_coeff	 9 bb   19.10690    1.52020    1.36830  # c,c_1,o_2
angle_coeff	10 bb   45.45030    1.43000    1.36830  # c,o_2,c_1
angle_coeff	11 bb    3.38720    1.53000    1.10100  # c1,c,hc
angle_coeff	12 bb   46.06850    1.52020    1.20200  # c1,c_1,o_1
angle_coeff	13 bb   19.10690    1.52020    1.36830  # c1,c_1,o_2
angle_coeff	14 bb    0.71150    1.52020    1.10100  # c_1,c1,hc
angle_coeff	15 bb    5.33160    1.10100    1.10100  # hc,c,hc
angle_coeff	16 bb    5.64540    1.10100    1.43000  # hc,c,o_2
angle_coeff	17 bb  121.48800    1.20200    1.36830  # o_1,c_1,o_2

# BondAngle Coeffs

angle_coeff	 1 ba    8.01600    8.01600    1.53000    1.53000  # c,c,c
angle_coeff	 2 ba    8.01600    8.01600    1.53000    1.53000  # c,c,c1
angle_coeff	 3 ba   18.16780   15.87580    1.53000    1.52020  # c,c,c_1
angle_coeff	 4 ba   20.75400   11.42100    1.53000    1.10100  # c,c,hc
angle_coeff	 5 ba    8.01600    8.01600    1.53000    1.53000  # c,c1,c
angle_coeff	 6 ba   18.16780   15.87580    1.53000    1.52020  # c,c1,c_1
angle_coeff	 7 ba   20.75400   11.42100    1.53000    1.10100  # c,c1,hc
angle_coeff	 8 ba   34.99820   37.12980    1.52020    1.20200  # c,c_1,o_1
angle_coeff	 9 ba    1.34350    4.69780    1.52020    1.36830  # c,c_1,o_2
angle_coeff	10 ba   41.91160   46.46080    1.43000    1.36830  # c,o_2,c_1
angle_coeff	11 ba   20.75400   11.42100    1.53000    1.10100  # c1,c,hc
angle_coeff	12 ba   34.99820   37.12980    1.52020    1.20200  # c1,c_1,o_1
angle_coeff	13 ba    1.34350    4.69780    1.52020    1.36830  # c1,c_1,o_2
angle_coeff	14 ba   12.46320    9.17650    1.52020    1.10100  # c_1,c1,hc
angle_coeff	15 ba   18.10300   18.10300    1.10100    1.10100  # hc,c,hc
angle_coeff	16 ba    8.68640   57.49750    1.10100    1.43000  # hc,c,o_2
angle_coeff	17 ba   76.26140   71.87610    1.20200    1.36830  # o_1,c_1,o_2

# Dihedral Coeffs

dihedral_coeff	 1    0.00000    0.00000    0.05140    0.00000   -0.14300    0.00000  # c,c,c,c
dihedral_coeff	 2    0.00000    0.00000    0.05140    0.00000   -0.14300    0.00000  # c,c,c,c1
dihedral_coeff	 3    0.09720    0.00000    0.07220    0.00000   -0.25810    0.00000  # c,c,c,c_1
dihedral_coeff	 4    0.00000    0.00000    0.03160    0.00000   -0.16810    0.00000  # c,c,c,hc
dihedral_coeff	 5    0.00000    0.00000    0.05140    0.00000   -0.14300    0.00000  # c,c,c1,c
dihedral_coeff	 6    0.09720    0.00000    0.07220    0.00000   -0.25810    0.00000  # c,c,c1,c_1
dihedral_coeff	 7    0.00000    0.00000    0.03160    0.00000   -0.16810    0.00000  # c,c,c1,hc
dihedral_coeff	 8    0.04420    0.00000    0.02920    0.00000    0.05620    0.00000  # c,c,c_1,o_1
dihedral_coeff	 9    1.83410    0.00000    2.06030    0.00000   -0.01950    0.00000  # c,c,c_1,o_2
dihedral_coeff	10    0.00000    0.00000    0.03160    0.00000   -0.16810    0.00000  # c,c1,c,hc
dihedral_coeff	11    0.04420    0.00000    0.02920    0.00000    0.05620    0.00000  # c,c1,c_1,o_1
dihedral_coeff	12    1.83410    0.00000    2.06030    0.00000   -0.01950    0.00000  # c,c1,c_1,o_2
dihedral_coeff	13   -2.55940    0.00000    2.20130    0.00000    0.03250    0.00000  # c,c_1,o_2,c
dihedral_coeff	14   -2.55940    0.00000    2.20130    0.00000    0.03250    0.00000  # c,o_2,c_1,c1
dihedral_coeff	15    0.00000    0.00000    2.20890    0.00000    0.00000    0.00000  # c,o_2,c_1,o_1
dihedral_coeff	16    0.09720    0.00000    0.07220    0.00000   -0.25810    0.00000  # c1,c,c,c_1
dihedral_coeff	17   -0.02280    0.00000    0.02800    0.00000   -0.18630    0.00000  # c_1,c,c,hc
dihedral_coeff	18   -0.02280    0.00000    0.02800    0.00000   -0.18630    0.00000  # c_1,c1,c,hc
dihedral_coeff	19    0.00000    0.00000    0.00000    0.00000   -0.19320    0.00000  # c_1,o_2,c,hc
dihedral_coeff	20   -0.14320    0.00000    0.06170    0.00000   -0.10830    0.00000  # hc,c,c1,hc
dihedral_coeff	21   -0.18040    0.00000    0.00120    0.00000    0.03710    0.00000  # hc,c1,c_1,o_1
dihedral_coeff	22   -0.63590    0.00000    1.48070    0.00000   -0.04380    0.00000  # hc,c1,c_1,o_2

# MiddleBondTorsion Coeffs

dihedral_coeff	 1 mbt  -17.78700   -7.18770    0.00000    1.53000  # c,c,c,c
dihedral_coeff	 2 mbt  -17.78700   -7.18770    0.00000    1.53000  # c,c,c,c1
dihedral_coeff	 3 mbt   -1.59450    0.22670   -0.69110    1.53000  # c,c,c,c_1
dihedral_coeff	 4 mbt  -14.87900   -3.65810   -0.31380    1.53000  # c,c,c,hc
dihedral_coeff	 5 mbt  -17.78700   -7.18770    0.00000    1.53000  # c,c,c1,c
dihedral_coeff	 6 mbt   -1.59450    0.22670   -0.69110    1.53000  # c,c,c1,c_1
dihedral_coeff	 7 mbt  -14.87900   -3.65810   -0.31380    1.53000  # c,c,c1,hc
dihedral_coeff	 8 mbt    0.33880   -0.10960    0.12190    1.52020  # c,c,c_1,o_1
dihedral_coeff	 9 mbt  -17.32800   -5.79000   -3.21140    1.52020  # c,c,c_1,o_2
dihedral_coeff	10 mbt  -14.87900   -3.65810   -0.31380    1.53000  # c,c1,c,hc
dihedral_coeff	11 mbt    0.33880   -0.10960    0.12190    1.52020  # c,c1,c_1,o_1
dihedral_coeff	12 mbt  -17.32800   -5.79000   -3.21140    1.52020  # c,c1,c_1,o_2
dihedral_coeff	13 mbt    1.34450    3.55150   -4.92020    1.36830  # c,c_1,o_2,c
dihedral_coeff	14 mbt    1.34450    3.55150   -4.92020    1.36830  # c,o_2,c_1,c1
dihedral_coeff	15 mbt    4.26000    0.00000    0.00000    1.36830  # c,o_2,c_1,o_1
dihedral_coeff	16 mbt   -1.59450    0.22670   -0.69110    1.53000  # c1,c,c,c_1
dihedral_coeff	17 mbt   -3.50390    1.24580   -0.76100    1.53000  # c_1,c,c,hc
dihedral_coeff	18 mbt   -3.50390    1.24580   -0.76100    1.53000  # c_1,c1,c,hc
dihedral_coeff	19 mbt    0.00000    0.00000    0.00000    1.43000  # c_1,o_2,c,hc
dihedral_coeff	20 mbt  -14.26100   -0.53220   -0.48640    1.53000  # hc,c,c1,hc
dihedral_coeff	21 mbt    0.23590    0.91390    0.95940    1.52020  # hc,c1,c_1,o_1
dihedral_coeff	22 mbt  -13.76860   -2.59590    1.19340    1.52020  # hc,c1,c_1,o_2

# EndBondTorsion Coeffs

dihedral_coeff	 1 ebt   -0.07320    0.00000    0.00000   -0.07320    0.00000    0.00000    1.53000    1.53000  # c,c,c,c
dihedral_coeff	 2 ebt   -0.07320    0.00000    0.00000   -0.07320    0.00000    0.00000    1.53000    1.53000  # c,c,c,c1
dihedral_coeff	 3 ebt    0.00620   -0.00020    0.00360    0.00550    0.00600   -0.00090    1.53000    1.52020  # c,c,c,c_1
dihedral_coeff	 4 ebt    0.24860    0.24220   -0.09250    0.08140    0.05910    0.22190    1.53000    1.10100  # c,c,c,hc
dihedral_coeff	 5 ebt   -0.07320    0.00000    0.00000   -0.07320    0.00000    0.00000    1.53000    1.53000  # c,c,c1,c
dihedral_coeff	 6 ebt    0.00620   -0.00020    0.00360    0.00550    0.00600   -0.00090    1.53000    1.52020  # c,c,c1,c_1
dihedral_coeff	 7 ebt    0.24860    0.24220   -0.09250    0.08140    0.05910    0.22190    1.53000    1.10100  # c,c,c1,hc
dihedral_coeff	 8 ebt    0.26540    0.05030    0.10460   -0.28100    0.08160   -0.15220    1.53000    1.20200  # c,c,c_1,o_1
dihedral_coeff	 9 ebt    0.00000    0.00000    0.00000    0.00000    0.00000    0.00000    1.53000    1.36830  # c,c,c_1,o_2
dihedral_coeff	10 ebt    0.24860    0.24220   -0.09250    0.08140    0.05910    0.22190    1.53000    1.10100  # c,c1,c,hc
dihedral_coeff	11 ebt    0.26540    0.05030    0.10460   -0.28100    0.08160   -0.15220    1.53000    1.20200  # c,c1,c_1,o_1
dihedral_coeff	12 ebt    0.00000    0.00000    0.00000    0.00000    0.00000    0.00000    1.53000    1.36830  # c,c1,c_1,o_2
dihedral_coeff	13 ebt    0.00000    0.00000    0.00000    0.00000    0.00000    0.00000    1.52020    1.43000  # c,c_1,o_2,c
dihedral_coeff	14 ebt    0.00000    0.00000    0.00000    0.00000    0.00000    0.00000    1.43000    1.52020  # c,o_2,c_1,c1
dihedral_coeff	15 ebt    0.00000    0.00000    0.00000    0.00000    0.00000    0.00000    1.43000    1.20200  # c,o_2,c_1,o_1
dihedral_coeff	16 ebt    0.00620   -0.00020    0.00360    0.00550    0.00600   -0.00090    1.53000    1.52020  # c1,c,c,c_1
dihedral_coeff	17 ebt   -0.02040    0.36280   -0.44260   -0.00970   -0.03150   -0.07550    1.52020    1.10100  # c_1,c,c,hc
dihedral_coeff	18 ebt   -0.02040    0.36280   -0.44260   -0.00970   -0.03150   -0.07550    1.52020    1.10100  # c_1,c1,c,hc
dihedral_coeff	19 ebt    0.00000    0.00000    0.00000    0.00000    0.00000    0.00000    1.36830    1.10100  # c_1,o_2,c,hc
dihedral_coeff	20 ebt    0.21300    0.31200    0.07770    0.21300    0.31200    0.07770    1.10100    1.10100  # hc,c,c1,hc
dihedral_coeff	21 ebt    1.21430    0.28310    0.39160   -0.22980    0.03540    0.38530    1.10100    1.20200  # hc,c1,c_1,o_1
dihedral_coeff	22 ebt    0.00000    0.00000    0.00000    0.00000    0.00000    0.00000    1.10100    1.36830  # hc,c1,c_1,o_2

# AngleTorsion Coeffs

dihedral_coeff	 1 at    0.38860   -0.31390    0.13890    0.38860   -0.31390    0.13890  112.67000  112.67000  # c,c,c,c
dihedral_coeff	 2 at    0.38860   -0.31390    0.13890    0.38860   -0.31390    0.13890  112.67000  112.67000  # c,c,c,c1
dihedral_coeff	 3 at   -0.26070    0.32030   -0.22830    0.05150   -0.06740   -0.04740  112.67000  108.52950  # c,c,c,c_1
dihedral_coeff	 4 at   -0.24540    0.00000   -0.11360    0.31130    0.45160   -0.19880  112.67000  110.77000  # c,c,c,hc
dihedral_coeff	 5 at    0.38860   -0.31390    0.13890    0.38860   -0.31390    0.13890  112.67000  112.67000  # c,c,c1,c
dihedral_coeff	 6 at   -0.26070    0.32030   -0.22830    0.05150   -0.06740   -0.04740  112.67000  108.52950  # c,c,c1,c_1
dihedral_coeff	 7 at   -0.24540    0.00000   -0.11360    0.31130    0.45160   -0.19880  112.67000  110.77000  # c,c,c1,hc
dihedral_coeff	 8 at    0.08850   -1.37030   -0.54520    0.67500    0.59650    0.67250  108.52950  123.14510  # c,c,c_1,o_1
dihedral_coeff	 9 at    0.00000    0.00000    0.00000    0.00000    0.00000    0.00000  108.52950  100.31820  # c,c,c_1,o_2
dihedral_coeff	10 at   -0.24540    0.00000   -0.11360    0.31130    0.45160   -0.19880  112.67000  110.77000  # c,c1,c,hc
dihedral_coeff	11 at    0.08850   -1.37030   -0.54520    0.67500    0.59650    0.67250  108.52950  123.14510  # c,c1,c_1,o_1
dihedral_coeff	12 at    0.00000    0.00000    0.00000    0.00000    0.00000    0.00000  108.52950  100.31820  # c,c1,c_1,o_2
dihedral_coeff	13 at    0.00000    0.00000    0.00000    0.00000    0.00000    0.00000  100.31820  113.28800  # c,c_1,o_2,c
dihedral_coeff	14 at    0.00000    0.00000    0.00000    0.00000    0.00000    0.00000  113.28800  100.31820  # c,o_2,c_1,c1
dihedral_coeff	15 at    0.00000    0.00000    0.00000    0.00000    0.00000    0.00000  113.28800  120.79700  # c,o_2,c_1,o_1
dihedral_coeff	16 at   -0.26070    0.32030   -0.22830    0.05150   -0.06740   -0.04740  112.67000  108.52950  # c1,c,c,c_1
dihedral_coeff	17 at   -0.74660   -0.94480   -0.63210    0.01620    1.42110   -1.40920  108.52950  110.77000  # c_1,c,c,hc
dihedral_coeff	18 at   -0.74660   -0.94480   -0.63210    0.01620    1.42110   -1.40920  108.52950  110.77000  # c_1,c1,c,hc
dihedral_coeff	19 at    0.00000    0.00000    0.00000    0.00000    0.00000    0.00000  113.28800  107.68800  # c_1,o_2,c,hc
dihedral_coeff	20 at   -0.80850    0.55690   -0.24660   -0.80850    0.55690   -0.24660  110.77000  110.77000  # hc,c,c1,hc
dihedral_coeff	21 at    9.12990   -0.48470    0.35820   -1.49460    0.73080   -0.20830  107.73360  123.14510  # hc,c1,c_1,o_1
dihedral_coeff	22 at    0.00000    0.00000    0.00000    0.00000    0.00000    0.00000  107.73360  100.31820  # hc,c1,c_1,o_2

# AngleAngleTorsion Coeffs

dihedral_coeff	 1 aat  -22.04500  112.67000  112.67000  # c,c,c,c
dihedral_coeff	 2 aat  -22.04500  112.67000  112.67000  # c,c,c,c1
dihedral_coeff	 3 aat   -0.38010  112.67000  108.52950  # c,c,c,c_1
dihedral_coeff	 4 aat  -16.16400  112.67000  110.77000  # c,c,c,hc
dihedral_coeff	 5 aat  -22.04500  112.67000  112.67000  # c,c,c1,c
dihedral_coeff	 6 aat   -0.38010  112.67000  108.52950  # c,c,c1,c_1
dihedral_coeff	 7 aat  -16.16400  112.67000  110.77000  # c,c,c1,hc
dihedral_coeff	 8 aat   -8.01900  108.52950  123.14510  # c,c,c_1,o_1
dihedral_coeff	 9 aat    0.00000  108.52950  100.31820  # c,c,c_1,o_2
dihedral_coeff	10 aat  -16.16400  112.67000  110.77000  # c,c1,c,hc
dihedral_coeff	11 aat   -8.01900  108.52950  123.14510  # c,c1,c_1,o_1
dihedral_coeff	12 aat    0.00000  108.52950  100.31820  # c,c1,c_1,o_2
dihedral_coeff	13 aat    0.00000  100.31820  113.28800  # c,c_1,o_2,c
dihedral_coeff	14 aat    0.00000  113.28800  100.31820  # c,o_2,c_1,c1
dihedral_coeff	15 aat    0.00000  113.28800  120.79700  # c,o_2,c_1,o_1
dihedral_coeff	16 aat   -0.38010  112.67000  108.52950  # c1,c,c,c_1
dihedral_coeff	17 aat   -5.36240  108.52950  110.77000  # c_1,c,c,hc
dihedral_coeff	18 aat   -5.36240  108.52950  110.77000  # c_1,c1,c,hc
dihedral_coeff	19 aat    0.00000  113.28800  107.68800  # c_1,o_2,c,hc
dihedral_coeff	20 aat  -12.56400  110.77000  110.77000  # hc,c,c1,hc
dihedral_coeff	21 aat  -15.34960  107.73360  123.14510  # hc,c1,c_1,o_1
dihedral_coeff	22 aat    0.00000  107.73360  100.31820  # hc,c1,c_1,o_2

# BondBond13 Coeffs

dihedral_coeff	 1 bb13    0.00000    1.53000    1.53000  # c,c,c,c
dihedral_coeff	 2 bb13    0.00000    1.53000    1.53000  # c,c,c,c1
dihedral_coeff	 3 bb13    0.00000    1.53000    1.52020  # c,c,c,c_1
dihedral_coeff	 4 bb13    0.00000    1.53000    1.10100  # c,c,c,hc
dihedral_coeff	 5 bb13    0.00000    1.53000    1.53000  # c,c,c1,c
dihedral_coeff	 6 bb13    0.00000    1.53000    1.52020  # c,c,c1,c_1
dihedral_coeff	 7 bb13    0.00000    1.53000    1.10100  # c,c,c1,hc
dihedral_coeff	 8 bb13    0.00000    1.53000    1.20200  # c,c,c_1,o_1
dihedral_coeff	 9 bb13    0.00000    1.53000    1.36830  # c,c,c_1,o_2
dihedral_coeff	10 bb13    0.00000    1.53000    1.10100  # c,c1,c,hc
dihedral_coeff	11 bb13    0.00000    1.53000    1.20200  # c,c1,c_1,o_1
dihedral_coeff	12 bb13    0.00000    1.53000    1.36830  # c,c1,c_1,o_2
dihedral_coeff	13 bb13    0.00000    1.52020    1.43000  # c,c_1,o_2,c
dihedral_coeff	14 bb13    0.00000    1.43000    1.52020  # c,o_2,c_1,c1
dihedral_coeff	15 bb13    0.00000    1.43000    1.20200  # c,o_2,c_1,o_1
dihedral_coeff	16 bb13    0.00000    1.53000    1.52020  # c1,c,c,c_1
dihedral_coeff	17 bb13    0.00000    1.52020    1.10100  # c_1,c,c,hc
dihedral_coeff	18 bb13    0.00000    1.52020    1.10100  # c_1,c1,c,hc
dihedral_coeff	19 bb13    0.00000    1.36830    1.10100  # c_1,o_2,c,hc
dihedral_coeff	20 bb13    0.00000    1.10100    1.10100  # hc,c,c1,hc
dihedral_coeff	21 bb13    0.00000    1.10100    1.20200  # hc,c1,c_1,o_1
dihedral_coeff	22 bb13    0.00000    1.10100    1.36830  # hc,c1,c_1,o_2

# Improper Coeffs

improper_coeff	 1    0.00000    0.00000  # c,c,c,c
improper_coeff	 2    0.00000    0.00000  # c,c,c,c_1
improper_coeff	 3    0.00000    0.00000  # c,c,c,hc
improper_coeff	 4    0.00000    0.00000  # c,c,c1,hc
improper_coeff	 5    0.00000    0.00000  # c,c,hc,hc
improper_coeff	 6    0.00000    0.00000  # c,c1,hc,hc
improper_coeff	 7    0.00000    0.00000  # c,hc,hc,hc
improper_coeff	 8    0.00000    0.00000  # c,hc,hc,o_2
improper_coeff	 9    0.00000    0.00000  # c1,c,c,c_1
improper_coeff	10    0.00000    0.00000  # c1,c,c,hc
improper_coeff	11    0.00000    0.00000  # c1,c,c_1,hc
improper_coeff	12    0.00000    0.00000  # c1,c,hc,c_1
improper_coeff	13   46.92640    0.00000  # c_1,c,o_2,o_1
improper_coeff	14   46.92640    0.00000  # c_1,c1,o_2,o_1

# AngleAngle Coeffs

improper_coeff	 1 aa   -0.17290   -0.17290   -0.17290  112.67000  112.67000  112.67000  # c,c,c,c
improper_coeff	 2 aa    0.00000    0.00000    0.00000  112.67000  108.52950  108.52950  # c,c,c,c_1
improper_coeff	 3 aa   -1.31990   -1.31990    0.11840  112.67000  110.77000  110.77000  # c,c,c,hc
improper_coeff	 4 aa   -1.31990   -1.31990    0.11840  112.67000  110.77000  110.77000  # c,c,c1,hc
improper_coeff	 5 aa    0.27380   -0.48250    0.27380  110.77000  110.77000  107.66000  # c,c,hc,hc
improper_coeff	 6 aa    0.27380   -0.48250    0.27380  110.77000  110.77000  107.66000  # c,c1,hc,hc
improper_coeff	 7 aa   -0.31570   -0.31570   -0.31570  107.66000  107.66000  107.66000  # c,hc,hc,hc
improper_coeff	 8 aa    0.00000    0.00000    0.00000  107.66000  107.68800  107.68800  # c,hc,hc,o_2
improper_coeff	 9 aa    0.00000    0.00000    0.00000  112.67000  108.52950  108.52950  # c1,c,c,c_1
improper_coeff	10 aa   -1.31990   -1.31990    0.11840  112.67000  110.77000  110.77000  # c1,c,c,hc
improper_coeff	11 aa    2.04030   -1.82020    1.08270  108.52950  110.77000  107.73360  # c1,c,c_1,hc
improper_coeff	12 aa    1.08270   -1.82020    2.04030  110.77000  108.52950  107.73360  # c1,c,hc,c_1
improper_coeff	13 aa    0.00000    0.00000    0.00000  100.31820  123.14510  120.79700  # c_1,c,o_2,o_1
improper_coeff	14 aa    0.00000    0.00000    0.00000  100.31820  123.14510  120.79700  # c_1,c1,o_2,o_1


# --- Thermo Output ---
thermo_style custom step time temp press enthalpy etotal ke pe ebond eangle edihed eimp evdwl ecoul elong etail vol lx ly lz density pxx pyy pzz
thermo_modify flush yes
thermo 1000

# --- Trajectory ---
dump dump_npt all custom 1000 npt_cool300.dump id type mol x y z ix iy iz vx vy vz

# --- Restart Checkpointing ---
# No restart checkpointing

# --- Initial Velocities (optional) ---
# Velocities read from data file

# --- SHAKE Constraints ---
# SHAKE disabled

# --- NPT Thermostat + Barostat (Nose-Hoover) ---
# T_damp = 100.0 fs  (heat bath coupling)
# P_damp = 1000.0 fs  (pressure bath coupling, ~10x T_damp typical)
# Ramp: T=550.0->300.0K  P=1.0->1.0atm
timestep 1.0
fix npt_fix all npt temp 550.0 300.0 100.0 iso 1.0 1.0 1000.0

run 1000000
PPPM Kokkos initialization ...
  using 12-bit tables for long-range coulomb
  G vector (1/distance) = 0.33133703
  grid = 45 45 45
  stencil order = 5
  estimated absolute RMS force accuracy = 0.00030908502
  estimated relative force accuracy = 9.3080036e-07
  using double precision cuFFT
  3d grid and FFT values/proc = 140608 91125
Generated 15 of 15 mixed pair_coeff terms from sixthpower/sixthpower mixing rule
Neighbor list info ...
  update: every = 1 steps, delay = 0 steps, check = yes
  max neighbors/atom: 4000, page size: 100000
  master list distance cutoff = 11.5
  ghost atom cutoff = 11.5
  binsize = 11.5, bins = 4 4 4
  1 neighbor lists, perpetual/occasional/extra = 1 0 0
  (1) pair lj/class2/coul/long/kk, perpetual
      attributes: full, newton off, kokkos_device
      pair build: full/bin/kk/device
      stencil: full/bin/3d
      bin: kk/device
Per MPI rank memory allocation (min/avg/max) = 61.56 | 61.56 | 61.56 Mbytes
   Step          Time           Temp          Press         Enthalpy        TotEng         KinEng         PotEng         E_bond        E_angle        E_dihed        E_impro         E_vdwl         E_coul         E_long         E_tail         Volume           Lx             Ly             Lz          Density          Pxx            Pyy            Pzz      
         0   0              552.18572      526.93988      39552.381      38943.632      12375.979      26567.653      6084.1207      9015.0808     -1606.062       318.69687      444.54814      42910.25      -30598.982     -495.48348      79214.001      42.947114      42.947114      42.947114      1.0497974      1831.2827      2133.8319     -2384.295     
      1000   1000           543.17222      349.92837      39008.436      38603.575      12173.962      26429.614      6054.8361      8794.5846     -1607.0861      347.09729      522.88286      42921.924     -30604.625     -494.74471      79332.287      42.96848       42.96848       42.96848       1.0482321      501.76317      1074.8515     -526.82954    
      2000   2000           546.70827     -873.03637      37711.679      38716.971      12253.214      26463.757      6118.0253      8946.8384     -1675.796       355.98298      386.90716      42933.987     -30602.188     -497.10368      78955.821      42.900404      42.900404      42.900404      1.0532301     -1460.0956      316.96071     -1475.9742    
      3000   3000           555.99781      1059.6351      40347.02       39131.676      12461.418      26670.258      6035.4773      8978.4831     -1555.6081      318.32288      557.13392      42939.642     -30603.194     -499.07299      78644.266      42.843902      42.843902      42.843902      1.0574026      3144.8748     -890.04376      924.07432    
      4000   4000           542.59863      1500.6719      40588.344      38865.511      12161.106      26704.405      6216.5192      8991.6754     -1575.3384      295.58499      475.57993      42911.796     -30611.412     -498.59688      78719.363      42.857535      42.857535      42.857535      1.0563938      2401.2992      903.25195      1197.4645    
      5000   5000           548.8504      -37.936142      38861.774      38905.737      12301.225      26604.511      6207.2406      8878.3954     -1539.9343      315.77994      429.28355      42913.197     -30599.451     -493.94312      79461.03       42.991711      42.991711      42.991711      1.0465338     -696.95496      1133.4242     -550.27769    
      6000   6000           556.37618      504.63204      39611.161      39030.645      12469.898      26560.747      6057.1702      9000.1292     -1606.3726      314.71732      507.85355      42899.408     -30612.159     -497.58557      78879.355      42.886551      42.886551      42.886551      1.0542511     -1353.8421      1111.0543      1756.6839    
      7000   7000           543.43816      1007.8591      40043.875      38885.63       12179.922      26705.708      6163.0263      8951.418      -1537.8399      341.9155       459.11124      42930.943     -30602.866     -498.08857      78799.698      42.872109      42.872109      42.872109      1.0553169     -107.1103       1779.9832      1350.7045    
      8000   8000           550.92865      1345.6884      40406.151      38859.55       12347.805      26511.746      6018.3082      9052.5629     -1574.8784      326.20497      412.49488      42883.631     -30606.578     -498.05023      78805.765      42.87321       42.87321       42.87321       1.0552356      1756.9989      413.40227      1866.6641    
      9000   9000           545.41675     -477.45454      38415.388      38961.753      12224.268      26737.485      6158.5949      9088.3549     -1587.0484      342.47962      459.38005      42877.341     -30601.617     -500.21478      78464.753      42.811279      42.811279      42.811279      1.0598217     -413.37971      563.4987      -1582.4826    
     10000   10000          540.87775     -578.53954      38048.4        38709.308      12122.537      26586.771      6104.5987      9074.8678     -1553.6865      330.71462      324.2479       42907.294     -30601.265     -501.07088      78330.694      42.786884      42.786884      42.786884      1.0616356      1045.834      -3362.2845      580.83188    
     11000   11000          546.36361      1071.7632      39911.635      38678.72       12245.49       26433.231      6055.7792      8845.3301     -1556.0149      322.78754      447.2565       42926.086     -30607.994     -497.59145      78878.423      42.886382      42.886382      42.886382      1.0542636      1375.4978      3109.0092     -1269.2174    
     12000   12000          546.98187      358.66497      39263.822      38850.369      12259.347      26591.022      6160.7108      8881.4352     -1506.4368      332.13177      366.67452      42956.352     -30599.845     -496.55728      79042.703      42.916134      42.916134      42.916134      1.0520725      810.0291      -848.59698      1114.5628    
     13000   13000          545.7695      -861.23935      37713.826      38701.011      12232.174      26468.838      6159.3404      8886.0508     -1621.7911      335.07424      405.99869      42902.543     -30598.378     -499.38104      78595.753      42.835091      42.835091      42.835091      1.0580553     -2478.2178     -68.650751     -36.849518    
     14000   14000          541.61431     -167.75455      38449.376      38641.76       12139.045      26502.715      6103.472       8837.51       -1477.634       304.91886      440.72734      42910.863     -30617.143     -499.12871      78635.488      42.842308      42.842308      42.842308      1.0575206     -1017.5267      106.21823      408.04478    
     15000   15000          541.58113      900.19402      39549.572      38514.548      12138.301      26376.247      6043.4372      8855.3231     -1583.5597      344.18937      417.3664       42898.186     -30598.696     -497.84307      78838.557      42.879155      42.879155      42.879155      1.0547967      679.6506       2218.5747     -197.64323    
     16000   16000          542.90743     -1643.1252      36959.081      38840.422      12168.027      26672.394      6080.7875      9026.3359     -1584.9179      306.3029       554.89392      42894.598     -30605.606     -499.93134      78509.239      42.819368      42.819368      42.819368      1.0592212     -3260.9287      194.28692     -1862.7338    
     17000   17000          547.56477     -423.91857      38420.559      38906.728      12272.411      26634.317      6115.3427      8962.5343     -1508.1596      333.19666      437.42945      42896.6       -30602.626     -499.11694      78637.342      42.842645      42.842645      42.842645      1.0574957     -2051.8137     -629.16037      1409.2183    
     18000   18000          552.35012     -480.40562      38140.804      38689.298      12379.664      26309.634      6021.0272      8789.9183     -1591.6049      329.09994      450.55486      42915.785     -30605.146     -501.35275      78286.655      42.778864      42.778864      42.778864      1.0622328     -860.47285      487.08783     -1067.8318    
     19000   19000          544.189       -1259.0429      36916.082      38356.076      12196.751      26159.325      5840.0029      8817.724      -1559.6167      316.20579      412.77427      42926.894     -30594.659     -500.48009      78423.159      42.803713      42.803713      42.803713      1.0603838     -319.29393     -1029.4847     -2428.35      
     20000   20000          551.59473     -872.01753      37688.081      38701.219      12362.733      26338.486      6057.3016      8761.6099     -1576.9696      304.3958       475.45073      42922.578     -30605.88      -492.67847      79664.997      43.028465      43.028465      43.028465      1.0438543     -1348.8731      160.37814     -1427.5576    
     21000   21000          545.30275     -698.2614       37939.985      38741.047      12221.713      26519.334      6223.8392      8935.0245     -1639.0845      323.4191       399.42497      42884.213     -30607.502     -498.95229      78663.292      42.847357      42.847357      42.847357      1.0571468      193.22235     -479.25459     -1808.752     
     22000   22000          544.32166      84.838299      38909.404      38811.925      12199.724      26612.201      6081.9882      8992.2087     -1573.1098      327.93806      471.09339      42908.077     -30595.995     -498.17983      78785.263      42.869491      42.869491      42.869491      1.0555102     -186.2429      -785.41455      1226.1723    
     23000   23000          540.29536     -1780.0269      36515.362      38564.926      12109.484      26455.443      6106.2312      8820.0783     -1550.3093      306.59776      468.92824      42897.71      -30593.794     -497.13222      78951.288      42.899583      42.899583      42.899583      1.0532906     -1804.5878     -2073.1469     -1462.3461    
     24000   24000          547.86387     -250.62708      38282.844      38570.957      12279.115      26291.842      6022.7358      8734.5643     -1587.8054      328.78942      506.30808      42893.804     -30606.554     -497.93433      78824.108      42.876536      42.876536      42.876536      1.0549901      967.9377      -183.0566      -1536.7623    
     25000   25000          542.98287     -343.84024      38247.474      38642.87       12169.718      26473.151      6080.4374      8912.4194     -1586.9716      337.14724      441.5249       42887.918     -30599.324     -497.77414      78849.475      42.881135      42.881135      42.881135      1.0546507      80.476826     -737.32208     -374.67545    
     26000   26000          538.38357     -25.887016      38524.739      38554.463      12066.635      26487.828      6046.8707      8997.5199     -1589.2299      338.43612      388.6681       42910.805     -30605.242     -498.52361      78730.934      42.859635      42.859635      42.859635      1.0562386     -1721.4266      575.15643      1068.6092    
     27000   27000          544.54538      578.87178      39346.434      38682.021      12204.738      26477.283      6039.9102      8740.9134     -1514.0376      313.79983      562.20029      42933.748     -30599.251     -498.71372      78700.921      42.854188      42.854188      42.854188      1.0566414      56.266559     -218.79584      1899.1446    
     28000   28000          535.71875      202.59608      38586.424      38352.203      12006.909      26345.294      5891.3979      8742.1245     -1526.4943      338.63057      610.71837      42897.348     -30608.431     -495.12124      79271.956      42.957585      42.957585      42.957585      1.0490299     -1141.6042      1309.4777      439.9148     
     29000   29000          549.28871      263.58921      39100.946      38794.849      12311.049      26483.8        6035.449       8847.4875     -1543.5627      323.38271      518.90571      42906.833     -30604.695     -492.9196       79626.027      43.021447      43.021447      43.021447      1.0443652      1972.7407     -1557.9031      375.93003    
     30000   30000          544.03644     -36.495742      38468.359      38510.114      12193.331      26316.782      5988.0762      8800.5979     -1598.527       342.09388      479.78383      42906.803     -30602.045     -500.31584      78448.904      42.808396      42.808396      42.808396      1.0600358      335.2126       602.59545     -1047.2953    
     31000   31000          552.3338      -1624.8394      36968.713      38843.885      12379.298      26464.587      6222.8232      8970.8138     -1607.7651      287.64421      295.49905      42904.59      -30609.018     -495.99394      79132.478      42.932376      42.932376      42.932376      1.0508789     -1350.8609     -2383.7189     -1139.9383    
     32000   32000          536.18545     -1097.2617      37143.986      38413.511      12017.369      26396.142      6132.9079      8865.4757     -1673.5875      328.16594      465.03528      42888.77      -30610.625     -494.73886      79333.224      42.968649      42.968649      42.968649      1.0482197     -1927.8449     -412.38664     -951.55342    
     33000   33000          548.75654      158.3492       39000.206      38818.324      12299.122      26519.202      6139.3064      8999.1281     -1672.3998      320.6755       417.80492      42916.863     -30602.176     -498.34782      78758.706      42.864674      42.864674      42.864674      1.0558661      468.6008       495.1292      -488.68238    
     34000   34000          540.83109      753.97552      39359.531      38484.529      12121.491      26363.038      5883.4646      8932.3665     -1596.8734      302.14912      525.69469      42923.208     -30606.971     -493.23658      79574.854      43.012229      43.012229      43.012229      1.0450368     -1524.1294      1105.8052      2680.2508    
     35000   35000          537.20401      435.986        39021.138      38518.311      12040.198      26478.113      6131.796       8838.84       -1627.0675      327.97566      482.23045      42928.681     -30604.343     -496.31873      79080.694      42.923009      42.923009      42.923009      1.051567       509.02386     -1747.806       2546.7401    
     36000   36000          539.86273      787.7796       39271.627      38370.484      12099.787      26270.696      5996.761       8923.0385     -1637.1194      328.90473      357.59394      42903.588     -30602.07      -500.40074      78435.593      42.805975      42.805975      42.805975      1.0602157      1811.2227      1179.305      -627.1889     
     37000   37000          535.06145     -849.32195      37504.398      38484.15       11992.178      26491.973      6137.1566      8924.6593     -1588.707       315.29427      400.39422      42909.102     -30605.926     -496.20719      79098.469      42.926224      42.926224      42.926224      1.0513307      677.37669     -1443.5179     -1781.8247    
     38000   38000          547.49238      639.58461      39409.588      38669.467      12270.788      26398.678      6087.4985      8827.547      -1617.5574      306.1637       471.51226      42932.294     -30608.78      -494.65494      79346.684      42.971079      42.971079      42.971079      1.0480419      1041.8357      1036.4647     -159.54659    
     39000   39000          535.23266     -704.03368      37408.374      38221.376      11996.015      26225.361      6141.5272      8672.9517     -1681.5773      330.60471      466.07206      42907.229     -30611.447     -495.68887      79181.18       42.941182      42.941182      42.941182      1.0502325     -1211.1162     -592.91768     -308.06715    
     40000   40000          536.596        1364.2647      39954.211      38378.893      12026.571      26352.322      6051.9739      8940.0504     -1643.0382      310.49299      386.19351      42913.114     -30606.464     -495.72111      79176.03       42.94025       42.94025       42.94025       1.0503008      2446.426       889.14632      757.22175    
     41000   41000          540.91727      1277.1656      40092.051      38623.414      12123.422      26499.991      6060.7203      8915.6903     -1539.2933      312.67864      418.80298      42939.494     -30608.102     -497.78245      78848.158      42.880896      42.880896      42.880896      1.0546683      1263.3897      638.68136      1929.4258    
     42000   42000          532.45294     -2346.9871      35604.345      38328.674      11933.714      26394.961      6062.6394      8932.3655     -1592.4827      317.56667      368.29841      42914.784     -30608.21      -493.12625      79592.659      43.015437      43.015437      43.015437      1.044803      -4029.3469     -3298.4182      286.80379    
     43000   43000          535.9176      -1145.2056      37320.688      38641.278      12011.366      26629.912      6118.2589      9015.685      -1678.655       347.99514      494.14572      42941.021     -30608.539     -496.38938      79069.438      42.920972      42.920972      42.920972      1.0517167     -1950.7059     -949.69554     -535.21524    
     44000   44000          536.89673      823.53899      39415.594      38460.831      12033.311      26427.519      6142.5614      8752.6572     -1520.392       329.32907      411.95912      42920.667     -30609.262     -493.73681      79494.234      42.997698      42.997698      42.997698      1.0460966      2056.33        5.8134872      408.47351    
     45000   45000          539.93078      296.71909      38836.637      38495.158      12101.312      26393.846      6001.7126      8859.0453     -1535.1939      315.7255       461.1922       42895.716     -30604.351     -497.38142      78911.733      42.892418      42.892418      42.892418      1.0538186     -496.6495       979.7867       407.02007    
     46000   46000          536.93421      1146.7644      39735.901      38400.744      12034.151      26366.593      5919.587       8931.0225     -1609.4269      309.48339      524.57126      42904.08      -30612.725     -491.64182      79832.976      43.058686      43.058686      43.058686      1.0416579      1002.7821      822.28748      1615.2238    
     47000   47000          551.92017     -363.05736      38233.099      38652.763      12370.027      26282.735      5984.3592      8899.5224     -1594.591       324.79908      358.5535       42909.536     -30599.444     -495.20081      79259.218      42.955284      42.955284      42.955284      1.0491985      56.401342     -773.68584     -371.8876     
     48000   48000          540.47966     -695.98074      37541.34       38349.501      12113.614      26235.886      6114.6161      8807.3534     -1618.5875      298.64738      350.03721      42892.845     -30609.025     -492.95423      79620.432      43.02044       43.02044       43.02044       1.0444386      583.97712     -1978.5875     -693.33181    
     49000   49000          533.33231     -20.177158      38481.705      38505          11953.423      26551.577      6058.4603      9031.9885     -1613.7404      327.27396      462.76839      42905.473     -30620.647     -495.7985       79163.671      42.938016      42.938016      42.938016      1.0504648      1653.4296     -622.52706     -1091.434     
     50000   50000          536.05977     -413.58457      37892.417      38369.703      12014.553      26355.15       6129.5047      8859.6736     -1604.1053      336.9473       335.99619      42904.418     -30607.284     -496.0121       79129.58       42.931852      42.931852      42.931852      1.0509174      466.42056     -961.95265     -745.22162    
     51000   51000          539.29082     -338.76436      37686.972      38078.348      12086.969      25991.378      5983.4641      8667.166      -1653.6149      308.49326      381.05475      42915.518     -30610.703     -495.46278      79217.311      42.947712      42.947712      42.947712      1.0497535     -449.2974       868.37691     -1435.3726    
     52000   52000          533.38062      1006.3914      39551.11       38389.613      11954.506      26435.107      5965.5699      8777.9039     -1518.8311      339.10967      550.68699      42932.714     -30612.046     -495.97053      79136.213      42.933051      42.933051      42.933051      1.0508293      1630.601       1444.2006     -55.62756     
     53000   53000          533.32937      796.38387      39144.974      38222.279      11953.357      26268.922      5902.899       8782.765      -1580.1905      313.31778      553.3819       42914.049     -30617.301     -494.05039      79443.778      42.988599      42.988599      42.988599      1.046761       947.74715      1091.8049      349.5996     
     54000   54000          539.11691      1542.392       40074.529      38307.677      12083.071      26224.605      5916.3434      8789.8382     -1520.92        314.81409      425.23596      42909.942     -30610.648     -499.69109      78546.986      42.82623       42.82623       42.82623       1.0587122      1767.0094      1183.9879      1676.1787    
     55000   55000          538.226        273.30487      38632.909      38320.464      12063.104      26257.36       5921.4231      8870.0048     -1641.6626      313.88246      486.74457      42920.757     -30613.789     -500.70346      78388.173      42.797347      42.797347      42.797347      1.0608571      355.57727      1516.1743     -1051.8369    
     56000   56000          531.19316      137.95008      38095.272      37937.077      11905.479      26031.598      5832.1239      8695.6704     -1550.1558      308.46245      416.72008      42932.72      -30603.943     -499.15469      78631.394      42.841565      42.841565      42.841565      1.0575757     -781.95497      1281.5558     -85.750578    
     57000   57000          530.33552      1072.6887      39358.357      38130.97       11886.257      26244.713      6112.4144      8681.0826     -1585.269       292.36674      420.3176       42933.668     -30609.868     -500.26374      78457.074      42.809882      42.809882      42.809882      1.0599255      2515.5273     -95.711246      798.25004    
     58000   58000          534.94862     -1033.8487      37206.869      38408.877      11989.649      26419.228      6056.6857      8843.5352     -1550.8689      307.49914      452.16866      42915.807     -30605.598     -492.33023      79721.347      43.038607      43.038607      43.038607      1.0431165     -1708.9457     -1759.8391      367.23878    
     59000   59000          539.32157      786.81557      38950.614      38048.941      12087.658      25961.282      5667.5978      8781.132      -1650.7949      333.22758      504.93546      42929.697     -30604.513     -499.49469      78577.871      42.831842      42.831842      42.831842      1.0582961      1019.0969     -371.4433       1712.7931    
     60000   60000          525.47501     -223.51736      37902.767      38159.486      11777.32       26382.167      6008.439       8816.9905     -1585.6893      334.47042      495.39551      42925.19      -30612.63      -498.37969      78753.669      42.86376       42.86376       42.86376       1.0559337      268.48194     -1631.3971      692.36309    
     61000   61000          544.89688     -1230.5349      37034.364      38445.917      12212.616      26233.3        5868.8205      8881.5685     -1541.4774      299.09042      418.61172      42917.726     -30611.039     -499.00382      78655.167      42.845882      42.845882      42.845882      1.057256      -1090.4982      181.67369     -2782.7802    
     62000   62000          537.83831     -101.33949      37930.569      38047.046      12054.415      25992.632      5943.1002      8641.627      -1544.0012      327.4079       331.73784      42906.709     -30613.949     -498.01726      78810.981      42.874155      42.874155      42.874155      1.0551658     -577.0376       405.13276     -132.11361    
     63000   63000          538.07688     -207.23611      38160.21       38400.574      12059.762      26340.813      6052.8337      8782.8549     -1561.1083      312.37433      461.54187      42895.833     -30603.517     -493.51759      79529.544      43.004064      43.004064      43.004064      1.0456322     -750.17968     -621.60778      750.07912    
     64000   64000          526.1025      -101.39648      38021.171      38137.362      11791.383      26345.978      5978.639       8890.2        -1584.6056      344.77801      389.09468      42922.689     -30594.817     -499.52599      78572.947      42.830947      42.830947      42.830947      1.0583624      1063.9488      391.51588     -1759.6542    
     65000   65000          536.71832      470.10391      38697.176      38155.03       12029.313      26125.718      5927.77        8801.6778     -1690.9034      344.97756      405.69184      42939.242     -30602.739     -496.34638      79076.289      42.922212      42.922212      42.922212      1.0516256     -1225.6679      154.02957      2481.9501    
     66000   66000          534.04104     -751.38389      37373.931      38232.748      11969.307      26263.441      6043.4552      8877.9606     -1606.5665      323.56881      344.62654      42892.132     -30611.736     -500.80462      78372.339      42.794465      42.794465      42.794465      1.0610714      492.73791     -2414.6444     -332.24516    
     67000   67000          528.55366      83.577919      38124.427      38028.9        11846.32       26182.58       5902.7686      8792.9423     -1601.4383      337.5715       430.01251      42922.538     -30601.816     -500.81046      78371.425      42.794299      42.794299      42.794299      1.0610838     -1334.3658      1486.861       98.238567    
     68000   68000          539.63198      1307.5857      39735.891      38239.331      12094.615      26144.715      5767.6313      8891.4757     -1616.1126      301.66206      490.94575      42917.98      -30608.867     -500.13011      78478.037      42.813695      42.813695      42.813695      1.0596423      485.4187       2138.0402      1299.2981    
     69000   69000          531.08132      2257.3754      40673.634      38100.547      11902.972      26197.575      5813.6661      8874.9871     -1601.3724      326.36476      473.6709       42912.187     -30601.929     -502.17643      78158.247      42.755462      42.755462      42.755462      1.0639779      1873.9637      3461.5575      1436.605     
     70000   70000          537.56709     -111.52521      38050.468      38179.016      12048.336      26130.68       5915.6015      8803.7567     -1640.7447      326.35482      403.42159      42928.434     -30606.144     -496.60863      79034.529      42.914655      42.914655      42.914655      1.0521813      168.74796      552.73281     -1056.0564    
     71000   71000          527.58085     -523.89398      37445.47       38045.155      11824.517      26220.638      6046.7169      8799.7202     -1592.4239      313.61716      381.10093      42867.348     -30595.442     -500.06574      78488.139      42.815532      42.815532      42.815532      1.059506      -551.77848     -1055.8777      35.974275    
     72000   72000          537.56786     -1052.5992      36797.524      38001.662      12048.353      25953.309      5841.0395      8769.8006     -1526.8317      288.31015      268.91169      42911.754     -30599.675     -500.37321      78439.91       42.80676       42.80676       42.80676       1.0601574     -688.81847     -3079.0039      610.02465    
     73000   73000          539.81571     -1665.649       36518.106      38433.913      12098.733      26335.18       6090.2933      8790.9695     -1585.3904      337.83382      421.10247      42886.205     -30605.833     -497.66676      78866.487      42.884218      42.884218      42.884218      1.0544232     -2215.6239     -3072.6679      291.34485    
     74000   74000          527.53674     -2083.5161      35527.369      37913.462      11823.528      26089.934      5904.8753      8815.0617     -1607.3107      289.70996      376.95805      42912.403     -30601.764     -499.82343      78526.19       42.82245       42.82245       42.82245       1.0589926     -1628.7573     -860.6234      -3761.1676    
     75000   75000          535.29664      981.96623      39384.143      38261.058      11997.449      26263.61       6120.4708      8705.6804     -1628.0086      294.78935      466.14968      42905.216     -30600.688     -500.48489      78422.406      42.803576      42.803576      42.803576      1.060394       1649.1896      236.66093      1060.0482    
     76000   76000          531.80693     -247.78551      37830.926      38115.837      11919.235      26196.602      6028.8985      8787.7454     -1594.7692      283.50412      373.99792      42914.401     -30597.176     -497.82223      78841.858      42.879754      42.879754      42.879754      1.0547526      938.99591      104.08727     -1786.4397    
     77000   77000          535.53086      715.74243      39090.2        38267.973      12002.698      26265.275      5959.5009      8738.3867     -1600.9218      318.27941      513.79002      42933.261     -30597.022     -498.27851      78769.661      42.866661      42.866661      42.866661      1.0557193      62.876648      325.87059      1758.48      
     78000   78000          531.70891     -100.65035      37903.741      38019.465      11917.038      26102.427      5935.5603      8811.7387     -1597.0389      304.66649      368.4445       42881.239     -30602.183     -497.85182      78837.171      42.878904      42.878904      42.878904      1.0548153     -1563.1384     -56.330785      1317.5181    
     79000   79000          534.09397      843.3999       38947.343      37991.61       11970.494      26021.116      5800.1006      8734.4027     -1535.3643      303.95524      405.17737      42910.979     -30598.135     -505.13083      77701.116      42.671943      42.671943      42.671943      1.0702375     -605.62646      1518.9203      1616.9059    
     80000   80000          532.36         354.27783      38599.375      38192.474      11931.631      26260.844      5925.4791      8853.8062     -1530.3856      333.25887      369.70749      42909.059     -30600.081     -498.38207      78753.294      42.863692      42.863692      42.863692      1.0559387      1039.2315      878.39943     -854.79741    
     81000   81000          529.0826      -1327.9178      36312.438      37835.338      11858.175      25977.163      5926.4003      8713.6681     -1626.5056      334.29248      331.84913      42895.457     -30597.999     -499.12197      78636.549      42.842501      42.842501      42.842501      1.0575064     -1408.4895     -1637.3036     -937.96043    
     82000   82000          531.22975      1684.3563      39988.266      38078.873      11906.299      26172.575      5890.8409      8766.0201     -1607.8849      331.24862      482.09863      42915.091     -30604.84      -504.94685      77729.426      42.677125      42.677125      42.677125      1.0698477      1464.4089      1729.4992      1859.1609    
     83000   83000          539.5323       844.67172      39204.846      38236.234      12092.381      26143.853      5810.2544      8798.0014     -1600.9354      343.87445      469.34182      42922.909     -30599.593     -499.16613      78629.592      42.841237      42.841237      42.841237      1.0575999      1387.7399      204.2502       942.02503    
     84000   84000          534.16427     -472.47237      37610.488      38154.702      11972.069      26182.632      5925.0861      8777.3246     -1555.1165      333.24322      378.92324      42921.955     -30598.783     -496.95189      78979.937      42.904772      42.904772      42.904772      1.0529085     -2024.1421      1855.5093     -1248.7844    
     85000   85000          528.60771     -1151.648       36627.598      37947.706      11847.532      26100.174      6043.6161      8813.6558     -1619.4528      300.07944      267.56941      42890.842     -30596.136     -499.36427      78598.394      42.835571      42.835571      42.835571      1.0580197     -2162.8453      1411.6049     -2703.7037    
     86000   86000          530.47241     -1316.3784      36415.914      37925.456      11889.325      26036.131      5945.2944      8758.7652     -1645.4536      291.35463      373.63482      42917.399     -30604.863     -499.16304      78630.079      42.841326      42.841326      42.841326      1.0575934     -1850.6094     -1369.0851     -729.44075    
     87000   87000          527.83589     -104.71709      37733.805      37853.786      11830.233      26023.553      5970.855       8768.9641     -1668.1324      303.75116      368.43927      42882.864     -30603.188     -499.59025      78562.841      42.829111      42.829111      42.829111      1.0584985      223.17011      272.35019     -809.67157    
     88000   88000          528.3936       286.10131      38386.041      38056.987      11842.733      26214.254      5895.8481      8816.5029     -1539.418       329.20627      347.65233      42961.059     -30596.596     -497.69102      78862.643      42.883522      42.883522      42.883522      1.0544746      775.59566      94.185044     -11.476771    
     89000   89000          531.44918      613.34187      38488.953      37790.896      11911.217      25879.679      5935.1647      8523.5769     -1626.1102      319.31684      399.65937      42924.342     -30596.271     -502.94268      78039.17       42.733738      42.733738      42.733738      1.0656014      1684.9047     -705.99222      861.11312    
     90000   90000          524.35615      29.36774       37601.912      37568.548      11752.243      25816.306      5768.4661      8619.4865     -1582.0379      290.76516      378.50714      42940.676     -30599.558     -503.8564       77897.649      42.70789       42.70789       42.70789       1.0675374      382.3737      -480.1131       185.84262    
     91000   91000          524.03314     -369.73622      37453.893      37878.952      11745.003      26133.949      5902.5357      8767.8637     -1555.763       329.55035      392.95163      42904.102     -30607.292     -497.90873      78828.16       42.87727       42.87727       42.87727       1.0549358     -2314.4365      967.35493      237.87294    
     92000   92000          523.29363     -517.88228      37240.373      37828.888      11728.429      26100.46       5871.2155      8811.9287     -1607.1991      332.76323      378.67646      42913.422     -30600.347     -503.70981      77920.319      42.712033      42.712033      42.712033      1.0672268     -443.01655     -1181.6609      71.030629    
     93000   93000          528.07473      205.09934      38132.521      37899.442      11835.586      26063.855      5831.3945      8725.8282     -1593.6466      337.31703      451.82481      42909.789     -30598.651     -503.69519      77922.582      42.712446      42.712446      42.712446      1.0671958      1331.3334     -63.085846     -652.94956    
     94000   94000          532.82567      617.01806      38709.676      38006.773      11942.068      26064.705      5997.3479      8709.2816     -1564.5907      351.82391      252.6189       42911.796     -30593.573     -502.46937      78112.68       42.747151      42.747151      42.747151      1.0645986      476.88354      1424.059      -49.888376    
     95000   95000          518.83979      723.62559      38430.825      37612.982      11628.606      25984.375      5915.5243      8677.5403     -1621.6893      300.6332       420.36532      42896.982     -30604.981     -506.46662      77496.181      42.634395      42.634395      42.634395      1.0730677      397.66792      429.22164      1343.9872    
     96000   96000          534.54724      141.34932      38046.685      37885.2        11980.653      25904.547      5771.5827      8641.7833     -1512.815       324.62589      357.68054      42921.254     -30599.564     -501.03589      78336.163      42.78788       42.78788       42.78788       1.0615614     -30.341442      966.66211     -512.27272    
     97000   97000          528.14703     -25.288826      37689.265      37718.098      11837.207      25880.892      5840.1807      8712.6331     -1583.368       310.04819      298.45764      42900.72      -30597.78      -502.04352      78178.938      42.759234      42.759234      42.759234      1.0636964      1322.6994     -3531.2436      2132.6777    
     98000   98000          520.30643     -912.10104      36449.615      37491.079      11661.478      25829.602      5659.851       8723.768      -1593.1795      317.44234      415.24197      42910.513     -30604.035     -501.30905      78293.479      42.780107      42.780107      42.780107      1.0621402      380.34198     -3161.9724      45.327311    
     99000   99000          522.38561     -301.9788       37423.759      37764.966      11708.078      26056.888      5835.9184      8830.3394     -1528.6928      291.8194       347.68521      42888.138     -30608.319     -506.60129      77475.582      42.630617      42.630617      42.630617      1.073353      -550.60506      1151.5097     -1506.8411    
    100000   100000         526.58838      1066.6723      39329.182      38110.857      11802.273      26308.584      6023.1466      8860.9824     -1643.3949      351.1583       395.85959      42928.289     -30607.457     -501.15832      78317.026      42.784395      42.784395      42.784395      1.0618208      2043.3745      3166.9472     -2010.3047    
    101000   101000         529.03569      345.2983       38154.868      37760.319      11857.124      25903.195      5853.302       8681.1198     -1596.7067      305.24416      338.60902      42925.797     -30604.17      -500.95776      78348.38       42.790104      42.790104      42.790104      1.0613959      819.09342      615.8538      -399.05232    
    102000   102000         513.47808     -149.78379      37425.789      37596.271      11508.436      26087.835      6007.2704      8634.8249     -1543.952       320.45469      386.60412      42888.695     -30606.062     -502.91575      78043.348      42.7345        42.7345        42.7345        1.0655444     -322.33554     -871.61966      744.60382    
    103000   103000         517.60328     -1105.2715      36447.444      37705.023      11600.893      26104.131      5976.9113      8843.1293     -1632.6335      298.68043      330.02415      42897.637     -30609.618     -503.08418      78017.22       42.729731      42.729731      42.729731      1.0659012     -2677.4701      116.0809      -754.42524    
    104000   104000         521.13112     -281.40227      37067.672      37387.295      11679.961      25707.334      5765.7462      8570.5992     -1591.8206      321.74603      343.55738      42914.96      -30617.455     -503.96093      77881.492      42.704937      42.704937      42.704937      1.0677588     -707.25675      1249.635      -1386.585     
    105000   105000         522.83244     -684.38688      36885.485      37664.209      11718.092      25946.117      5888.5405      8773.0008     -1540.6728      327.87848      213.48775      42890.9       -30607.019     -503.06638      78019.98       42.730235      42.730235      42.730235      1.0658635     -478.78843     -2054.8533      480.48107    
    106000   106000         521.45606     -26.149133      37788.922      37818.864      11687.244      26131.621      6029.6303      8668.3225     -1497.3073      308.29348      307.05444      42920.131     -30604.504     -499.88657      78516.271      42.820647      42.820647      42.820647      1.0591263      567.37744     -505.68115     -140.14369    
    107000   107000         523.76127      839.84027      38501.779      37553.407      11738.91       25814.497      5857.5095      8570.4105     -1590.4619      341.46632      344.77559      42895.372     -30604.575     -506.90326      77429.427      42.62215       42.62215       42.62215       1.0739928      1159.3038      1888.0801     -527.86308    
    108000   108000         512.21511      597.2482       38166.374      37489.131      11480.129      26009.002      5997.2778      8685.3628     -1634.6507      330.12328      317.79924      42920.082     -30606.992     -504.79757      77752.413      42.681331      42.681331      42.681331      1.0695314      459.07981      1686.0453     -353.38052    
    109000   109000         521.7448      -349.86583      37063.141      37459.758      11693.715      25766.042      5825.0542      8668.9132     -1621.9785      308.99474      278.16618      42911.931     -30605.038     -504.93755      77730.858      42.677387      42.677387      42.677387      1.069828      -238.07372     -211.45704     -600.06674    
    110000   110000         531.81797     -1884.2168      35880.231      38027.213      11919.482      26107.731      6161.888       8751.1603     -1600.3861      312.17818      220.41029      42871.899     -30609.419     -502.35363      78130.677      42.750434      42.750434      42.750434      1.0643534     -1018.3975     -2220.5197     -2413.7333    
    111000   111000         518.99733      49.535666      37540.503      37484.373      11632.137      25852.236      5868.3454      8600.2723     -1631.7002      343.91379      363.9016       42910.562     -30603.059     -505.16292      77696.179      42.671039      42.671039      42.671039      1.0703055      279.36255      1152.4656     -1283.2212    
    112000   112000         524.12979      61.133702      37630.192      37560.848      11747.169      25813.678      5798.4743      8651.0918     -1625.6487      307.72568      323.13544      42958.472     -30599.572     -504.63591      77777.321      42.685889      42.685889      42.685889      1.0691889     -335.22672     -2623.5538      3142.1817    
    113000   113000         516.56004     -1642.9506      35600.424      37505.797      11577.511      25928.286      5970.1276      8626.759      -1581.9699      305.76572      303.14448      42911.214     -30606.755     -493.57309      79520.601      43.002452      43.002452      43.002452      1.0457498     -2286.5069     -900.44711     -1741.8977    
    114000   114000         521.13621     -490.63203      37076.502      37632.008      11680.075      25951.933      5937.5922      8678.9697     -1563.2654      296.92848      304.84128      42905.106     -30608.24      -505.5621       77634.832      42.659806      42.659806      42.659806      1.0711513     -912.2987       583.574       -1143.1714    
    115000   115000         525.76045     -130.71161      37700.573      37850.485      11783.717      26066.768      6006.0039      8636.0146     -1552.6284      315.79461      336.16458      42931.206     -30605.787     -499.09456      78640.868      42.843285      42.843285      42.843285      1.0574483     -358.6543       28.846827     -62.327354    
    116000   116000         520.66544     -191.67163      37200.139      37416.938      11669.524      25747.414      5814.067       8553.718      -1596.9853      311.32831      353.80017      42923.122     -30611.637     -506.06647      77557.459      42.645629      42.645629      42.645629      1.0722199      420.191       -230.08308     -765.12279    
    117000   117000         519.48148      326.41054      38072.655      37699.078      11642.988      26056.09       5927.1638      8706.8005     -1566.5866      302.55748      376.7428       42916.214     -30606.802     -500.13852      78476.717      42.813455      42.813455      42.813455      1.0596602      967.06736      420.3566      -408.19233    
    118000   118000         512.99709     -875.53316      36458.704      37455.365      11497.655      25957.71       5956.518       8645.5348     -1557.2858      336.86724      279.15593      42902.218     -30605.298     -502.84259      78054.703      42.736573      42.736573      42.736573      1.0653894     -1532.4797     -1865.4374      771.31767    
    119000   119000         521.53317     -1243.8264      36210.28       37625.622      11688.972      25936.65       5905.7396      8631.8209     -1516.8073      309.61836      316.48182      42901.47      -30611.673     -503.04342      78023.542      42.730885      42.730885      42.730885      1.0658149     -1966.7087     -773.81757     -990.95305    
    120000   120000         510.29121      1669.6974      39222.933      37336.553      11437.009      25899.544      5972.7009      8597.687      -1611.9402      329.92442      353.3658       42876.949     -30619.143     -506.65895      77466.763      42.628999      42.628999      42.628999      1.0734752      1876.886       1818.7556      1313.4506    
    121000   121000         510.86473      560.13513      37952.83       37316.888      11449.863      25867.025      5907.72        8695.1542     -1635.6702      309.30442      276.55786      42919.078     -30605.119     -504.17618      77848.242      42.698859      42.698859      42.698859      1.0682149      680.89536      804.37125      195.13878    
    122000   122000         527.99687      209.11387      37773.403      37537.451      11833.841      25703.61       5851.4564      8608.3292     -1644.7784      301.26918      317.20643      42889.5       -30619.373     -507.30149      77368.646      42.610994      42.610994      42.610994      1.0748366     -1145.5562      2593.3786     -820.48069    
    123000   123000         522.78661     -1319.4702      35831.495      37335.69       11717.065      25618.625      5818.6911      8631.3571     -1594.3073      284.15838      199.78703      42881.095     -30602.156     -502.11402      78167.961      42.757233      42.757233      42.757233      1.0638457     -1293.501      -835.30552     -1829.6041    
    124000   124000         522.46307      1311.7102      38991.995      37509.329      11709.814      25799.515      5782.6567      8625.4945     -1604.7162      319.36182      376.46902      42915.28      -30615.03      -506.40897      77505.005      42.636013      42.636013      42.636013      1.0729456     -3.1186699      1251.8138      2686.4356    
    125000   125000         509.42671      585.98548      37807.258      37143.885      11417.633      25726.252      5895.1595      8496.1093     -1561.4332      336.55527      290.24926      42886.436     -30616.824     -505.63361      77623.854      42.657795      42.657795      42.657795      1.0713028      1530.5882     -776.665        1004.0333    
    126000   126000         521.07278     -693.50542      36684.09       37475.62       11678.653      25796.966      5666.7622      8697.6191     -1515.175       330.16105      343.99487      42885.644     -30612.04      -501.52167      78260.286      42.77406       42.77406       42.77406       1.0625907     -1282.348       965.2862      -1763.4545    
    127000   127000         519.93868     -777.10499      36527.852      37407.775      11653.235      25754.539      5884.217       8738.4323     -1639.5195      314.1231       167.53805      42893.309     -30603.56      -505.52475      77640.57       42.660857      42.660857      42.660857      1.0710721     -857.99935      131.38393     -1604.6996    
    128000   128000         521.28309      303.12888      38021.996      37676.647      11683.367      25993.28       5906.1217      8668.1424     -1578.1187      345.20754      330.9536       42931.851     -30610.878     -502.42979      78118.833      42.748274      42.748274      42.748274      1.0645148     -80.448235      707.51543      282.31944    
    129000   129000         510.50035     -407.23251      36745.879      37209.127      11441.697      25767.431      5808.2362      8643.8798     -1630.7694      311.90075      327.13412      42900.63      -30593.581     -503.19443      78000.126      42.72661       42.72661       42.72661       1.0661348      1564.9262     -1695.1388     -1091.485     
    130000   130000         513.18499      91.531407      37369.399      37265.891      11501.867      25764.025      5887.3066      8577.8875     -1598.1499      313.79543      292.39546      42901.802     -30611.012     -506.18157      77539.822      42.642396      42.642396      42.642396      1.0724638     -479.66266      1459.6077     -705.35082    
    131000   131000         515.65429     -2070.6928      35080.501      37419.512      11557.211      25862.301      5864.6401      8740.5097     -1645.1923      339.93074      280.52695      42889.019     -30607.132     -506.7462       77453.425      42.626553      42.626553      42.626553      1.0736601     -1655.6352     -2768.2257     -1788.2174    
    132000   132000         520.22079     -1069.9061      36205.304      37425.502      11659.558      25765.944      5727.2456      8820.6817     -1602.692       302.60967      250.20694      42877.905     -30610.013     -501.90616      78200.333      42.763135      42.763135      42.763135      1.0634053     -1461.6659     -789.97389     -958.07865    
    133000   133000         522.26638      975.85374      38623.06       37520.152      11705.405      25814.746      5786.4963      8747.2041     -1572.7774      306.12601      240.32255      42910.765     -30603.39      -506.46831      77495.923      42.634347      42.634347      42.634347      1.0730713     -410.92557      936.28276      2402.204     
    134000   134000         519.02129      297.63125      37561.654      37226.155      11632.674      25593.481      5793.162       8521.7217     -1562.4135      323.87506      200.69902      42915.622     -30599.186     -507.80116      77292.516      42.597013      42.597013      42.597013      1.0758952      174.33095      106.78387      611.77895    
    135000   135000         512.53391      1142.8736      38442.883      37146.383      11487.274      25659.109      5630.8195      8625.5756     -1561.8095      321.59163      337.88553      42901.228     -30596.182     -504.58343      77785.411      42.687369      42.687369      42.687369      1.0690777     -66.803484      1437.0424      2058.382     
    136000   136000         510.51829      186.99357      37582.07       37368.885      11442.099      25926.786      5776.0518      8704.2967     -1550.7247      342.13611      310.98639      42940.29      -30596.25      -502.08373      78172.677      42.758093      42.758093      42.758093      1.0637815     -885.69686      2285.6487     -838.97111    
    137000   137000         516.25788      289.63592      37525.746      37199.105      11570.739      25628.366      5638.8676      8813.0246     -1602.856       298.25172      189.65625      42893.804     -30602.382     -507.56186      77328.956      42.603706      42.603706      42.603706      1.0753882      319.69296     -1938.6719      2487.8867    
    138000   138000         512.62926     -269.70909      36877.345      37185.406      11489.411      25695.995      5712.1774      8673.6691     -1607.8668      298.61452      360.31448      42873.694     -30614.608     -501.14742      78318.73       42.784705      42.784705      42.784705      1.0617977      1097.0428     -577.40696     -1328.7631    
    139000   139000         516.86496      1529.944       39085.901      37368.973      11584.345      25784.628      5742.3099      8657.7614     -1574.2892      328.56063      319.7895       42916.033     -30605.537     -510.07085      76948.584      42.533737      42.533737      42.533737      1.0807041      2051.4917     -682.68863      3221.0289    
    140000   140000         513.05983     -376.19353      36939.796      37369.458      11499.061      25870.397      5792.8877      8701.5893     -1530.555       301.87892      319.03189      42890.21      -30604.646     -501.17753      78314.024      42.783848      42.783848      42.783848      1.0618615     -1433.2707      416.17281     -111.48272    
    141000   141000         516.71102     -62.432487      36974.434      37045.184      11580.895      25464.289      5717.1258      8519.966      -1624.3895      292.53873      234.88595      42937.369     -30613.207     -505.12019      77702.753      42.672243      42.672243      42.672243      1.070215      -651.67288      792.76171     -328.38629    
    142000   142000         516.47987     -182.03527      37003.235      37209.244      11575.714      25633.53       5833.5344      8650.7951     -1666.8007      312.08308      247.03369      42873.35      -30616.465     -505.79574      77598.971      42.653236      42.653236      42.653236      1.0716463     -1501.7729      2157.0956     -1201.4285    
    143000   143000         512.34877     -767.0268       36423.058      37290.181      11483.125      25807.056      5839.4458      8679.942      -1623.3955      300.67808      298.64403      42922.844     -30611.102     -506.33334      77516.581      42.638135      42.638135      42.638135      1.0727853     -2329.6335     -791.41879      819.97188    
    144000   144000         510.36856      1039.1801      38107.17       36928.744      11438.743      25490.002      5635.3651      8591.9779     -1699.9268      316.38528      335.65424      42922.362     -30611.816     -504.77236      77756.297      42.682042      42.682042      42.682042      1.069478       601.12127      1837.6247      678.79427    
    145000   145000         512.15208      357.5592       37587.205      37184.419      11478.716      25705.703      5632.9329      8650.171      -1627.0372      314.07161      441.87686      42903.578     -30609.89      -508.13704      77241.425      42.587625      42.587625      42.587625      1.0766069      1664.4679     -1119.1205      527.33016    
    146000   146000         519.13373      1346.7822      38915.847      37390.095      11635.194      25754.901      5883.085       8516.3222     -1584.334       322.24412      322.07434      42908.283     -30612.773     -505.26639      77680.269      42.668126      42.668126      42.668126      1.0705248     -263.52117      1877.3231      2426.5446    
    147000   147000         510.05452     -1237.3449      35831.561      37241.908      11431.704      25810.203      5884.9939      8623.5198     -1591.3996      315.31409      289.14929      42900.317     -30611.691     -502.19426      78155.471      42.754956      42.754956      42.754956      1.0640157     -2378.3183     -612.24944     -721.46699    
    148000   148000         508.24071     -295.96779      36689.57       37025.723      11391.052      25634.671      5797.8041      8504.3007     -1582.8419      305.16633      324.71498      42889.112     -30603.585     -503.98143      77878.324      42.704358      42.704358      42.704358      1.0678023     -137.65573      448.36705     -1198.6147    
    149000   149000         519.33922     -597.19238      36519.993      37196.676      11639.8        25556.876      5812.2606      8533.4692     -1602.2459      303.9466       225.46212      42898.725     -30614.742     -505.16851      77695.32       42.670882      42.670882      42.670882      1.0703174     -726.78782     -1761.6904      696.90111    
    150000   150000         509.70356     -748.0665       36294.251      37142.313      11423.839      25718.474      5738.5322      8681.1634     -1562.3392      298.95891      285.28485      42889.1       -30612.226     -504.91682      77734.05       42.677971      42.677971      42.677971      1.0697841     -784.80727     -1936.4148      477.02257    
[...]
    955000   955000         314.17794     -118.66552      27695.723      27824.532      7041.5794      20782.953      3868.6304      6723.9156     -1910.2381      198.27121     -355.19197      42891.299     -30633.734     -527.33313      74429.667      42.064464      42.064464      42.064464      1.1172783     -1030.4608      3.1750887      671.28915    
    956000   956000         307.03297     -587.07648      27006.25       27646.218      6881.4412      20764.777      3835.1855      6651.4067     -1866.1414      205.29013     -333.51902      42901.351     -30628.796     -525.10169      74745.959      42.123965      42.123965      42.123965      1.1125505      204.27233     -1254.5097     -710.99206    
    957000   957000         317.75835      690.11645      28660.66       27912.218      7121.8259      20790.392      3897.656       6616.8603     -1914.6326      209.42174     -284.89699      42899.805     -30633.821     -527.80245      74363.485      42.051993      42.051993      42.051993      1.1182726      578.19628      217.04935      1275.1037    
    958000   958000         308.38335      190.93904      27894.19       27686.111      6911.7067      20774.404      3864.0758      6674.012      -1880.826       195.55083     -309.17958      42862.135     -30631.364     -525.25961      74723.486      42.119743      42.119743      42.119743      1.112885       727.31876      1383.5155     -1538.0171    
    959000   959000         313.26981     -671.01898      27152.646      27882.574      7021.2257      20861.348      3878.9424      6755.4012     -1899.2457      221.67502     -348.36622      42882.221     -30629.28      -526.21309      74588.09       42.094287      42.094287      42.094287      1.1149052     -790.75174     -817.1615      -405.14371    
    960000   960000         307.73795     -958.85729      26656.313      27696.678      6897.2416      20799.437      3832.7682      6719.3507     -1870.6502      213.36769     -316.19508      42857.113     -30636.318     -527.56382      74397.12       42.058332      42.058332      42.058332      1.1177671     -689.30905     -1586.1479     -601.11488    
    961000   961000         308.21918      293.60399      27954.199      27635.593      6908.0273      20727.565      3837.0848      6621.3434     -1896.3385      203.72913     -291.57051      42888.77      -30635.453     -527.48995      74407.54       42.060295      42.060295      42.060295      1.1176105     -626.83144      512.96911      994.67431    
    962000   962000         310.68964     -1078.686       26612.867      27785.443      6963.397       20822.046      3929.2268      6731.1407     -1929.3523      220.84536     -379.00453      42883.932     -30634.742     -526.57591      74536.697      42.084617      42.084617      42.084617      1.1156739     -1022.4113     -1115.3478     -1098.2987    
    963000   963000         308.79728      1259.1074      28965.464      27596.904      6920.9842      20675.92       3821.3893      6641.6142     -1949.5445      199.96398     -317.71698      42914.057     -30633.843     -526.63051      74528.97       42.083163      42.083163      42.083163      1.1157896     -324.6508       1856.3862      2245.5867    
    964000   964000         308.4411      -465.41575      26995.367      27499.47       6913.0012      20586.469      3752.7714      6612.6589     -1908.677       208.13918     -330.55452      42881.989     -30629.858     -528.47978      74268.176      42.034019      42.034019      42.034019      1.1197077     -1447.9144      629.35108     -577.6839     
    965000   965000         311.18993     -195.69973      27527.91       27740.089      6974.6099      20765.479      3835.6562      6677.6342     -1906.8392      213.01219     -328.46903      42901.908     -30627.424     -527.95329      74342.238      42.047987      42.047987      42.047987      1.1185922      225.9416      -868.92821      55.887418    
    966000   966000         307.95117      635.38691      28323.393      27632.605      6902.0205      20730.584      3728.0602      6723.8192     -1936.0172      203.00595     -244.48588      42887.605     -30631.403     -526.50243      74547.1        42.086575      42.086575      42.086575      1.1155183      422.88185     -198.42155      1681.7004    
    967000   967000         309.66302     -537.60704      26977.568      27560.019      6940.3876      20619.632      3893.8094      6625.2516     -1944.9798      197.75994     -391.55064      42865.519     -30626.178     -528.3389       74287.979      42.037755      42.037755      42.037755      1.1194093      804.22754     -695.37633     -1721.6723    
    968000   968000         311.22285     -421.03596      27220.877      27682.662      6975.3478      20707.314      3844.3591      6668.4226     -1916.1216      198.94549     -339.36588      42884.277     -30633.203     -521.89875      75204.681      42.209962      42.209962      42.209962      1.1057643     -1177.5781      47.780218     -133.30998    
    969000   969000         304.61964      440.9017       27972.945      27492.809      6827.3518      20665.457      3818.8132      6655.9679     -1948.9586      210.96344     -364.92251      42923.895     -30630.302     -525.63486      74670.142      42.109717      42.109717      42.109717      1.1136801      1463.4893      155.22173     -296.00591    
    970000   970000         312.98425      882.58546      28588.238      27633.715      7014.8254      20618.89       3724.6466      6690.9609     -1966.9031      217.30734     -319.29903      42898.113     -30625.936     -529.27023      74157.259      42.013083      42.013083      42.013083      1.1213825      605.37812     -70.556556      2112.9348    
    971000   971000         310.06966     -382.55999      27141.402      27556.985      6949.5015      20607.484      3800.842       6650.3776     -1942.192       206.64242     -330.77233      42857.103     -30634.517     -526.92516      74487.293      42.075317      42.075317      42.075317      1.1164139      608.68983     -909.61994     -846.74986    
    972000   972000         303.60535      344.5883       27818.698      27443.686      6804.619       20639.067      3882.8693      6582.2232     -1924.2328      221.67547     -378.00862      42884.041     -30629.5       -525.97099      74622.422      42.100745      42.100745      42.100745      1.1143923     -240.58771      1275.8608     -1.5081723    
    973000   973000         302.94669     -1845.5392      25450.577      27461.261      6789.8566      20671.405      3928.1706      6580.0236     -1943.6848      212.83984     -384.89397      42909.446     -30630.497     -525.39551      74704.158      42.116111      42.116111      42.116111      1.113173      -2456.225      -326.3034      -2754.0891    
    974000   974000         312.78945      855.32546      28679.938      27743.621      7010.4594      20733.162      3770.4227      6649.4382     -1901.0635      226.13773     -278.88795      42897.368     -30630.253     -522.89657      75061.172      42.183096      42.183096      42.183096      1.1078784      1282.3646     -35.241994      1318.8537    
    975000   975000         311.52999     -209.99248      27400.397      27629.144      6982.2317      20646.913      3779.2709      6659.6896     -1930.7333      203.67114     -320.87361      42880.041     -30624.154     -525.47741      74692.515      42.113923      42.113923      42.113923      1.1133465     -942.5988       244.41474      68.206608    
    976000   976000         303.99487      476.09705      27909.221      27394.018      6813.3491      20580.669      3786.437       6534.4739     -1890.557       213.82914     -321.45447      42894.759     -30636.819     -528.96114      74200.592      42.021265      42.021265      42.021265      1.1207276     -229.53705      248.05977      1409.7684    
    977000   977000         306.13165     -498.745        27008.815      27550.811      6861.2401      20689.571      3777.1634      6707.2805     -1915.2681      214.35487     -358.75784      42898.784     -30633.986     -526.73219      74514.583      42.080455      42.080455      42.080455      1.116005      -1305.0855     -465.71049      274.56102    
    978000   978000         303.2287      -52.769611      27448.173      27505.549      6796.1771      20709.372      3878.9185      6611.1486     -1899.1282      198.77899     -327.71365      42887.781     -30640.413     -526.45383      74553.982      42.08787       42.08787       42.08787       1.1154153     -168.80403     -420.87671      431.37191    
    979000   979000         303.1902      -819.4534       26488.438      27374.964      6795.3142      20579.649      3827.1133      6561.803      -1875.0347      192.97027     -386.92844      42890.022     -30630.296     -529.10287      74180.716      42.017513      42.017513      42.017513      1.1210279      719.25234     -1646.1718     -1531.4408    
    980000   980000         303.1817       881.36851      28275.396      27322.424      6795.1238      20527.3        3701.0144      6609.085      -1922.8639      201.2691      -308.54472      42887.184     -30639.843     -529.40049      74139.012      42.009637      42.009637      42.009637      1.1216585     -226.46143      1495.4295      1375.1374    
    981000   981000         302.48892      2282.6588      29981.759      27507.696      6779.5967      20728.099      3791.001       6719.6162     -1972.1038      216.77114     -284.20953      42895.917     -30638.892     -528.12555      74317.99       42.043415      42.043415      42.043415      1.1189572      3674.7512      2785.8778      387.3473     
    982000   982000         300.93501      789.4587       28150.859      27291.003      6744.7694      20546.233      3716.6764      6645.6674     -1974.6563      203.17018     -288.17028      42883.185     -30639.639     -525.54583      74682.791      42.112095      42.112095      42.112095      1.1134915      1450.5352      1072.857      -155.01612    
    983000   983000         303.86532     -636.60525      26738.647      27433.75       6810.4454      20623.305      3808.4359      6646.1466     -1943.3577      203.19606     -340.89334      42881.552     -30631.775     -524.23709      74869.233      42.147109      42.147109      42.147109      1.1107186     -3.1935595     -755.83896     -1150.7832    
    984000   984000         305.92828     -954.03359      26364.621      27404.782      6856.682       20548.1        3761.561       6601.1875     -1915.381       201.03401     -343.78347      42878.412     -30634.93      -525.01337      74758.532      42.126326      42.126326      42.126326      1.1123633     -1077.1985     -1720.9281     -63.974161    
    985000   985000         305.61977      1362.0869      28895.305      27425.947      6849.7675      20576.18       3832.3521      6551.4562     -1940.2299      202.23437     -349.25064      42905.03      -30625.413     -530.62064      73968.53       41.977412      41.977412      41.977412      1.1242437      1947.3997      1465.4247      673.43643    
    986000   986000         301.67195     -1603.302       25541.758      27282.365      6761.2863      20521.078      3746.043       6625.8205     -1908.1869      196.8036      -394.04991      42886.602     -30631.954     -527.25627      74440.517      42.066508      42.066508      42.066508      1.1171154     -1160.4276     -626.75713     -3022.7213    
    987000   987000         298.71796      121.50679      27395.044      27263.062      6695.0793      20567.983      3869.198       6525.8029     -1932.6053      194.3013      -378.08916      42921.639     -30632.264     -526.97913      74479.666      42.073881      42.073881      42.073881      1.1165283      169.68696      1016.5978     -821.76444    
    988000   988000         303.68058     -251.58064      27099.928      27372.571      6806.305       20566.266      3692.6728      6583.8007     -1858.8722      195.64421     -301.24773      42888.823     -30634.554     -528.18942      74309.003      42.04172       42.04172       42.04172       1.1190925     -2028.5927      954.4972       319.35359    
    989000   989000         299.87206     -1097.9188      26057.509      27256.728      6720.9457      20535.782      3796.1271      6583.5837     -1928.2359      204.75692     -381.43023      42896.915     -30635.934     -524.05704      74894.956      42.151936      42.151936      42.151936      1.1103371     -2039.0998     -534.102       -720.55443    
    990000   990000         303.91484     -329.05233      27046.912      27404.328      6811.5554      20592.773      3877.5812      6561.2257     -1949.7626      199.19262     -350.06538      42889.243     -30634.642     -526.98378      74479.009      42.073757      42.073757      42.073757      1.1165381     -97.33629      -112.96062     -776.86008    
    991000   991000         296.46859     -1181.5625      25870.036      27159.193      6644.6647      20514.529      3756.721       6550.8587     -1900.4684      205.53718     -334.49383      42875.745     -30639.371     -524.63578      74812.338      42.136431      42.136431      42.136431      1.1115633     -1878.7433     -591.84747     -1074.0969    
    992000   992000         301.64771     -380.67787      27000.702      27415.765      6760.7429      20655.022      3776.3724      6647.0034     -1929.878       215.99924     -318.70648      42896.393     -30632.162     -524.9896       74761.918      42.126962      42.126962      42.126962      1.112313       111.54405     -1042.8781     -210.69953    
    993000   993000         299.60669     -1084.9275      26036.894      27212.961      6714.998       20497.963      3694.9394      6623.0001     -1904.7307      207.42376     -388.04999      42894.067     -30628.687     -528.05088      74328.498      42.045397      42.045397      42.045397      1.118799      -1595.0288     -1607.5917     -52.162143    
    994000   994000         302.96214      1397.4558      28843.14       27322.821      6790.2028      20532.619      3715.1204      6554.1679     -1942.9295      210.36631     -294.43961      42917.262     -30626.929     -526.15127      74596.854      42.095936      42.095936      42.095936      1.1147742      1216.1095      1382.0728      1594.1851    
    995000   995000         296.11489      185.43028      27357.396      27155.491      6636.7373      20518.754      3664.8941      6625.406      -1943.2073      210.95451     -311.65766      42898.229     -30625.865     -525.70446      74660.255      42.107859      42.107859      42.107859      1.1138276     -1140.3473      1620.6709      75.967203    
    996000   996000         299.55496      687.02745      28052.937      27306.588      6713.8387      20592.749      3795.1847      6609.2381     -1946.9623      204.10771     -336.09206      42891.227     -30623.954     -526.91323      74488.981      42.075635      42.075635      42.075635      1.1163886     -197.37549      791.00744      1467.4504    
    997000   997000         299.83051      814.57586      28126.532      27241.065      6720.0145      20521.051      3771.8633      6518.6164     -1942.2677      204.12466     -290.36472      42890.12      -30631.041     -526.58269      74535.738      42.084437      42.084437      42.084437      1.1156883     -1395.3304     -115.30035      3954.3583    
    998000   998000         300.14238     -135.59963      26965.672      27112.576      6727.0043      20385.572      3754.4899      6535.7406     -1948.6333      192.77815     -420.61328      42899.427     -30627.618     -528.36268      74284.636      42.037124      42.037124      42.037124      1.1194596     -399.99574     -487.9186       481.11545    
    999000   999000         297.40921     -694.6071       26412.22       27164.991      6665.7466      20499.244      3764.6405      6585.7893     -1944.8576      188.6318      -344.77703      42883.189     -30633.371     -528.18169      74310.091      42.041925      42.041925      42.041925      1.1190762      205.04995     -77.985761     -2210.8855    
   1000000   1000000        302.69799     -573.05518      26727.935      27354.132      6784.2824      20569.849      3780.5238      6504.4643     -1878.5112      192.93589     -300.57716      42898.442     -30627.428     -523.83251      74927.058      42.157957      42.157957      42.157957      1.1098614     -1597.708       367.56453     -489.02204    
Loop time of 7361.44 on 1 procs for 1000000 steps with 7520 atoms

Performance: 11.737 ns/day, 2.045 hours/ns, 135.843 timesteps/s, 1.022 Matom-step/s
99.9% CPU use with 1 MPI tasks x 1 OpenMP threads

MPI task timing breakdown:
Section |  min time  |  avg time  |  max time  |%varavg| %total
---------------------------------------------------------------
Pair    | 2278.7     | 2278.7     | 2278.7     |   0.0 | 30.95
Bond    | 980.54     | 980.54     | 980.54     |   0.0 | 13.32
Kspace  | 2627.4     | 2627.4     | 2627.4     |   0.0 | 35.69
Neigh   | 596.76     | 596.76     | 596.76     |   0.0 |  8.11
Comm    | 59.686     | 59.686     | 59.686     |   0.0 |  0.81
Output  | 15.983     | 15.983     | 15.983     |   0.0 |  0.22
Modify  | 566.54     | 566.54     | 566.54     |   0.0 |  7.70
Other   |            | 235.8      |            |       |  3.20

Nlocal:           7520 ave        7520 max        7520 min
Histogram: 1 0 0 0 0 0 0 0 0 0
Nghost:          20091 ave       20091 max       20091 min
Histogram: 1 0 0 0 0 0 0 0 0 0
Neighs:              0 ave           0 max           0 min
Histogram: 1 0 0 0 0 0 0 0 0 0
FullNghs:  4.80368e+06 ave 4.80368e+06 max 4.80368e+06 min
Histogram: 1 0 0 0 0 0 0 0 0 0

Total # of neighbors = 4803684
Ave neighs/atom = 638.78777
Ave special neighs/atom = 5.7207447
Neighbor list builds = 44128
Dangerous builds = 0

# --- Cleanup ---
unfix npt_fix

undump dump_npt

# --- Write Output ---
write_dump all custom npt_cool300_last.dump id type mol x y z xu yu zu vx vy vz modify sort id
write_data /home/arz2/PolyJarvis/data/PMMA3/lammps/equil/npt_cool300/npt_cool300_out.data
System init for write_data ...
PPPM Kokkos initialization ...
  using 12-bit tables for long-range coulomb
  G vector (1/distance) = 0.33270878
  grid = 45 45 45
  stencil order = 5
  estimated absolute RMS force accuracy = 0.0002925924
  estimated relative force accuracy = 8.8113332e-07
  using double precision cuFFT
  3d grid and FFT values/proc = 140608 91125
Generated 15 of 15 mixed pair_coeff terms from sixthpower/sixthpower mixing rule

print "STAGE COMPLETE: NPT T=550.0->300.0K P=1.0->1.0atm steps=1000000"
STAGE COMPLETE: NPT T=550.0->300.0K P=1.0->1.0atm steps=1000000
quit
      |  3.20

Nlocal:           7520 ave        7520 max        7520 min
Histogram: 1 0 0 0 0 0 0 0 0 0
Nghost:          20091 ave       20091 max       20091 min
Histogram: 1 0 0 0 0 0 0 0 0 0
Neighs:              0 ave           0 max           0 min
Histogram: 1 0 0 0 0 0 0 0 0 0
FullNghs:  4.80368e+06 ave 4.80368e+06 max 4.80368e+06 min
Histogram: 1 0 0 0 0 0 0 0 0 0

Total # of neighbors = 4803684
Ave neighs/atom = 638.78777
Ave special neighs/atom = 5.7207447
Neighbor list builds = 44128
Dangerous builds = 0
System init for write_data ...
PPPM Kokkos initialization ...
  using 12-bit tables for long-range coulomb
  G vector (1/distance) = 0.33270878
  grid = 45 45 45
  stencil order = 5
  estimated absolute RMS force accuracy = 0.0002925924
  estimated relative force accuracy = 8.8113332e-07
  using double precision cuFFT
  3d grid and FFT values/proc = 140608 91125
Generated 15 of 15 mixed pair_coeff terms from sixthpower/sixthpower mixing rule
STAGE COMPLETE: NPT T=550.0->300.0K P=1.0->1.0atm steps=1000000
