units real
atom_style full
boundary p p p

# --- Force Field Styles ---
pair_style lj/cut 14.0
dielectric 1.000000
bond_style harmonic
angle_style harmonic
dihedral_style multi/harmonic
improper_style none
special_bonds lj 0 0 0
pair_modify mix arithmetic tail yes
neighbor 2.0 bin
neigh_modify delay 0 every 1 check yes
neigh_modify one 4000
package gpu 1 neigh yes

read_data /home/arz2/PolyJarvis/data/cis-PBD2/lammps/equil/nvt_production/nvt_production_out.data
Reading data file ...
  orthogonal box = (4.7662759 4.7662759 4.7662759) to (63.412102 63.412102 63.412102)
  1 by 1 by 1 MPI processor grid
  reading atoms ...
  8040 atoms
  reading velocities ...
  8040 velocities
  scanning bonds ...
  2 = max bonds/atom
  scanning angles ...
  1 = max angles/atom
  scanning dihedrals ...
  2 = max dihedrals/atom
  orthogonal box = (4.7662759 4.7662759 4.7662759) to (63.412102 63.412102 63.412102)
  1 by 1 by 1 MPI processor grid
  reading bonds ...
  8020 bonds
  reading angles ...
  8000 angles
  reading dihedrals ...
  7980 dihedrals
Finding 1-2 1-3 1-4 neighbors ...
  special bond factors lj:    0        0        0       
  special bond factors coul:  0        0        0       
     2 = max # of 1-2 neighbors
     2 = max # of 1-3 neighbors
     4 = max # of 1-4 neighbors
     6 = max # of special neighbors
  special bonds CPU = 0.002 seconds
  read_data CPU = 0.137 seconds
include /home/arz2/PolyJarvis/data/cis-PBD2/lammps/cell/emc_build.params
# LAMMPS parameters created by EMC v9.4.4, build Jul 31 2025 20:33:44

# Variables

variable	seed		index	734812
variable	ntotal		index	8040
variable	fshape		index	1
variable	output		index	emc_build
variable	field		index	trappe/2014/trappe-ua
variable	location1	index	/home/arz2/emc/field/
variable	nav		index	0.6022141179
variable	temperature	index	300
variable	radius		index	5
variable	nrelax		index	100
variable	weight_nonbond	index	0.0001
variable	weight_bond	index	0.0001
variable	weight_focus	index	1
variable	cutoff		index	14
variable	charge_cutoff	index	14
variable	kappa		index	4
variable	density1	index	0.57
variable	lprevious	index	0
variable	lphase		index	68.1783775471
variable	f_poly		index	20
variable	chem_repeat	index	*C/C=C\C*
variable	chem_cap	index	*C
variable	lg_repeat	index	4
variable	lg_cap		index	1
variable	norm_poly	index	100
variable	l_poly		index	402
variable	mg_repeat	index	54.0914
variable	mg_cap		index	15.0347
variable	m_poly		index	5439.2094
variable	n_poly		index	20
variable	mtotal		index	108784.188
variable	nphase1		index	8040
variable	mphase1		index	108784.188
variable	vphase1		index	316912.949994
variable	lbox		index	68.1783775471
variable	lphase1		index	68.1783775471
variable	lxx		index	68.1783775471
variable	lyy		index	68.1783775471
variable	lzz		index	68.1783775471
variable	lzy		index	0
variable	lzx		index	0
variable	lyx		index	0
variable	vtotal		index	316912.949994
variable	nl_poly		index	20

# Types

variable	type_c3h	index	1
variable	type_c4h2	index	2
variable	type_c4h3	index	3

variable	type_bond_c3h_c3h index	1
variable	type_bond_c3h_c4h2 index	2
variable	type_bond_c4h2_c4h2 index	3
variable	type_bond_c4h2_c4h3 index	4

variable	type_angle_c3h_c3h_c4h2 index	1
variable	type_angle_c3h_c4h2_c4h2 index	2
variable	type_angle_c3h_c4h2_c4h3 index	3

# Clusters

variable	n0_poly		index	1
variable	n1_poly		index	20
variable	nl_poly		index	20

# Flags

variable	flag_charged	index	0

# Masses

mass		1    13.01890  # c3h
mass		2    14.02680  # c4h2
mass		3    15.03470  # c4h3

# Potentials

pair_modify	mix arithmetic tail yes
special_bonds	lj 0 0 0 coul 0 0 0.5
Finding 1-2 1-3 1-4 neighbors ...
  special bond factors lj:    0        0        0       
  special bond factors coul:  0        0        0.5     
     2 = max # of 1-2 neighbors
     2 = max # of 1-3 neighbors
     4 = max # of 1-4 neighbors
     6 = max # of special neighbors
  special bonds CPU = 0.002 seconds

# Pair Coeffs

pair_coeff	1 1    0.09340    3.71000  # c3h,c3h
pair_coeff	2 2    0.09141    3.95000  # c4h2,c4h2
pair_coeff	3 3    0.19475    3.75000  # c4h3,c4h3

# Bond Coeffs

bond_coeff	1  529.99987    1.33000  # c3h,c3h
bond_coeff	2  260.00013    1.54000  # c3h,c4h2
bond_coeff	3  260.00013    1.54000  # c4h2,c4h2
bond_coeff	4  260.00013    1.54000  # c4h2,c4h3

# Angle Coeffs

angle_coeff	1   69.96954  119.70000  # c3h,c3h,c4h2
angle_coeff	2   62.10020  114.00000  # c3h,c4h2,c4h2
angle_coeff	3   62.10020  114.00000  # c3h,c4h2,c4h3

# Dihedral Coeffs

dihedral_coeff	1    1.91086    1.85422    0.43627   -2.24348    0.00000  # c3h,c3h,c4h2,c4h2
dihedral_coeff	2    1.91086    1.85422    0.43627   -2.24348    0.00000  # c3h,c3h,c4h2,c4h3
dihedral_coeff	3    2.00702   -4.01203    0.27102    6.29006    0.00000  # c3h,c4h2,c4h2,c3h
dihedral_coeff	4   25.63496    0.99360  -25.63496   -0.99360    0.00000  # c4h2,c3h,c3h,c4h2


# --- Thermo Output ---
thermo_style custom step time temp press enthalpy etotal ke pe ebond eangle edihed eimp evdwl ecoul elong etail vol lx ly lz density pxx pyy pzz
thermo_modify flush yes
thermo 1000

# --- Trajectory ---
dump dump_npt all custom 1000 npt_production.dump id type mol x y z ix iy iz vx vy vz

# --- Restart Checkpointing ---
# No restart checkpointing

# --- Initial Velocities (optional) ---
# Velocities read from data file

# --- SHAKE Constraints ---
# SHAKE disabled (TraPPE-UA united-atom)

# --- NPT Thermostat + Barostat (Nose-Hoover) ---
# T_damp = 100.0 fs  (heat bath coupling)
# P_damp = 1000.0 fs  (pressure bath coupling, ~10x T_damp typical)
# Ramp: T=300.0->300.0K  P=1.0->1.0atm
timestep 2.0
fix npt_fix all npt temp 300.0 300.0 100.0 iso 1.0 1.0 1000.0

run 1500000

CITE-CITE-CITE-CITE-CITE-CITE-CITE-CITE-CITE-CITE-CITE-CITE-CITE

Your simulation uses code contributions which should be cited:

- GPU package (short-range, long-range and three-body potentials): doi:10.1016/j.cpc.2010.12.021, doi:10.1016/j.cpc.2011.10.012, doi:10.1016/j.cpc.2013.08.002, doi:10.1016/j.commatsci.2014.10.068, doi:10.1016/j.cpc.2016.10.020, doi:10.3233/APC200086

@Article{Brown11,
 author = {W. M. Brown and P. Wang and S. J. Plimpton and A. N. Tharrington},
 title = {Implementing Molecular Dynamics on Hybrid High Performance Computers---Short Range Forces},
 journal = {Comput.\ Phys.\ Commun.},
 year =    2011,
 volume =  182,
 pages =   {898--911},
 doi =     {10.1016/j.cpc.2010.12.021}
}

@Article{Brown12,
 author = {W. M. Brown and A. Kohlmeyer and S. J. Plimpton and A. N. Tharrington},
 title = {Implementing Molecular Dynamics on Hybrid High Performance Computers - Particle-Particle Particle-Mesh},
 journal = {Comput.\ Phys.\ Commun.},
 year =    2012,
 volume =  183,
 doi =     {10.1016/j.cpc.2011.10.012},
 pages =   {449--459}
}

@Article{Brown13,
 author = {W. M. Brown and Y. Masako},
 title = {Implementing Molecular Dynamics on Hybrid High Performance Computers---Three-Body Potentials},
 journal = {Comput.\ Phys.\ Commun.},
 year =    2013,
 volume =  184,
 pages =   {2785--2793},
 doi =     {10.1016/j.cpc.2013.08.002},
}

@Article{Trung15,
 author = {T. D. Nguyen and S. J. Plimpton},
 title = {Accelerating Dissipative Particle Dynamics Simulations for Soft Matter Systems},
 journal = {Comput.\ Mater.\ Sci.},
 year =    2015,
 doi =     {10.1016/j.commatsci.2014.10.068},
 volume =  100,
 pages =   {173--180}
}

@Article{Trung17,
 author = {T. D. Nguyen},
 title = {{GPU}-Accelerated {T}ersoff Potentials for Massively Parallel
    Molecular Dynamics Simulations},
 journal = {Comput.\ Phys.\ Commun.},
 year =    2017,
 doi =     {10.1016/j.cpc.2016.10.020},
 volume =  212,
 pages =   {113--122}
}

@inproceedings{Nikolskiy19,
 author = {V. Nikolskiy and V. Stegailov},
 title = {{GPU} Acceleration of Four-Site Water Models in {LAMMPS}},
 booktitle = {Proceedings of the International Conference on Parallel
    Computing (ParCo 2019), Prague, Czech Republic},
 doi =     {10.3233/APC200086},
 year =    2019
}

CITE-CITE-CITE-CITE-CITE-CITE-CITE-CITE-CITE-CITE-CITE-CITE-CITE

Generated 3 of 3 mixed pair_coeff terms from arithmetic mixing rule
Per MPI rank memory allocation (min/avg/max) = 15.7 | 15.7 | 15.7 Mbytes
   Step          Time           Temp          Press         Enthalpy        TotEng         KinEng         PotEng         E_bond        E_angle        E_dihed        E_impro         E_vdwl         E_coul         E_long         E_tail         Volume           Lx             Ly             Lz          Density          Pxx            Pyy            Pzz      
         0   0              299.95083     -12.030105      11691.035      11726.423      7187.6413      4538.7813      2436.6555      2365.7417      8791.1565      0             -9054.7723      0              0             -288.1704       201702.52      58.645826      58.645826      58.645826      0.89557821    -502.76577      17.378618      449.29684    
      1000   2000           300.27188      511.887        13193.379      11694.926      7195.3346      4499.5915      2440.4613      2353.975       8819.0275      0             -9113.8724      0              0             -289.57936      200721.12      58.550556      58.550556      58.550556      0.899957       643.00606      345.2471       547.40784    
      2000   4000           302.3826       297.63278      12537.923      11663.121      7245.9131      4417.2082      2412.189       2377.071       8747.5334      0             -9119.5851      0              0             -288.40812      201536.26      58.629708      58.629708      58.629708      0.896317       902.09379      187.50004     -196.69549    
      3000   6000           305.22157      718.55072      13898.126      11798.936      7313.9428      4484.9932      2501.3086      2385.1315      8750.1438      0             -9151.5907      0              0             -290.16315      200317.29      58.511263      58.511263      58.511263      0.90177129     1114.4376      519.21973      521.99483    
      4000   8000           297.33579     -354.19617      10430.111      11467.794      7124.978       4342.8159      2383.9938      2349.7269      8725.1114      0             -9116.0162      0              0             -289.34476      200883.87      58.566377      58.566377      58.566377      0.89922788    -329.71233     -336.89694     -395.97925    
      5000   10000          300.38468     -593.56965      9995.7898      11739.619      7198.0375      4541.5819      2491.1083      2407.4502      8740.0027      0             -9096.9793      0              0             -288.5388       201444.99      58.620856      58.620856      58.620856      0.89672312    -411.0182      -690.70694     -678.9838     
      6000   12000          297.9243      -137.03771      11171.799      11574.782      7139.0801      4435.7015      2431.7278      2346.2098      8721.2703      0             -9063.5064      0              0             -288.26413      201636.93      58.639469      58.639469      58.639469      0.8958695     -95.834482      451.69033     -766.96898    
      7000   14000          307.17036      63.230676      12076.831      11891.792      7360.6411      4531.1509      2443.5627      2412.231       8795.1619      0             -9119.8046      0              0             -289.6687       200659.22      58.544536      58.544536      58.544536      0.90023465     544.62446     -361.67875      6.7463206    
      8000   16000          300.47026      3.3956556      11627.765      11617.813      7200.0882      4417.7246      2454.0922      2388.4953      8666.6731      0             -9091.536       0              0             -289.22046      200970.21      58.574766      58.574766      58.574766      0.89884158     252.66704     -529.58046      287.10038    
      9000   18000          302.55459     -29.172057      11731.247      11817.214      7250.0345      4567.1795      2477.59        2429.2683      8756.366       0             -9096.0448      0              0             -287.65635      202062.97      58.680739      58.680739      58.680739      0.89398064    -266.39918      154.8843       23.998716    
     10000   20000          301.82958     -179.78104      11077.603      11603.8        7232.6614      4371.1382      2422.7224      2405.2254      8698.0367      0             -9154.8463      0              0             -289.62239      200691.31      58.547657      58.547657      58.547657      0.9000907      161.24049     -125.32009     -575.26353    
     11000   22000          299.28896      671.75988      13622.182      11664.361      7171.781       4492.5795      2464.0794      2428.5534      8765.5713      0             -9165.6245      0              0             -290.85573      199840.29      58.464784      58.464784      58.464784      0.90392371     751.92762      784.91335      478.43867    
     12000   24000          298.91763     -414.55158      10385.438      11602.55       7162.8831      4439.6669      2408.5187      2402.8066      8746.0817      0             -9117.7401      0              0             -288.72502      201315.06      58.60825       58.60825       58.60825       0.89730186    -316.86478     -378.88597     -547.904      
     13000   26000          296.33844     -199.89201      11017.503      11602.6        7101.0785      4501.5217      2444.1436      2403.9888      8775.6853      0             -9122.296       0              0             -289.6035       200704.39      58.548929      58.548929      58.548929      0.90003202     1.8988308     -237.72077     -363.85408    
     14000   28000          297.13603     -24.542305      11546.205      11618.047      7120.1911      4497.8562      2500.2941      2396.7622      8709.5517      0             -9108.7517      0              0             -289.58275      200718.78      58.550328      58.550328      58.550328      0.89996751    -252.85147      96.196385      83.028169    
     15000   30000          294.58361      155.01741      11935.758      11481.648      7059.0281      4422.6203      2402.225       2446.2558      8679.623       0             -9105.4835      0              0             -289.37194      200865         58.564542      58.564542      58.564542      0.89931238     79.617077     -105.02315      490.45829    
     16000   32000          298.89271     -84.244499      11376.746      11623.529      7162.286       4461.2434      2421.4509      2430.3945      8724.5616      0             -9115.1636      0              0             -289.37547      200862.55      58.564305      58.564305      58.564305      0.89932333    -504.05146      68.500218      182.81775    
     17000   34000          300.44368      741.53444      13846.156      11668.155      7199.4514      4468.7032      2496.0716      2389.1066      8682.3067      0             -9098.7818      0              0             -288.60891      201396.05      58.616109      58.616109      58.616109      0.896941       488.96852      576.71363      1158.9212    
     18000   36000          300.4112       241.90412      12382.49       11672.462      7198.6731      4473.7887      2438.2902      2401.1077      8735.946       0             -9101.5552      0              0             -288.80469      201259.53      58.602861      58.602861      58.602861      0.89754945     345.68807     -252.63053      632.65482    
     19000   38000          301.79114     -278.14277      10976.909      11791.997      7231.7402      4560.2571      2437.425       2456.3482      8741.4405      0             -9074.9567      0              0             -289.26769      200937.39      58.571577      58.571577      58.571577      0.89898837    -231.21526      169.96044     -773.17349    
     20000   40000          300.00891     -254.75853      10816.458      11562.79       7189.0332      4373.7573      2449.4358      2342.9678      8666.8365      0             -9085.4829      0              0             -289.35648      200875.73      58.565586      58.565586      58.565586      0.89926431    -153.06849     -678.56342      67.356325    
     21000   42000          303.34536      381.01509      12855.192      11741.126      7268.9835      4472.1422      2458.5422      2399.0803      8726.7041      0             -9112.1843      0              0             -289.91298      200490.15      58.528089      58.528089      58.528089      0.9009938      836.00603     -255.03972      562.07895    
     22000   44000          301.7164      -133.16411      11325.588      11715.455      7229.9492      4485.5061      2443.0885      2453.6697      8704.1684      0             -9115.4205      0              0             -289.5389       200749.17      58.553284      58.553284      58.553284      0.89983124    -35.295093      411.75036     -775.94759    
     23000   46000          297.55751      362.49643      12616.251      11554.444      7130.2908      4424.1536      2411.7794      2394.6824      8722.7389      0             -9105.0471      0              0             -289.39756      200847.21      58.562814      58.562814      58.562814      0.899392       158.93302      370.7559       557.80037    
     24000   48000          301.57623     -303.76057      10950.059      11841.6        7226.5904      4615.0092      2510.2935      2441.7569      8814.7341      0             -9151.7753      0              0             -288.81987      201248.95      58.601834      58.601834      58.601834      0.89759665    -729.14387     -318.31         136.17215    
     25000   50000          303.08239      8.9826891      11764.333      11738.079      7262.6822      4475.3967      2483.2295      2364.5697      8787.3055      0             -9159.708       0              0             -290.03634      200404.87      58.51979       58.51979       58.51979       0.90137719     156.13385     -67.61892      -61.566866    
     26000   52000          301.18491     -214.8107       11091.57       11721.933      7217.2132      4504.7197      2460.8748      2390.5516      8748.2477      0             -9094.9544      0              0             -288.86939      201214.45      58.598485      58.598485      58.598485      0.89775053    -449.82248     -86.927187     -107.68241    
     27000   54000          299.58706     -101.27653      11355.48       11652.384      7178.9245      4473.4591      2439.5414      2402.8334      8754.9031      0             -9123.8187      0              0             -289.15441      201016.11      58.579225      58.579225      58.579225      0.89863632    -618.68025      101.75236      213.09832    
     28000   56000          301.84055      39.782981      11850.655      11734.011      7232.9243      4501.087       2458.4683      2386.399       8765.5622      0             -9109.3425      0              0             -289.11653      201042.45      58.581783      58.581783      58.581783      0.89851861    -71.470513     -164.56313      355.38259    
     29000   58000          299.63904      237.71521      12170.394      11476.586      7180.1701      4296.4159      2419.9772      2320.8175      8732.6568      0             -9177.0356      0              0             -290.4387       200127.24      58.492754      58.492754      58.492754      0.90262763     17.776705      218.03311      477.33581    
     30000   60000          299.03261      72.25437       11822.687      11611.513      7165.6383      4445.8744      2403.5597      2436.5456      8750.9751      0             -9145.206       0              0             -290.04128      200401.45      58.519457      58.519457      58.519457      0.90139256     376.26339     -235.04764      75.547356    
     31000   62000          299.31083      139.53041      12023.57       11616.37       7172.3053      4444.0643      2449.2854      2406.258       8723.137       0             -9134.6161      0              0             -290.46759      200107.33      58.490814      58.490814      58.490814      0.90271744     159.44855     -68.319712      327.46238    
     32000   64000          299.01817      80.327153      11942.923      11707.289      7165.2924      4541.9963      2430.3144      2425.2209      8778.1409      0             -9091.6798      0              0             -288.97449      201141.27      58.59138       58.59138       58.59138       0.89807716     22.836984      128.41354      89.730933    
     33000   66000          297.84177      353.8733       12609.117      11571.282      7137.1026      4434.1793      2409.6113      2377.6813      8728.6927      0             -9081.806       0              0             -289.03882      201096.5       58.587033      58.587033      58.587033      0.89827709     396.56375      43.990548      621.06559    
     34000   68000          301.79099     -33.022041      11589.402      11686.009      7231.7367      4454.2724      2426.6841      2405.2182      8739.9898      0             -9117.6197      0              0             -289.75589      200598.84      58.538664      58.538664      58.538664      0.9005056     -92.392518     -223.21114      216.53753    
     35000   70000          298.46661     -90.859241      11353.213      11619.329      7152.0753      4467.2532      2392.0691      2420.2906      8762.7157      0             -9107.8223      0              0             -289.42407      200828.82      58.561026      58.561026      58.561026      0.89947439    -982.36606      216.56912      493.21922    
     36000   72000          296.15146      466.66102      12860.101      11490.965      7096.598       4394.3669      2352.9893      2412.4894      8742.7677      0             -9113.8794      0              0             -288.9292       201172.8       58.594441      58.594441      58.594441      0.89793641     450.65618      289.83132      659.49555    
     37000   74000          300.53115     -261.36491      10854.219      11623.879      7201.5474      4422.3317      2424.3929      2371.6594      8718.3298      0             -9092.0505      0              0             -287.86228      201918.41      58.666743      58.666743      58.666743      0.89462063    -340.91377     -344.72933     -98.451636    
     38000   76000          296.39746     -153.74847      11126.97       11580.916      7102.4928      4478.4234      2393.6716      2366.0423      8767.8504      0             -9049.1409      0              0             -287.10677      202449.75      58.718157      58.718157      58.718157      0.89227266     126.12391     -410.49532     -176.87398    
     39000   78000          302.55218      84.784481      11968.189      11718.887      7249.9767      4468.9104      2388.297       2400.8791      8733.8862      0             -9054.152       0              0             -288.28842      201619.94      58.637822      58.637822      58.637822      0.89594499    -21.007497      163.85966      111.50128    
     40000   80000          298.71918      108.27222      12160.411      11842.217      7158.1277      4684.0889      2463.1176      2431.73        8838.3881      0             -9049.1467      0              0             -288.4434       201511.62      58.627318      58.627318      58.627318      0.89642663    -34.948252      236.76089      123.00402    
     41000   82000          299.2884       348.26764      12611.797      11587.061      7171.7677      4415.2935      2398.6028      2406.1349      8712.7915      0             -9102.2356      0              0             -288.09648      201754.27      58.650841      58.650841      58.650841      0.89534849     479.70436      377.36931      187.72926    
     42000   84000          302.72766      197.8529       12332.145      11749.501      7254.1817      4495.3194      2432.7063      2377.6653      8759.3943      0             -9074.4464      0              0             -287.8564       201922.54      58.667142      58.667142      58.667142      0.89460234     302.68634      109.36078      181.51159    
     43000   86000          303.72578     -54.217746      11655.173      11814.752      7278.0995      4536.6526      2455.703       2436.3115      8720.5015      0             -9075.8634      0              0             -288.00688      201817.04      58.656923      58.656923      58.656923      0.89507001    -87.343293     -184.03516      108.72521    
     44000   88000          298.97227      63.675619      11900.262      11712.424      7164.1924      4548.2316      2431.4191      2407.1586      8776.9224      0             -9067.2685      0              0             -287.35925      202271.88      58.700955      58.700955      58.700955      0.89305731     74.7794        168.16052     -51.913061    
     45000   90000          298.06123      184.84361      12226.023      11683.942      7142.3613      4541.5809      2431.4334      2419.1459      8753.9656      0             -9062.964       0              0             -289.05283      201086.75      58.586087      58.586087      58.586087      0.89832062     266.22302      12.865367      275.44243    
     46000   92000          301.72759     -201.85875      11186.787      11777.818      7230.2173      4547.6009      2418.8496      2432.2046      8809.9511      0             -9113.4044      0              0             -289.51664      200764.61      58.554784      58.554784      58.554784      0.89976206    -531.38419     -89.618146      15.426088    
     47000   94000          298.84082     -405.5189       10467.221      11659.433      7161.0426      4498.3901      2456.5751      2375.1923      8737.5093      0             -9070.8866      0              0             -288.33303      201588.75      58.634797      58.634797      58.634797      0.89608365    -508.22522     -685.97289     -22.358593    
     48000   96000          304.22762      105.9561       12219.356      11906.726      7290.1249      4616.6016      2501.6557      2378.0989      8753.6924      0             -9016.8455      0              0             -287.29808      202314.94      58.705121      58.705121      58.705121      0.89286722     276.03883      278.81767     -236.98821    
     49000   98000          300.93908      389.44308      12797.553      11652.566      7211.3226      4441.2436      2384.4335      2379.532       8754.6831      0             -9077.4051      0              0             -288.3235       201595.41      58.635443      58.635443      58.635443      0.89605402     579.68922      782.15264     -193.51262    
     50000   100000         299.82423      411.37351      12925.637      11711.981      7184.6077      4527.3729      2451.8931      2392.6594      8697.5318      0             -9014.7115      0              0             -287.32744      202294.27      58.703121      58.703121      58.703121      0.89295845     712.2261       353.05039      168.84405    
     51000   102000         306.11974     -621.90236      10070.938      11894.194      7335.4653      4558.7292      2429.821       2384.9071      8803.7345      0             -9059.7334      0              0             -289.14184      201024.85      58.580074      58.580074      58.580074      0.89859727    -898.77441     -431.07279     -535.8599     
     52000   104000         301.45151      308.32115      12740.442      11834.641      7223.6016      4611.039       2480.4991      2451.8949      8766.5614      0             -9087.9164      0              0             -288.54055      201443.76      58.620737      58.620737      58.620737      0.89672858     655.48554      196.7311       72.746814    
     53000   106000         296.28596      120.85973      11883.418      11527.599      7099.821       4427.7779      2380.7215      2384.4481      8681.4299      0             -9018.8216      0              0             -287.93098      201870.24      58.662077      58.662077      58.662077      0.89483412     652.46904     -1.244947      -288.64492    
     54000   108000         301.11039      240.83497      12430.43       11725.166      7215.4276      4509.7387      2443.6998      2437.6185      8710.7558      0             -9082.3354      0              0             -289.47052      200796.59      58.557894      58.557894      58.557894      0.89961874     902.80991     -210.27707      29.97206     
     55000   110000         298.58848     -6.8187367      11641.739      11661.758      7154.9957      4506.7623      2473.3854      2405.2152      8700.0132      0             -9071.8516      0              0             -288.73521      201307.95      58.60756       58.60756       58.60756       0.89733354     17.012861     -105.25017      67.7811      
     56000   112000         302.49366      211.60056      12240.995      11623.164      7248.5744      4374.5899      2392.4483      2429.8373      8663.8504      0             -9111.5462      0              0             -290.32477      200205.77      58.500404      58.500404      58.500404      0.90227356    -148.11102      372.67073      410.24198    
     57000   114000         298.20005     -469.31955      10242.628      11625.207      7145.6878      4479.5195      2458.6315      2377.2363      8725.2877      0             -9081.636       0              0             -287.74985      201997.31      58.674382      58.674382      58.674382      0.89427123    -412.83913     -97.383345     -897.73619    
     58000   116000         299.50903     -137.65235      11398.418      11804.209      7177.0546      4627.154       2535.8336      2353.6079      8754.5855      0             -9016.873       0              0             -287.55291      202135.65      58.687775      58.687775      58.687775      0.89365915     55.772253     -660.05193      191.32263    
     59000   118000         299.18297      10.793771      11778.988      11747.255      7169.2413      4578.0135      2492.5956      2430.1589      8725.3553      0             -9070.0964      0              0             -288.33796      201585.3       58.634463      58.634463      58.634463      0.89609895    -337.95223     -162.22069      532.55423    
     60000   120000         299.70684      55.458         11816.73       11653.144      7181.7948      4471.3497      2418.6306      2386.0597      8727.8983      0             -9061.2389      0              0             -287.37912      202257.89      58.699602      58.699602      58.699602      0.89311908     155.07205     -99.690825      110.99278    
     61000   122000         295.51152     -262.12009      10949.092      11716.646      7081.2633      4635.3828      2494.1866      2470.3164      8763.551       0             -9092.6712      0              0             -289.48625      200785.68      58.556833      58.556833      58.556833      0.89966762    -593.82264      282.37029     -474.90793    
     62000   124000         297.02134      273.24912      12439.713      11640.979      7117.4428      4523.5357      2456.9553      2412.2369      8759.2738      0             -9104.9302      0              0             -289.99676      200432.22      58.522452      58.522452      58.522452      0.9012542      518.17246     -166.18051      467.7554     
     63000   126000         297.86987      19.455032      11750.969      11693.856      7137.7758      4556.0797      2446.0593      2427.4394      8781.4199      0             -9098.8389      0              0             -288.75704      201292.74      58.606084      58.606084      58.606084      0.89740137     147.53364     -211.60784      122.4393     
     64000   128000         303.34882      40.368975      11941.941      11822.664      7269.0665      4553.5978      2479.6704      2309.4382      8803.8366      0             -9039.3473      0              0             -286.89844      202596.76      58.732366      58.732366      58.732366      0.89162521     53.629789     -58.995539      126.47267    
     65000   130000         297.83777     -218.79524      10949.748      11592.061      7137.0067      4455.054       2476.6568      2356.6096      8714.4456      0             -9092.6579      0              0             -288.75377      201295.02      58.606305      58.606305      58.606305      0.8973912     -523.97566      327.93088     -460.34094    
     66000   132000         301.29197      287.04053      12581.998      11739.697      7219.7788      4519.9179      2458.4932      2328.379       8816.15        0             -9083.1043      0              0             -288.87648      201209.51      58.598006      58.598006      58.598006      0.89777256     730.25381     -320.51466      451.38243    
     67000   134000         302.22872      228.66439      12461.991      11791.516      7242.2258      4549.2899      2483.8184      2440.5407      8746.6717      0             -9121.741       0              0             -289.10259      201052.14      58.582725      58.582725      58.582725      0.89847527     51.579568      414.02196      220.39163    
     68000   136000         300.71322     -164.7075       11235.138      11719.211      7205.9104      4513.3003      2434.3524      2441.3416      8737.7898      0             -9100.1836      0              0             -288.42909      201521.61      58.628287      58.628287      58.628287      0.89638217    -134.71005     -464.40894      104.9965     
     69000   138000         299.84804     -212.82221      11013.092      11636.837      7185.1782      4451.6589      2499.9732      2406.3493      8676.3185      0             -9130.982       0              0             -289.23196      200962.22      58.573989      58.573989      58.573989      0.89887732    -248.03109     -116.5042      -273.93133    
     70000   140000         297.9813      -314.33114      10689.465      11614.96       7140.446       4474.514       2438.4649      2393.2961      8728.5511      0             -9085.7981      0              0             -287.9056       201888.03      58.6638        58.6638        58.6638        0.89475527    -620.18761     -310.05772     -12.748095    
     71000   142000         296.11885      0.21037628     11520.89       11520.269      7095.8165      4424.4526      2413.4174      2382.5807      8662.2314      0             -9033.7769      0              0             -287.43997      202215.07      58.69546       58.69546       58.69546       0.89330818     147.4361      -161.53475      14.729779    
     72000   144000         297.52226      132.18276      12080.03       11691.106      7129.4461      4561.6595      2453.6485      2410.2621      8759.6085      0             -9061.8597      0              0             -288.10222      201750.25      58.650452      58.650452      58.650452      0.89536631     238.56633     -309.03292      467.01487    
     73000   146000         300.79027      427.53641      13104.246      11854.468      7207.7566      4646.7117      2528.5287      2451.2213      8777.3822      0             -9110.4205      0              0             -289.98583      200439.78      58.523187      58.523187      58.523187      0.90122021     298.80537      663.80938      319.99447    
     74000   148000         301.80054     -267.5322       10986.53       11771.182      7231.9655      4539.2167      2442.2164      2392.4586      8815.6661      0             -9111.1244      0              0             -289.02498      201106.13      58.587968      58.587968      58.587968      0.89823407    -370.43784     -226.50784     -205.65091    
     75000   150000         299.37059     -248.36978      10895.537      11626.303      7173.7372      4452.5655      2420.0921      2408.9772      8681.9877      0             -9058.4914      0              0             -288.10936      201745.25      58.649967      58.649967      58.649967      0.8953885     -676.70733      216.07628     -284.47828    
     76000   152000         304.07645     -427.4136       10638.564      11891.701      7286.5024      4605.1987      2463.3412      2444.9417      8802.2853      0             -9105.3694      0              0             -289.12541      201036.27      58.581183      58.581183      58.581183      0.89854621    -599.24865     -414.84223     -268.14991    
     77000   154000         301.42515      657.27462      13724.251      11792.211      7222.97        4569.2413      2396.8803      2476.131       8797.9118      0             -9101.6819      0              0             -288.38142      201554.92      58.631518      58.631518      58.631518      0.89623401     1306.081      -18.211954      683.95485    
     78000   156000         300.33496      496.16633      13229.193      11770.231      7196.8461      4573.3845      2483.9081      2354.2136      8804.6177      0             -9069.3549      0              0             -288.28354      201623.35      58.638153      58.638153      58.638153      0.89592983     26.14742       359.9948       1102.3568    
     79000   158000         297.96841      38.284876      11621.515      11509.604      7140.1372      4369.4667      2440.5305      2386.3502      8707.1088      0             -9164.5228      0              0             -289.99598      200432.76      58.522504      58.522504      58.522504      0.90125178    -234.02447      356.60042     -7.721326     
     80000   160000         296.14899      327.40629      12550.865      11592.641      7096.5388      4496.1019      2392.7826      2438.3886      8745.1624      0             -9080.2318      0              0             -289.63851      200680.13      58.54657       58.54657       58.54657       0.90014082     393.48506      142.67603      446.05778    
     81000   162000         297.38449      476.99747      13048.297      11650.396      7126.1447      4524.2514      2477.5494      2420.4193      8707.1367      0             -9080.854       0              0             -289.25194      200948.33      58.572641      58.572641      58.572641      0.89893941     686.22111      78.738626      666.03269    
     82000   164000         298.58116      135.60682      12187.414      11787.892      7154.8202      4633.0713      2439.0949      2443.9103      8795.9448      0             -9045.8786      0              0             -287.72484      202014.86      58.676082      58.676082      58.676082      0.89419351    -35.012607      529.77863     -87.94555     
     83000   166000         301.97952     -203.90978      11021.451      11618.707      7236.2543      4382.4531      2420.0011      2310.3311      8739.0273      0             -9086.9064      0              0             -289.41009      200838.52      58.561969      58.561969      58.561969      0.89943094     238.27922     -650.98398     -199.02459    
     84000   168000         297.43428      319.51191      12602.484      11658.694      7127.3378      4531.356       2433.6026      2445.8767      8711.6944      0             -9059.8178      0              0             -286.9778       202540.73      58.726952      58.726952      58.726952      0.89187185    -126.04616      583.64436      500.93753    
     85000   170000         304.71186      189.61707      12258.841      11700.967      7301.7287      4399.2386      2366.801       2400.4995      8697.5432      0             -9065.6051      0              0             -288.12295      201735.73      58.649045      58.649045      58.649045      0.89543075    -25.327589      292.06369      302.11511    
     86000   172000         299.88378      282.69833      12470.639      11639.566      7186.0345      4453.5315      2442.0625      2391.9068      8704.302       0             -9084.7397      0              0             -288.3506       201576.47      58.633607      58.633607      58.633607      0.89613823    -56.702145      45.409965      859.38717    
     87000   174000         293.94861     -323.93188      10651.421      11604.273      7043.8117      4560.4611      2439.3679      2484.7475      8715.2402      0             -9078.8944      0              0             -288.18059      201695.38      58.645134      58.645134      58.645134      0.89560988    -217.92366     -885.62999      131.758      
     88000   176000         299.69091     -402.0064       10398.374      11578.153      7181.4129      4396.7404      2438.2983      2334.9559      8754.7918      0             -9131.3056      0              0             -288.84749      201229.7       58.599966      58.599966      58.599966      0.89768248    -736.12773     -429.58648     -40.304981    
     89000   178000         305.37571      64.588777      12085.365      11895.622      7317.6362      4577.9853      2521.4553      2417.8855      8713.1097      0             -9074.4652      0              0             -288.55369      201434.59      58.619847      58.619847      58.619847      0.89676942     180.06886     -325.10958      338.80705    
     90000   180000         300.18062     -212.94403      11047.297      11671.731      7193.1477      4478.5837      2446.5569      2429.0412      8705.9291      0             -9102.9434      0              0             -289.07789      201069.32      58.584393      58.584393      58.584393      0.89839853    -301.53253     -190.99209     -146.30747    
     91000   182000         297.97998     -216.95375      10924.179      11562.234      7140.4145      4421.8191      2447.2361      2345.2426      8757.2217      0             -9127.8813      0              0             -288.2344       201657.73      58.641485      58.641485      58.641485      0.89577709     19.400145     -380.49978     -289.76162    
     92000   184000         301.36078      429.58139      13057.349      11798.591      7221.4275      4577.1639      2502.3853      2431.3756      8776.6002      0             -9133.1973      0              0             -289.29438      200918.85      58.569776      58.569776      58.569776      0.89907133     703.54436      122.44435      462.75548    
     93000   186000         303.35811     -384.86411      10512.389      11637.761      7269.2891      4368.4722      2436.3863      2315.5866      8737.5131      0             -9121.0138      0              0             -289.89974      200499.3       58.528979      58.528979      58.528979      0.90095268     311.35953     -880.53319     -585.41868    
     94000   188000         300.90462      98.549159      11888.82       11599.622      7210.4967      4389.1251      2372.1916      2429.2596      8718.5649      0             -9130.8911      0              0             -288.86393      201218.25      58.598854      58.598854      58.598854      0.89773356     185.69589      325.61332     -215.66174    
     95000   190000         296.48535      412.03194      12701.954      11498.13       7104.5991      4393.5305      2453.965       2417.575       8685.9538      0             -9163.9633      0              0             -290.13791      200334.71      58.51296       58.51296       58.51296       0.90169286     191.03351      646.9452       398.1171     
     96000   192000         296.64206     -892.11257      8925.1409      11537.024      7108.3541      4428.6696      2396.7937      2359.4455      8803.7284      0             -9131.298       0              0             -289.53599      200751.19      58.55348       58.55348       58.55348       0.89982219    -908.84133     -641.46485     -1126.0315    
     97000   194000         302.73992     -67.66181       11501.914      11699.733      7254.4755      4445.257       2454.6458      2383.3451      8735.4252      0             -9128.159       0              0             -289.94406      200468.65      58.525997      58.525997      58.525997      0.9010904      17.862024     -468.27619      247.42874    
     98000   196000         303.7034      -92.191108      11646.885      11917.327      7277.5633      4639.7633      2489.9488      2437.5958      8800.0179      0             -9087.7992      0              0             -288.96926      201144.91      58.591734      58.591734      58.591734      0.8980609      116.81136     -64.063698     -329.32099    
     99000   198000         297.21948     -139.03153      11022.234      11430.788      7122.1907      4308.5978      2336.8707      2417.337       8694.4555      0             -9140.0655      0              0             -288.46926      201493.55      58.625566      58.625566      58.625566      0.896507       74.271392      45.756274     -537.12225    
    100000   200000         304.14826     -134.77412      11330.153      11724.861      7288.2233      4436.6377      2467.187       2426.3705      8662.4451      0             -9119.3648      0              0             -289.44566      200813.84      58.55957       58.55957       58.55957       0.89954148    -476.62498     -24.475864      96.77849     
    101000   202000         294.36581     -44.933699      11216.324      11347.665      7053.8091      4293.8562      2404.3467      2365.5336      8717.9156      0             -9193.9396      0              0             -290.00675      200425.32      58.52178       58.52178       58.52178       0.90128523     259.14144     -119.79565     -274.14688    
    102000   204000         301.5595       94.667856      11997.499      11720.3        7226.1895      4494.1102      2438.4947      2455.8348      8723.8563      0             -9124.0756      0              0             -289.49948      200776.51      58.555941      58.555941      58.555941      0.89970874     52.098232      159.70818      72.197157    
    103000   206000         299.44525     -155.89681      11209.228      11664.971      7175.5264      4489.4442      2459.5328      2429.7849      8737.827       0             -9137.7005      0              0             -289.97072      200450.22      58.524204      58.524204      58.524204      0.90117325    -110.10985     -379.40609      21.82552     
    104000   208000         303.30682     -214.64399      11087.411      11713.908      7268.06        4445.8483      2452.3371      2416.73        8770.6646      0             -9193.8833      0              0             -290.42653      200135.63      58.493571      58.493571      58.493571      0.90258982    -3.9642983     -449.90433     -190.06334    
    105000   210000         295.71763     -37.726925      11470.429      11581.186      7086.2024      4494.9833      2463.6393      2388.5321      8760.9034      0             -9118.0915      0              0             -288.74776      201299.2       58.606711      58.606711      58.606711      0.89737254     248.13237     -550.52223      189.20909    
    106000   212000         298.4612      -146.32859      11175.725      11605.281      7151.9458      4453.3353      2438.5591      2406.3412      8693.6685      0             -9085.2335      0              0             -288.76602      201286.48      58.605476      58.605476      58.605476      0.89742928    -329.60892      9.8671959     -119.24404    
    107000   214000         302.4189      -75.724186      11552.483      11774.999      7246.783       4528.2161      2483.3836      2394.8094      8758.1506      0             -9108.1276      0              0             -288.47585      201488.94      58.625119      58.625119      58.625119      0.89652749     101.60582     -162.44573     -166.33265    
    108000   216000         298.71354      154.92916      12131.912      11679.125      7157.9925      4521.1326      2439.0368      2440.6866      8775.5577      0             -9134.1486      0              0             -290.05172      200394.24      58.518755      58.518755      58.518755      0.90142499     130.1206      -263.42223      598.08911    
    109000   218000         298.76142     -200.18518      11125.204      11711.353      7159.1399      4552.2129      2460.7653      2436.1275      8775.7797      0             -9120.4595      0              0             -289.50782      200770.73      58.555379      58.555379      58.555379      0.89973465    -120.2403      -638.93633      158.62109    
    110000   220000         304.18228      645.01641      13667.223      11772.077      7289.0385      4483.0389      2425.3675      2425.9476      8765.6491      0             -9133.9253      0              0             -288.51251      201463.34      58.622636      58.622636      58.622636      0.89664144     783.15444      495.36866      656.52614    
    111000   222000         298.10404      209.70777      12265.995      11650.114      7143.3871      4506.7268      2451.5695      2440.204       8766.7221      0             -9151.7688      0              0             -288.63837      201375.5       58.614115      58.614115      58.614115      0.89703256     264.11608      390.71586     -25.708627    
    112000   224000         294.46883     -145.68736      11169.687      11596.958      7056.2776      4540.6805      2540.756       2372.835       8719.4944      0             -9092.405       0              0             -289.0383       201096.86      58.587068      58.587068      58.587068      0.89827548    -241.10813     -471.76273      275.80877    
    113000   226000         302.99183      183.65964      12411.607      11870.396      7260.5119      4609.8844      2516.9935      2438.3867      8736.2281      0             -9081.7239      0              0             -287.66308      202058.24      58.680281      58.680281      58.680281      0.89400156     50.624957      366.49041      133.86355    
    114000   228000         304.50284     -191.46107      11207.284      11770.226      7296.72        4473.5056      2394.6265      2379.5273      8794.2463      0             -9094.8946      0              0             -288.3059       201607.72      58.636637      58.636637      58.636637      0.89599931    -270.31511     -349.88442      45.816332    
    115000   230000         294.91934     -305.78948      10619.749      11519.805      7067.0732      4452.7315      2464.878       2389.1531      8678.8936      0             -9080.1932      0              0             -287.99825      201823.08      58.657508      58.657508      58.657508      0.89504321     100.46339     -963.18362     -54.64822     
    116000   232000         295.6948       233.68547      12307.29       11620.795      7085.6551      4535.1395      2504.5635      2485.4643      8676.6948      0             -9131.5832      0              0             -288.55618      201432.85      58.619679      58.619679      58.619679      0.89677714     291.68375      513.4409      -104.06823    
    117000   234000         300.94663     -134.61064      11380.423      11775.396      7211.5035      4563.8926      2448.418       2473.1455      8733.9657      0             -9091.6366      0              0             -288.90079      201192.58      58.596362      58.596362      58.596362      0.89784811    -160.14714      14.313554     -257.99832    
    118000   236000         297.75972     -363.26886      10517.81       11585.886      7135.1364      4450.7498      2448.4982      2382.9043      8733.9528      0             -9114.6055      0              0             -288.31185      201603.56      58.636234      58.636234      58.636234      0.8960178     -621.74476     -53.685561     -414.37625    
    119000   238000         297.46277      44.813637      11763.296      11632.275      7128.0207      4504.2542      2516.8111      2397.4925      8717.2289      0             -9127.2784      0              0             -289.93739      200473.26      58.526446      58.526446      58.526446      0.90106968    -190.82948     -201.18343      526.45382    
    120000   240000         295.54835      158.28542      12034.139      11570.676      7082.146       4488.5296      2461.2844      2362.6458      8766.9667      0             -9102.3673      0              0             -289.5089       200769.97      58.555306      58.555306      58.555306      0.89973801     10.28868      -69.469309      534.0369     
    121000   242000         303.15017      462.00981      13054.727      11700.539      7264.3063      4436.2329      2492.383       2390.0445      8670.2727      0             -9116.4674      0              0             -289.20696      200979.59      58.575677      58.575677      58.575677      0.89879963    -75.558947      647.64261      813.94576    
    122000   244000         301.29871     -234.63625      11079.12       11767.391      7219.9403      4547.4506      2468.6403      2414.6265      8750.8225      0             -9086.6387      0              0             -288.98296      201135.37      58.590807      58.590807      58.590807      0.8981035     -535.56304     -200.89203      32.546307    
    123000   246000         297.42715     -331.79371      10531.594      11503.791      7127.1671      4376.6236      2439.1621      2329.6691      8753.9582      0             -9146.1657      0              0             -289.30151      200913.9       58.569295      58.569295      58.569295      0.89909349     60.236052     -1031.0064     -24.610835    
    124000   248000         300.98534     -298.63942      10761.527      11638.471      7212.4311      4426.0404      2493.0879      2320.4786      8763.2344      0             -9150.7606      0              0             -288.67673      201348.73      58.611518      58.611518      58.611518      0.89715179    -264.7105      -528.91907     -102.28871    
    125000   250000         299.54592     -67.750618      11589.662      11788.998      7177.9385      4611.06        2458.1981      2455.3526      8795.4474      0             -9097.9381      0              0             -288.11254      201743.02      58.649751      58.649751      58.649751      0.89539839     210.18566     -78.722209     -334.71531    
    126000   252000         300.99456      284.31196      12431.082      11596.905      7212.652       4384.2531      2421.3686      2347.5391      8741.78        0             -9126.4347      0              0             -288.91719      201181.16      58.595253      58.595253      58.595253      0.89789907     169.20489      732.23311     -48.502116    
    127000   254000         298.36806     -61.304646      11480.692      11660.14       7149.7139      4510.426       2440.9012      2417.9826      8760.7497      0             -9109.2076      0              0             -289.5954       200710.01      58.549476      58.549476      58.549476      0.90000682    -338.03876     -256.38421      410.50903    
    128000   256000         298.55132     -411.7432       10376.847      11583.195      7154.1053      4429.0893      2425.1587      2406.2864      8730.9557      0             -9133.3114      0              0             -289.32816      200895.39      58.567496      58.567496      58.567496      0.8991763     -634.90896     -479.39074     -120.9299     
    129000   258000         293.13818     -480.50219      10036.278      11443.214      7024.3917      4418.8218      2435.5698      2386.7705      8723.9099      0             -9127.4283      0              0             -289.50606      200771.94      58.555498      58.555498      58.555498      0.89972918    -405.79673     -361.95258     -673.75726    
    130000   260000         300.21046      159.31128      12240.967      11772.512      7193.8627      4578.6489      2456.7806      2415.7474      8785.9935      0             -9079.8725      0              0             -288.28001      201625.83      58.638392      58.638392      58.638392      0.89591885     5.9184412     -42.570851      514.58624    
    131000   262000         300.42098      236.75458      12456.812      11759.261      7198.9075      4560.3533      2444.144       2391.7626      8780.6984      0             -9056.2517      0              0             -287.71269      202023.4       58.676908      58.676908      58.676908      0.89415573     366.2693       322.51662      21.47784     
    132000   264000         302.75413     -233.09493      11001.639      11687.455      7254.8162      4432.639       2396.2347      2332.2038      8757.3135      0             -9053.113       0              0             -288.11239      201743.13      58.649762      58.649762      58.649762      0.89539792    -297.288       -53.570658     -348.42614    
    133000   266000         301.41243     -49.401747      11547.954      11692.801      7222.6654      4470.1359      2422.8392      2387.3058      8749.9494      0             -9089.9585      0              0             -289.11361      201044.48      58.58198       58.58198       58.58198       0.89850953     406.14421      33.453166     -587.80262    
    134000   268000         297.99726     -490.39291      10205.732      11649.497      7140.8285      4508.6687      2448.3276      2375.6604      8757.7071      0             -9073.0263      0              0             -287.9281       201872.25      58.662272      58.662272      58.662272      0.89482519    -548.08266     -723.72628     -199.36978    
    135000   270000         301.96932     -323.69936      10815.058      11772.79       7236.0098      4536.7797      2457.607       2383.7546      8735.3242      0             -9039.906       0              0             -286.50652      202873.9       58.759135      58.759135      58.759135      0.89040718    -403.91032     -459.63096     -107.5568     
    136000   272000         298.44329     -165.39027      11121.51       11606.468      7151.5166      4454.9514      2406.1712      2460.8547      8717.8331      0             -9129.9075      0              0             -289.09603      201056.7       58.583168      58.583168      58.583168      0.8984549     -282.11735     -128.1642      -85.889245    
    137000   274000         298.38328     -135.58009      11249.126      11646.427      7150.0785      4496.3483      2416.5342      2411.8537      8781.5336      0             -9113.5733      0              0             -289.27625      200931.45      58.571         58.571         58.571         0.89901498    -255.13577     -24.186629     -127.41786    
    138000   276000         298.6418      -421.61465      10322.03       11564.483      7156.2735      4408.2097      2384.2416      2385.6383      8713.1923      0             -9074.8625      0              0             -287.65515      202063.81      58.680821      58.680821      58.680821      0.8939769     -407.21373     -330.28187     -527.34835    
    139000   278000         307.57908     -295.37461      10984.562      11849.693      7370.4351      4479.2584      2451.7802      2426.0006      8727.4793      0             -9126.0017      0              0             -289.41952      200831.98      58.561333      58.561333      58.561333      0.89946022    -204.9121      -293.33386     -387.87787    
    140000   280000         297.05622     -796.23313      9222.3158      11555.799      7118.2787      4437.5205      2387.5544      2388.7129      8809.9509      0             -9148.6978      0              0             -289.24916      200950.26      58.572828      58.572828      58.572828      0.8989308     -829.96666     -980.67185     -578.06089    
    141000   282000         294.27665     -156.02886      11146.545      11603.214      7051.6726      4551.5412      2444.0432      2465.1703      8734.6847      0             -9092.357       0              0             -289.62806      200687.38      58.547275      58.547275      58.547275      0.90010832    -171.72339     -60.725745     -235.63746    
    142000   284000         296.41091      101.98879      11834.819      11534.964      7102.8151      4432.1492      2368.5746      2400.0774      8718.3814      0             -9054.8843      0              0             -288.32175      201596.64      58.635562      58.635562      58.635562      0.89604856     25.239519      475.44714     -194.72028    
    143000   286000         300.97358      159.67632      12233.455      11766.294      7212.1491      4554.1449      2441.2755      2425.3104      8796.591       0             -9109.032       0              0             -289.74115      200609.04      58.539656      58.539656      58.539656      0.90045981     243.86916     -37.824929      272.98473    
    144000   288000         302.79961     -280.76284      10913.793      11740.815      7255.9059      4484.909       2399.3621      2443.6586      8719.3432      0             -9077.4549      0              0             -287.77904      201976.82      58.672398      58.672398      58.672398      0.89436195     106.87218     -595.72331     -353.43739    
    145000   290000         298.3795       214.74518      12278.224      11648.289      7149.9879      4498.3006      2417.924       2412.2544      8745.8363      0             -9077.714       0              0             -288.97752      201139.16      58.591175      58.591175      58.591175      0.89808658     43.945599      418.1723       182.11763    
    146000   292000         298.07817     -528.66992      10156.225      11710.466      7142.7672      4567.6988      2451.9925      2421.7104      8729.6426      0             -9035.6466      0              0             -288.33855      201584.89      58.634423      58.634423      58.634423      0.8961008     -740.36879     -370.29497     -475.34601    
    147000   294000         301.42672      586.13258      13514.399      11789.881      7223.0078      4566.8728      2462.2581      2403.1229      8790.8664      0             -9089.3746      0              0             -288.11417      201741.88      58.64964       58.64964       58.64964       0.89540347     430.46423      733.51653      594.417      
    148000   296000         296.48833      285.23837      12451.763      11610.934      7104.6705      4506.2637      2496.9512      2337.1253      8736.3572      0             -9064.17        0              0             -287.56548      202126.82      58.686919      58.686919      58.686919      0.89369823     295.35595      624.44638     -64.087224    
    149000   298000         295.29032      246.49641      12388.215      11664.423      7075.9628      4588.4603      2456.7376      2480.726       8756.0833      0             -9105.0866      0              0             -288.69114      201338.68      58.610542      58.610542      58.610542      0.89719658    -364.73718      590.06312      514.1633     
    150000   300000         302.42895      55.124671      11834.735      11672.464      7247.0238      4425.4404      2429.8965      2335.9167      8705.3209      0             -9045.6936      0              0             -287.9672       201844.85      58.659617      58.659617      58.659617      0.89494669    -668.56446      358.78828      475.15019    
    151000   302000         299.32714     -343.43215      10689.898      11698.275      7172.6959      4525.5786      2462.8728      2383.7957      8788.5443      0             -9109.6342      0              0             -288.70543      201328.72      58.609576      58.609576      58.609576      0.89724097    -81.449855     -420.64841     -528.1982     
    152000   304000         302.02628     -446.23021      10362.534      11667.306      7237.3747      4429.9316      2377.6326      2413.892       8765.6829      0             -9127.2759      0              0             -289.90835      200493.35      58.5284        58.5284        58.5284        0.90097942    -255.09006     -653.59269     -430.00788    
    153000   306000         300.20835      325.1238       12482.813      11529.458      7193.8121      4335.6459      2346.7453      2371.4481      8755.7669      0             -9138.3144      0              0             -289.08857      201061.89      58.583672      58.583672      58.583672      0.89843171     569.55108      48.903993      356.91631    
    154000   308000         302.19719     -123.67618      11391.777      11755.338      7241.4704      4513.8672      2473.0289      2453.6943      8698.8102      0             -9111.6662      0              0             -288.36704      201564.98      58.632493      58.632493      58.632493      0.89618932    -1038.171       220.73366      446.40875    
    155000   310000         298.70279      194.21354      12202.746      11632.761      7157.735       4475.0259      2477.2292      2392.596       8723.6409      0             -9118.4402      0              0             -288.83702      201237         58.600674      58.600674      58.600674      0.89764993     118.07312      176.35691      288.2106     
    156000   312000         304.7101      -36.468883      11730.735      11838.147      7301.6865      4536.4605      2456.627       2378.0531      8741.6975      0             -9039.9171      0              0             -287.8101       201955.02      58.670288      58.670288      58.670288      0.89445846    -295.96892      59.817582      126.74469    
    157000   314000         297.22824      2.5397985      11594.39       11586.953      7122.4006      4464.5521      2458.5257      2451.3048      8729.1042      0             -9174.3827      0              0             -289.46843      200798.04      58.558035      58.558035      58.558035      0.89961224     359.39501     -592.75098      240.97536    
    158000   316000         302.32735     -536.73388      10172.932      11742.713      7244.5893      4498.1239      2558.2021      2407.4666      8680.2005      0             -9147.7453      0              0             -289.83874      200541.5       58.533086      58.533086      58.533086      0.90076308    -441.78012     -784.33834     -384.08319    
    159000   318000         299.50997      683.85798      13597.502      11603.509      7177.0772      4426.4318      2470.1237      2408.9983      8723.7439      0             -9176.434       0              0             -290.7226       199931.8       58.473707      58.473707      58.473707      0.90350997     1355.4465     -150.68749      846.8149     
    160000   320000         299.46181     -17.496719      11503.002      11554.414      7175.9231      4378.491       2471.8659      2386.0245      8650.2054      0             -9129.6048      0              0             -288.48786      201480.56      58.624306      58.624306      58.624306      0.89656482     250.94568     -69.38731      -234.04853    
    161000   322000         299.06623      271.50269      12466.117      11669.343      7166.4438      4502.8995      2484.0177      2457.8157      8683.4086      0             -9122.3425      0              0             -288.85216      201226.45      58.59965       58.59965       58.59965       0.89769698     1070.4814      438.35689     -694.33028    
    162000   324000         301.12942     -282.22379      10675.383      11497.589      7215.8835      4281.7057      2450.03        2353.9443      8658.8644      0             -9181.133       0              0             -290.97065      199761.37      58.457087      58.457087      58.457087      0.90428084     57.484906     -255.60959     -648.54668    
    163000   326000         304.54289      119.6006       12083.303      11734.546      7297.6796      4436.8663      2469.5894      2394.4372      8729.0656      0             -9156.2258      0              0             -290.70128      199946.47      58.475137      58.475137      58.475137      0.90344369    -141.43072      277.77053      222.46198    
    164000   328000         301.01714      192.60075      12249.559      11687.466      7213.1931      4474.2727      2530.1051      2444.6019      8671.3576      0             -9171.7919      0              0             -290.46005      200112.52      58.49132       58.49132       58.49132       0.90269401     165.13691     -5.8338924      418.49924    
    165000   330000         298.75449      456.23578      12866.268      11530.201      7158.9737      4371.2271      2482.3101      2370.862       8686.7562      0             -9168.7012      0              0             -289.46602      200799.71      58.558197      58.558197      58.558197      0.89960476     333.01093      886.89329      148.80313    
    166000   332000         295.73325     -480.35716      10001.879      11400.926      7086.5767      4314.3489      2503.2517      2304.7319      8671.1086      0             -9164.7433      0              0             -291.05081      199706.35      58.451719      58.451719      58.451719      0.90452997    -664.34139     -343.84319     -432.88689    
    167000   334000         297.81987      140.21255      12024.323      11615.531      7136.5777      4478.9532      2526.1499      2344.7979      8743.1117      0             -9135.1063      0              0             -290.75097      199912.3       58.471806      58.471806      58.471806      0.90359812     462.68866     -176.15609      134.10507    
    168000   336000         299.82913      257.28695      12234.727      11481.008      7184.7251      4296.2826      2444.7603      2322.7477      8676.6815      0             -9147.907       0              0             -289.36398      200870.53      58.56508       58.56508       58.56508       0.89928762     378.61123      339.30203      53.9476      
    169000   338000         301.52032      443.43181      13043.959      11744.132      7225.2506      4518.8814      2468.4435      2359.095       8769.9923      0             -9078.6494      0              0             -289.18647      200993.83      58.57706       58.57706       58.57706       0.89873595     755.84557      265.52344      308.92642    
    170000   340000         298.53051      189.87926      12063.491      11505.628      7153.6065      4352.0216      2432.1343      2375.1855      8682.0569      0             -9137.3552      0              0             -288.52696      201453.25      58.621658      58.621658      58.621658      0.89668633     243.45734      268.97543      57.205009    
    171000   342000         297.68211     -177.22187      10904.462      11424.599      7133.2766      4291.3225      2441.3531      2304.8388      8667.4102      0             -9122.2796      0              0             -288.82594      201244.72      58.601423      58.601423      58.601423      0.89761551     60.648851     -373.4614      -218.85307    
    172000   344000         300.31284      264.80218      12411.264      11634.559      7196.3161      4438.2426      2459.96        2422.6954      8685.0293      0             -9129.4422      0              0             -289.00281      201121.55      58.589466      58.589466      58.589466      0.89816519     273.3138      -98.845748      619.93847    
    173000   346000         297.52767      189.86567      12067.484      11517.421      7129.5758      4387.8454      2470.0289      2353.0638      8759.7777      0             -9195.025       0              0             -292.59771      198650.54      58.34853       58.34853       58.34853       0.90933745     297.26707     -26.761531      299.09146    
    174000   348000         303.7081       185.80455      12354.483      11810.414      7277.6758      4532.7378      2503.4684      2445.1934      8722.3741      0             -9138.298       0              0             -289.4935       200780.65      58.556344      58.556344      58.556344      0.89969016     250.27672     -105.68267      412.8196     
    175000   350000         302.56856     -101.6569       11329.927      11626.669      7250.3692      4376.2995      2437.3476      2397.7911      8733.9414      0             -9192.7806      0              0             -290.39846      200154.97      58.495455      58.495455      58.495455      0.90250261    -251.12335     -170.11269      116.26534    
    176000   352000         304.89619     -395.17987      10479.924      11635.652      7306.1456      4329.5066      2485.9443      2365.99        8641.5853      0             -9164.0129      0              0             -289.85161      200532.59      58.532219      58.532219      58.532219      0.90080309    -566.0147      -134.21096     -485.31394    
    177000   354000         304.24154      123.13407      12136.384      11775.592      7290.4586      4485.1338      2486.1433      2388.3698      8706.8247      0             -9096.2039      0              0             -289.30633      200910.55      58.568969      58.568969      58.568969      0.89910847    -47.420178     -52.132668      468.95504    
    178000   356000         301.73329     -372.16307      10523.77       11612.6        7230.354       4382.2456      2417.1421      2433.2571      8707.6962      0             -9175.8498      0              0             -289.74108      200609.09      58.539661      58.539661      58.539661      0.90045958    -208.64251     -137.19546     -770.65123    
    179000   358000         297.20443     -358.31071      10398.545      11444.537      7121.83        4322.7068      2441.3452      2304.6731      8738.2436      0             -9161.5552      0              0             -290.38087      200167.09      58.496637      58.496637      58.496637      0.90244792    -733.93804     -330.70274     -10.291346    
    180000   360000         299.14428      443.05552      12866.614      11568.768      7168.3141      4400.4538      2484.0215      2400.7326      8657.5664      0             -9141.8668      0              0             -289.38192      200858.07      58.563869      58.563869      58.563869      0.89934338     315.00496      222.85175      791.30985    
    181000   362000         303.53829     -358.72634      10725.247      11775.922      7273.6068      4502.3153      2490.6612      2468.7913      8690.7427      0             -9147.8799      0              0             -289.42192      200830.31      58.561171      58.561171      58.561171      0.89946769    -356.43362     -330.86102     -388.88437    
    182000   364000         301.90616      110.43744      11910.845      11587.664      7234.4964      4353.168       2433.2785      2396.8192      8655.2693      0             -9132.199       0              0             -289.67311      200656.17      58.54424       58.54424       58.54424       0.90024833    -16.41665       175.53172      172.19724    
    183000   366000         295.08975     -348.63862      10499.887      11519.936      7071.1565      4448.7792      2457.9195      2373.8917      8703.5969      0             -9086.6288      0              0             -289.72854      200617.77      58.540505      58.540505      58.540505      0.90042062    -616.77162     -392.08496     -37.059287    
    184000   368000         298.61966     -166.56048      11140.01       11628.256      7155.7429      4472.5127      2488.759       2380.9566      8732.3032      0             -9129.5061      0              0             -289.18134      200997.39      58.577406      58.577406      58.577406      0.89872002    -93.714554     -325.02235     -80.94454     
    185000   370000         300.67195      421.54892      12883.624      11652.193      7204.9215      4447.2718      2432.5276      2430.343       8754.461       0             -9170.0598      0              0             -290.18479      200302.35      58.509809      58.509809      58.509809      0.90183854     1257.2929      26.156857     -18.803032    
    186000   372000         303.14876      282.9997       12544.564      11714.259      7264.2725      4449.986       2416.5222      2431.9077      8689.0801      0             -9087.524       0              0             -288.92475      201175.89      58.594742      58.594742      58.594742      0.89792259     249.80525      427.01922      172.17462    
    187000   374000         297.82501      375.0952       12572.222      11472.562      7136.7009      4335.8616      2422.9241      2363.3355      8694.0486      0             -9144.4467      0              0             -289.14789      201020.65      58.579666      58.579666      58.579666      0.89861605     55.357349      741.21477      328.71349    
    188000   376000         296.52652     -141.57872      11173.693      11590.799      7105.5855      4485.2138      2458.2733      2398.8277      8676.5344      0             -9048.4215      0              0             -287.73163      202010.1       58.675621      58.675621      58.675621      0.89421459    -9.4398944     -414.9987      -0.29756941   
    189000   378000         303.68969     -169.29539      11172.025      11667.057      7277.2346      4389.8228      2478.7899      2345.1002      8702.4955      0             -9136.5629      0              0             -289.89972      200499.31      58.528981      58.528981      58.528981      0.90095261    -373.18283     -159.6221       24.918748    
    190000   380000         302.22372     -115.82689      11238.697      11577.379      7242.1061      4335.2727      2472.488       2330.5882      8697.2511      0             -9165.0547      0              0             -289.90394      200496.39      58.528697      58.528697      58.528697      0.90096573    -697.07855      292.77637      56.821525    
    191000   382000         300.90249      206.99523      12299.418      11692.018      7210.4458      4481.5718      2469.5544      2379.8337      8722.3135      0             -9090.1299      0              0             -288.88288      201205.05      58.597572      58.597572      58.597572      0.89779247     499.87232      60.166541      60.946817    
    192000   384000         293.9981       307.81501      12366.491      11465.573      7044.9977      4420.5757      2413.3867      2422.0343      8735.0154      0             -9149.8608      0              0             -289.62854      200687.04      58.547242      58.547242      58.547242      0.90010984     482.99002     -73.722836      514.17785    
    193000   386000         298.56465      312.57706      12469.732      11554.515      7154.4248      4400.0905      2373.2457      2388.2273      8790.2557      0             -9151.6382      0              0             -289.51413      200766.35      58.554954      58.554954      58.554954      0.89975425     379.18611      636.16999     -77.62492     
    194000   388000         301.23378      107.22465      12128.323      11814.092      7218.3843      4595.708       2470.5504      2445.9572      8796.1895      0             -9116.989       0              0             -289.25634      200945.28      58.572344      58.572344      58.572344      0.89895309     103.21554     -790.00945      1008.4679    
    195000   390000         304.99222      181.58473      12393.393      11859.28       7308.4469      4550.8335      2397.5862      2471.6744      8711.2032      0             -9029.6303      0              0             -288.19281      201686.83      58.644306      58.644306      58.644306      0.89564785     583.93843      16.75226      -55.936487    
    196000   392000         299.57852      543.64607      13338.235      11740.84       7178.7199      4562.1201      2490.4992      2383.8768      8761.0166      0             -9073.2724      0              0             -288.49651      201474.51      58.62372       58.62372       58.62372       0.8965917      428.23549      645.90503      556.79769    
    197000   394000         304.56963      262.73215      12692.699      11923.933      7298.3204      4625.6128      2487.647       2412.4396      8791.7748      0             -9066.2488      0              0             -289.70475      200634.25      58.542108      58.542108      58.542108      0.90034667     184.31486     -30.028346      633.90994    
    198000   396000         298.51145     -151.75267      11433.996      11877.974      7153.1498      4724.8239      2498.5579      2502.0787      8852.4062      0             -9128.2188      0              0             -289.74185      200608.56      58.539609      58.539609      58.539609      0.90046198     357.48418     -607.24943     -205.49275    
    199000   398000         305.94469      315.48963      12745.595      11823.719      7331.2706      4492.4486      2414.584       2399.4489      8823.2167      0             -9144.8011      0              0             -290.10096      200360.23      58.515444      58.515444      58.515444      0.90157801     432.57116      198.37034      315.52739    
[...]
   1458000   2916000        301.17774      140.34038      12161.939      11750.585      7217.0414      4533.5438      2440.7761      2408.1001      8750.6681      0             -9066.0005      0              0             -289.20395      200981.68      58.57588       58.57588       58.57588       0.89879027     433.42615     -200.64638      188.24136    
   1459000   2918000        300.60101     -183.52168      11188.858      11730.28       7203.2215      4527.0581      2516.4666      2367.4001      8695.922       0             -9052.7305      0              0             -287.33464      202289.2       58.702631      58.702631      58.702631      0.89298084     299.98856     -569.76347     -280.79013    
   1460000   2920000        297.76793     -292.18224      10786.478      11647.42       7135.3332      4512.0872      2402.7468      2403.0982      8759.8714      0             -9053.6292      0              0             -287.68422      202043.39      58.678844      58.678844      58.678844      0.89406725    -416.5349       112.81392     -572.82573    
   1461000   2922000        303.98121     -158.46978      11291.543      11758.15       7284.2203      4473.9297      2410.4613      2433.6941      8719.3645      0             -9089.5903      0              0             -287.89348      201896.53      58.664623      58.664623      58.664623      0.89471758    -163.60985     -22.179084     -289.6204     
   1462000   2924000        298.5667       222.94892      12348.897      11692.376      7154.4737      4537.902       2466.8415      2357.0944      8788.7853      0             -9074.8191      0              0             -287.86804      201914.37      58.666351      58.666351      58.666351      0.89463854     46.582129      342.93115      279.33348    
   1463000   2926000        303.44124     -355.18795      10697.221      11739.251      7271.2811      4467.9696      2394.7509      2408.7112      8784.6555      0             -9120.148       0              0             -288.94471      201161.99      58.593393      58.593393      58.593393      0.89798463    -252.00494     -665.45469     -148.1042     
   1464000   2928000        300.88877      917.68849      14365.224      11672.312      7210.1169      4462.1951      2339.6466      2434.4977      8736.6149      0             -9048.5641      0              0             -288.87485      201210.65      58.598116      58.598116      58.598116      0.8977675      1042.8896      969.33679      740.83909    
   1465000   2930000        294.95112     -599.63643      9869.6194      11633.718      7067.8347      4565.8836      2438.3088      2414.8488      8762.1175      0             -9049.3915      0              0             -288.13875      201724.67      58.647973      58.647973      58.647973      0.89547984    -554.17418     -424.41043     -820.32466    
   1466000   2932000        298.28103     -60.317762      11438.447      11615.766      7147.6284      4468.1375      2385.5845      2379.7179      8747.6553      0             -9044.8202      0              0             -288.35487      201573.48      58.633317      58.633317      58.633317      0.89615151    -197.11246      104.85061     -88.691444    
   1467000   2934000        299.43719      83.170187      11984.396      11739.428      7175.3331      4564.0949      2500.826       2448.4243      8660.4827      0             -9045.6381      0              0             -287.80298      201960.02      58.670772      58.670772      58.670772      0.89443633     56.921332     -105.07348      297.66271    
   1468000   2936000        298.12204     -7.2910434      11680.596      11702.083      7143.8187      4558.2646      2456.8563      2368.3754      8768.7886      0             -9035.7556      0              0             -287.63419      202078.53      58.682246      58.682246      58.682246      0.89391177     57.824864     -584.06208      504.36408    
   1469000   2938000        303.70376      67.006561      12083.661      11885.586      7277.5717      4608.0142      2454.3695      2399.6842      8749.9783      0             -8996.0178      0              0             -286.76381      202691.88      58.741556      58.741556      58.741556      0.8912068     -144.44134      248.02385      97.437174    
   1470000   2940000        302.23316     -317.31874      10853.162      11796.495      7242.3323      4554.1632      2459.625       2346.9902      8687.7318      0             -8940.1839      0              0             -285.14594      203841.91      58.852443      58.852443      58.852443      0.88617877    -342.18767     -194.52354     -415.24501    
   1471000   2942000        300.33231      15.418968      11817.635      11772.121      7196.7827      4575.3378      2495.244       2389.911       8725.7688      0             -9035.5859      0              0             -287.1729       202403.13      58.71365       58.71365       58.71365       0.89247818     112.01746     -326.57565      260.8151     
   1472000   2944000        298.27916     -2.7537414      11687.226      11695.359      7147.5836      4547.7758      2457.7168      2353.6549      8758.2492      0             -9021.8451      0              0             -286.99818      202526.35      58.725562      58.725562      58.725562      0.89193518     62.476966     -367.68554      296.94735    
   1473000   2946000        301.63243     -52.432454      11523.77       11677.249      7227.9371      4449.312       2402.664       2401.2217      8795.787       0             -9150.3606      0              0             -289.59235      200712.12      58.549681      58.549681      58.549681      0.89999736    -40.558772     -457.6573       340.91871    
   1474000   2948000        297.16395     -149.09535      11197.53       11637.234      7120.8601      4516.3735      2440.5125      2420.5601      8693.9534      0             -9038.6526      0              0             -287.43556      202218.17      58.69576       58.69576       58.69576       0.89329448     243.51702     -376.70754     -314.09554    
   1475000   2950000        299.70782      249.04697      12365.672      11633.236      7181.8183      4451.4177      2412.8756      2395.0032      8706.8201      0             -9063.2812      0              0             -288.23582      201656.73      58.641388      58.641388      58.641388      0.89578153    -123.93291      573.37804      297.69579    
   1476000   2952000        305.46053     -122.49914      11434.881      11794.412      7319.6689      4474.7427      2451.1101      2385.6         8727.1494      0             -9089.1167      0              0             -288.82438      201245.81      58.601529      58.601529      58.601529      0.89761064    -189.70878     -378.8282       201.03957    
   1477000   2954000        303.1709      -207.67344      11059.674      11667.911      7264.803       4403.1082      2413.1267      2376.2913      8724.0628      0             -9110.3726      0              0             -289.43078      200824.17      58.560574      58.560574      58.560574      0.89949523    -584.75516      87.622509     -125.88766    
   1478000   2956000        301.07513     -198.70065      11020.853      11604.48       7214.5827      4389.8973      2458.9933      2341.337       8667.6444      0             -9078.0774      0              0             -288.60252      201400.51      58.616541      58.616541      58.616541      0.89692116    -29.666406     -221.94641     -344.48912    
   1479000   2958000        305.57813      94.848954      12132.212      11853.534      7322.4868      4531.0476      2488.09        2380.9912      8735.8417      0             -9073.8753      0              0             -288.51419      201462.17      58.622522      58.622522      58.622522      0.89664665     35.157036      421.07435     -171.68452    
   1480000   2960000        302.85837     -391.4084       10451.322      11603.781      7257.314       4346.4672      2393.0354      2398.6629      8635.9221      0             -9081.1532      0              0             -287.89973      201892.15      58.664198      58.664198      58.664198      0.89473703    -523.86415     -863.4445       213.08344    
   1481000   2962000        301.08495      101.07671      11978.928      11683.222      7214.8179      4468.4036      2465.9976      2388.9127      8759.2955      0             -9145.8022      0              0             -289.7523       200601.32      58.538905      58.538905      58.538905      0.90049446     159.85456      183.63211     -40.256541    
   1482000   2964000        303.09872      303.53974      12506.585      11619.734      7263.0733      4356.6607      2390.5945      2375.0865      8696.8071      0             -9105.8274      0              0             -290.13603      200336.01      58.513087      58.513087      58.513087      0.90168701     289.05872      225.82051      395.73998    
   1483000   2966000        296.59894     -268.36288      10785.133      11573.796      7107.3209      4466.4755      2444.3819      2399.4093      8707.7492      0             -9085.0649      0              0             -288.44804      201508.37      58.627004      58.627004      58.627004      0.89644105    -347.44974     -356.9513      -100.6876     
   1484000   2968000        299.11431     -513.24131      10002.175      11508.49       7167.5959      4340.8943      2366.8051      2384.4594      8735.1823      0             -9145.5525      0              0             -288.83005      201241.85      58.601145      58.601145      58.601145      0.89762828    -448.07642     -1128.4411      36.793569    
   1485000   2970000        295.69146      294.98385      12453.372      11590.775      7085.5753      4505.1999      2419.4667      2439.5111      8774.5836      0             -9128.3615      0              0             -289.88586      200508.9       58.529913      58.529913      58.529913      0.90090954     431.87144      209.70115      243.37896    
   1486000   2972000        299.43366      100.94626      11930.962      11634.845      7175.2484      4459.5964      2438.7593      2356.5969      8728.5723      0             -9064.3322      0              0             -288.9774       201139.24      58.591183      58.591183      58.591183      0.89808621     70.970534      62.115411      169.75284    
   1487000   2974000        301.13088     -625.20009      9905.469       11744.998      7215.9186      4529.0791      2415.0106      2458.5922      8721.8091      0             -9066.3329      0              0             -288.10383      201749.12      58.650342      58.650342      58.650342      0.89537132    -399.2877      -1242.3361     -233.97649    
   1488000   2976000        301.80351     -335.58983      10743.906      11733.048      7232.0366      4501.0117      2444.7466      2422.6086      8692.7145      0             -9059.058       0              0             -287.59842      202103.66      58.684678      58.684678      58.684678      0.89380061     21.318848     -261.06983     -767.01852    
   1489000   2978000        297.79753      89.622198      11818.182      11555.308      7136.0424      4419.2654      2410.0683      2382.538       8711.9291      0             -9085.2699      0              0             -289.00388      201120.81      58.589394      58.589394      58.589394      0.89816849    -393.05127      262.7164       399.20146    
   1490000   2980000        298.42379      51.070161      11784.465      11634.095      7151.0493      4483.0462      2405.5662      2436.4472      8724.8352      0             -9083.8024      0              0             -287.90176      201890.73      58.664061      58.664061      58.664061      0.89474331     435.44558     -155.25314     -126.98195    
   1491000   2982000        298.57988     -105.18415      11213.834      11520.321      7154.7898      4365.5316      2355.6903      2393.4964      8753.4223      0             -9137.0773      0              0             -290.92085      199795.56      58.460422      58.460422      58.460422      0.90412608    -409.19553     -437.81491      531.45799    
   1492000   2984000        296.77177      294.41832      12505.574      11638.511      7111.4625      4527.0486      2414.6418      2378.8173      8767.5163      0             -9033.9268      0              0             -287.83978      201934.2       58.668271      58.668271      58.668271      0.89455069     189.70204      637.78916      55.763748    
   1493000   2986000        303.77204      147.35614      12269.088      11834.303      7279.2079      4555.0946      2413.2029      2436.3994      8739.12        0             -9033.6277      0              0             -287.29596      202316.44      58.705265      58.705265      58.705265      0.89286062     161.49376      349.98622     -69.411563    
   1494000   2988000        296.24538      304.02355      12610.653      11721.246      7098.8488      4622.3974      2474.1115      2483.2965      8701.2257      0             -9036.2363      0              0             -289.76322      200593.76      58.53817       58.53817       58.53817       0.90052838     51.865537      336.93958      523.26554    
   1495000   2990000        299.63254     -281.34171      10962.711      11791.025      7180.0142      4611.0106      2454.4493      2401.7669      8810.398       0             -9055.6035      0              0             -287.92247      201876.2       58.662654      58.662654      58.662654      0.89480768    -385.39441     -77.476684     -381.15403    
   1496000   2992000        303.1583       364.99831      12643.774      11578.701      7264.5011      4314.2001      2403.2093      2356.2039      8687.8715      0             -9133.0847      0              0             -290.50138      200084.05      58.488546      58.488546      58.488546      0.90282246     267.89501      561.28635      265.81356    
   1497000   2994000        302.4839       278.83138      12507.59       11691.404      7248.3405      4443.063       2393.5621      2406.8989      8761.6593      0             -9119.0574      0              0             -289.59333      200711.44      58.549615      58.549615      58.549615      0.90000041     381.80084     -190.47336      645.16666    
   1498000   2996000        301.9939       918.69362      14478.613      11774.119      7236.5988      4537.5204      2378.2217      2429.8682      8808.2011      0             -9078.7707      0              0             -287.95283      201854.92      58.660592      58.660592      58.660592      0.89490205     909.15537      777.29904      1069.6265    
   1499000   2998000        297.15225      164.88799      12023.202      11540.549      7120.5797      4419.9695      2369.8992      2411.0179      8771.6602      0             -9132.6078      0              0             -289.59452      200710.62      58.549535      58.549535      58.549535      0.9000041      32.717216      47.733861      414.2129     
   1500000   3000000        299.0575       129.56677      12056.822      11676.712      7166.2348      4510.4771      2407.1788      2431.8053      8760.8762      0             -9089.3831      0              0             -288.94853      201159.33      58.593134      58.593134      58.593134      0.8979965      106.69674      217.05963      64.943925    
Loop time of 2532.7 on 1 procs for 1500000 steps with 8040 atoms

Performance: 102.341 ns/day, 0.235 hours/ns, 592.253 timesteps/s, 4.762 Matom-step/s
99.5% CPU use with 1 MPI tasks x 1 OpenMP threads

MPI task timing breakdown:
Section |  min time  |  avg time  |  max time  |%varavg| %total
---------------------------------------------------------------
Pair    | 247.05     | 247.05     | 247.05     |   0.0 |  9.75
Bond    | 1802.4     | 1802.4     | 1802.4     |   0.0 | 71.16
Neigh   | 0.81511    | 0.81511    | 0.81511    |   0.0 |  0.03
Comm    | 158.68     | 158.68     | 158.68     |   0.0 |  6.27
Output  | 23.874     | 23.874     | 23.874     |   0.0 |  0.94
Modify  | 231.58     | 231.58     | 231.58     |   0.0 |  9.14
Other   |            | 68.32      |            |       |  2.70

Nlocal:           8040 ave        8040 max        8040 min
Histogram: 1 0 0 0 0 0 0 0 0 0
Nghost:          21809 ave       21809 max       21809 min
Histogram: 1 0 0 0 0 0 0 0 0 0
Neighs:              0 ave           0 max           0 min
Histogram: 1 0 0 0 0 0 0 0 0 0

Total # of neighbors = 0
Ave neighs/atom = 0
Ave special neighs/atom = 5.9701493
Neighbor list builds = 40472
Dangerous builds = 0

# --- Cleanup ---
unfix npt_fix

undump dump_npt

# --- Write Output ---
write_dump all custom npt_production_last.dump id type mol x y z xu yu zu vx vy vz modify sort id
write_data /home/arz2/PolyJarvis/data/cis-PBD2/lammps/equil/npt_production/npt_production_out.data
System init for write_data ...
Generated 3 of 3 mixed pair_coeff terms from arithmetic mixing rule

print "STAGE COMPLETE: NPT T=300.0->300.0K P=1.0->1.0atm steps=1500000"
STAGE COMPLETE: NPT T=300.0->300.0K P=1.0->1.0atm steps=1500000
quit
    | 0.81511    |   0.0 |  0.03
Comm    | 158.68     | 158.68     | 158.68     |   0.0 |  6.27
Output  | 23.874     | 23.874     | 23.874     |   0.0 |  0.94
Modify  | 231.58     | 231.58     | 231.58     |   0.0 |  9.14
Other   |            | 68.32      |            |       |  2.70

Nlocal:           8040 ave        8040 max        8040 min
Histogram: 1 0 0 0 0 0 0 0 0 0
Nghost:          21809 ave       21809 max       21809 min
Histogram: 1 0 0 0 0 0 0 0 0 0
Neighs:              0 ave           0 max           0 min
Histogram: 1 0 0 0 0 0 0 0 0 0

Total # of neighbors = 0
Ave neighs/atom = 0
Ave special neighs/atom = 5.9701493
Neighbor list builds = 40472
Dangerous builds = 0
System init for write_data ...


---------------------------------------------------------------------
      Device Time Info (average): 
---------------------------------------------------------------------
Data Transfer:   150.8796 s.
Neighbor copy:   6.4828 s.
Neighbor build:  22.7168 s.
Force calc:      807.8836 s.
Device Overhead: 48.2016 s.
CPU Neighbor:    12.8453 s.
CPU Cast/Pack:   113.9990 s.
CPU Driver_Time: 19.7889 s.
CPU Idle_Time:   2.6365 s.
Average split:   1.0000.
Max Mem / Proc:  100.22 MB.
Prefetch mode:   None.
Vector width:    32.
Lanes / atom:    4.
Pair block:      256.
Neigh block:     128.
Neigh mode:      Hybrid (binning on host) with subgroup support.
Neigh sorting:   Unavailable or disabled.
---------------------------------------------------------------------


--------------------------------------------------------------------------
- Using acceleration for lj/cut:
-  with 1 proc(s) per device.
-  with 1 thread(s) per proc.
-  Horizontal vector operations: ENABLED
-  Shared memory system: No
--------------------------------------------------------------------------
Device 0: Quadro RTX 6000, 72 CUs, 23/24 GB, 1.8 GHZ (Mixed Precision)
--------------------------------------------------------------------------

Initializing Device and compiling on process 0...Done.
Initializing Device 0 on core 0...Done.

Generated 3 of 3 mixed pair_coeff terms from arithmetic mixing rule
STAGE COMPLETE: NPT T=300.0->300.0K P=1.0->1.0atm steps=1500000
Cuda driver error 4 in call at file '/home/arz2/lammps/lib/gpu/geryon/nvd_timer.h' in line 98.
Cuda driver error 4 in call at file '/home/arz2/lammps/lib/gpu/geryon/nvd_timer.h' in line 99.
Cuda driver error 4 in call at file '/home/arz2/lammps/lib/gpu/geryon/nvd_timer.h' in line 98.
Cuda driver error 4 in call at file '/home/arz2/lammps/lib/gpu/geryon/nvd_timer.h' in line 99.
Cuda driver error 4 in call at file '/home/arz2/lammps/lib/gpu/geryon/nvd_timer.h' in line 98.
Cuda driver error 4 in call at file '/home/arz2/lammps/lib/gpu/geryon/nvd_timer.h' in line 99.
