units real
atom_style full
boundary p p p

# --- Force Field Styles ---
pair_style lj/class2/coul/long 9.5 9.5
kspace_style pppm 1e-6
dielectric 1.000000
bond_style class2
angle_style class2
dihedral_style class2
improper_style class2
special_bonds lj/coul 0 0 1
pair_modify mix sixthpower tail yes
neighbor 2.0 bin
neigh_modify delay 0 every 1 check yes
neigh_modify one 4000
# KOKKOS: package loaded via -pk kokkos on the command line

read_data /home/alexzhao/PolyJarvis/data/PSU3/lammps/equil/minimize/minimize_out.data
Reading data file ...
  orthogonal box = (0 0 0) to (61.892642 61.892642 61.892642)
  1 by 1 by 1 MPI processor grid
  reading atoms ...
  10816 atoms
  reading velocities ...
  10816 velocities
  scanning bonds ...
  4 = max bonds/atom
  scanning angles ...
  16 = max angles/atom
  scanning dihedrals ...
  38 = max dihedrals/atom
  scanning impropers ...
  12 = max impropers/atom
  orthogonal box = (0 0 0) to (61.892642 61.892642 61.892642)
  1 by 1 by 1 MPI processor grid
  reading bonds ...
  11608 bonds
  reading angles ...
  19600 angles
  reading dihedrals ...
  29184 dihedrals
  reading impropers ...
  8000 impropers
Finding 1-2 1-3 1-4 neighbors ...
  special bond factors lj:    0        0        1       
  special bond factors coul:  0        0        1       
     4 = max # of 1-2 neighbors
    10 = max # of 1-3 neighbors
    14 = max # of special neighbors
  special bonds CPU = 0.005 seconds
  read_data CPU = 0.330 seconds
include /home/alexzhao/PolyJarvis/data/PSU3/lammps/equil/emc_build.params
# LAMMPS parameters created by EMC v9.4.4, build Jul 31 2025 20:33:44

# Variables

variable	seed		index	734512
variable	ntotal		index	10816
variable	fshape		index	1
variable	output		index	emc_build
variable	field		index	pcff/pcff
variable	location1	index	~/emc/field/
variable	nav		index	0.6022141179
variable	temperature	index	300
variable	radius		index	5
variable	nrelax		index	100
variable	weight_nonbond	index	0.0001
variable	weight_bond	index	0.0001
variable	weight_focus	index	1
variable	cutoff		index	9.5
variable	charge_cutoff	index	9.5
variable	kappa		index	4
variable	density1	index	0.62
variable	lprevious	index	0
variable	lphase		index	61.8926417911
variable	f_poly		index	8
variable	chem_repeat	index	*Oc1ccc(C(C)(C)c2ccc(Oc3ccc(S(=O)(=O)c4ccc(*)cc4)cc3)cc2)cc1
variable	chem_cap	index	*[H]
variable	lg_repeat	index	54
variable	lg_cap		index	1
variable	norm_poly	index	100
variable	l_poly		index	1352
variable	mg_repeat	index	414.52744
variable	mg_cap		index	0
variable	m_poly		index	10363.186
variable	n_poly		index	8
variable	mtotal		index	88523.72552
variable	nphase1		index	10816
variable	mphase1		index	88523.72552
variable	vphase1		index	237092.087694
variable	lbox		index	61.8926417911
variable	lphase1		index	61.8926417911
variable	lxx		index	61.8926417911
variable	lyy		index	61.8926417911
variable	lzz		index	61.8926417911
variable	lzy		index	0
variable	lzx		index	0
variable	lyx		index	0
variable	vtotal		index	237092.087694
variable	nl_poly		index	8

# Types

variable	type_c		index	1
variable	type_cp		index	2
variable	type_hc		index	3
variable	type_ho		index	4
variable	type_oe		index	5
variable	type_oc		index	6
variable	type_oh		index	7
variable	type_sf		index	8

variable	type_bond_c_c	index	1
variable	type_bond_c_cp	index	2
variable	type_bond_c_hc	index	3
variable	type_bond_cp_cp	index	4
variable	type_bond_cp_hc	index	5
variable	type_bond_cp_oc	index	6
variable	type_bond_cp_oh	index	7
variable	type_bond_cp_sf	index	8
variable	type_bond_ho_oh	index	9
variable	type_bond_oe_sf	index	10

variable	type_angle_c_c_c index	1
variable	type_angle_c_c_cp index	2
variable	type_angle_c_c_hc index	3
variable	type_angle_c_cp_cp index	4
variable	type_angle_cp_c_cp index	5
variable	type_angle_cp_cp_cp index	6
variable	type_angle_cp_cp_hc index	7
variable	type_angle_cp_cp_oc index	8
variable	type_angle_cp_cp_oh index	9
variable	type_angle_cp_cp_sf index	10
variable	type_angle_cp_oc_cp index	11
variable	type_angle_cp_oh_ho index	12
variable	type_angle_cp_sf_cp index	13
variable	type_angle_cp_sf_oe index	14
variable	type_angle_hc_c_hc index	15
variable	type_angle_oe_sf_oe index	16

# Clusters

variable	n0_poly		index	1
variable	n1_poly		index	8
variable	nl_poly		index	8

# Flags

variable	flag_charged	index	1

# Masses

mass		1    12.01115  # c
mass		2    12.01115  # cp
mass		3     1.00797  # hc
mass		4     1.00797  # ho
mass		5    15.99940  # o=
mass		6    15.99940  # oc
mass		7    15.99940  # oh
mass		8    32.06400  # sf

# Potentials

pair_modify	mix sixthpower tail yes
special_bonds	lj/coul 0 0 1

# Pair Coeffs

pair_coeff	 1  1    0.05400    4.01000  # c,c
pair_coeff	 2  2    0.06400    4.01000  # cp,cp
pair_coeff	 3  3    0.02000    2.99500  # hc,hc
pair_coeff	 4  4    0.01300    1.09800  # ho,ho
pair_coeff	 5  5    0.06000    3.53500  # o=,o=
pair_coeff	 6  6    0.24000    3.53500  # oc,oc
pair_coeff	 7  7    0.24000    3.53500  # oh,oh
pair_coeff	 8  8    0.25000    4.02700  # sf,sf

# Bond Coeffs

bond_coeff	 1    1.53000  299.67000 -501.77000  679.81000  # c,c
bond_coeff	 2    1.50100  321.90210 -521.82080  572.16280  # c,cp
bond_coeff	 3    1.10100  345.00000 -691.89000  844.60000  # c,hc
bond_coeff	 4    1.41700  470.83610 -627.61790 1327.63450  # cp,cp
bond_coeff	 5    1.09820  372.82510 -803.45260  894.31730  # cp,hc
bond_coeff	 6    1.37680  428.87980 -738.23510 1114.96550  # cp,oc
bond_coeff	 7    1.37680  428.87980 -738.23510 1114.96550  # cp,oh
bond_coeff	 8    1.72000  239.80240    0.00000    0.00000  # cp,sf
bond_coeff	 9    0.96500  532.50620 -1282.90500 2004.76580  # ho,oh
bond_coeff	10    1.43080  743.76000    0.00000    0.00000  # o=,sf

# Angle Coeffs

angle_coeff	 1  112.67000   39.51600   -7.44300   -9.55830  # c,c,c
angle_coeff	 2  108.40000   43.95940   -8.39240   -9.33790  # c,c,cp
angle_coeff	 3  110.77000   41.45300  -10.60400    5.12900  # c,c,hc
angle_coeff	 4  120.05000   44.71480  -22.73520    0.00000  # c,cp,cp
angle_coeff	 5  111.00000   44.32340   -9.44540    0.00000  # cp,c,cp
angle_coeff	 6  118.90000   61.02260  -34.99310    0.00000  # cp,cp,cp
angle_coeff	 7  117.94000   35.15580  -12.46820    0.00000  # cp,cp,hc
angle_coeff	 8  123.42000   73.67810  -21.67870    0.00000  # cp,cp,oc
angle_coeff	 9  123.42000   73.67810  -21.67870    0.00000  # cp,cp,oh
angle_coeff	10  120.00000   60.00000    0.00000    0.00000  # cp,cp,sf
angle_coeff	11  109.50000   60.00000    0.00000    0.00000  # cp,oc,cp
angle_coeff	12  108.19000   53.12500   -8.50160    0.00000  # cp,oh,ho
angle_coeff	13  102.00000   58.00000    0.00000    0.00000  # cp,sf,cp
angle_coeff	14  113.10000   42.30000    0.00000    0.00000  # cp,sf,o=
angle_coeff	15  107.66000   39.64100  -12.92100   -2.43180  # hc,c,hc
angle_coeff	16  119.32900  135.00000    0.00000    0.00000  # o=,sf,o=

# BondBond Coeffs

angle_coeff	 1 bb    0.00000    1.53000    1.53000  # c,c,c
angle_coeff	 2 bb    0.00000    1.53000    1.50100  # c,c,cp
angle_coeff	 3 bb    3.38720    1.53000    1.10100  # c,c,hc
angle_coeff	 4 bb   12.06760    1.50100    1.41700  # c,cp,cp
angle_coeff	 5 bb    0.00000    1.50100    1.50100  # cp,c,cp
angle_coeff	 6 bb   68.28560    1.41700    1.41700  # cp,cp,cp
angle_coeff	 7 bb    1.07950    1.41700    1.09820  # cp,cp,hc
angle_coeff	 8 bb   48.47540    1.41700    1.37680  # cp,cp,oc
angle_coeff	 9 bb   48.47540    1.41700    1.37680  # cp,cp,oh
angle_coeff	10 bb    0.00000    1.41700    1.72000  # cp,cp,sf
angle_coeff	11 bb    0.00000    1.37680    1.37680  # cp,oc,cp
angle_coeff	12 bb   20.65770    1.37680    0.96500  # cp,oh,ho
angle_coeff	13 bb    0.00000    1.72000    1.72000  # cp,sf,cp
angle_coeff	14 bb    0.00000    1.72000    1.43080  # cp,sf,o=
angle_coeff	15 bb    5.33160    1.10100    1.10100  # hc,c,hc
angle_coeff	16 bb   40.00000    1.43080    1.43080  # o=,sf,o=

# BondAngle Coeffs

angle_coeff	 1 ba    8.01600    8.01600    1.53000    1.53000  # c,c,c
angle_coeff	 2 ba    0.00000    0.00000    1.53000    1.50100  # c,c,cp
angle_coeff	 3 ba   20.75400   11.42100    1.53000    1.10100  # c,c,hc
angle_coeff	 4 ba   47.05790   31.07710    1.50100    1.41700  # c,cp,cp
angle_coeff	 5 ba    0.00000    0.00000    1.50100    1.50100  # cp,c,cp
angle_coeff	 6 ba   28.87080   28.87080    1.41700    1.41700  # cp,cp,cp
angle_coeff	 7 ba   20.00330   24.21830    1.41700    1.09820  # cp,cp,hc
angle_coeff	 8 ba   58.47900  107.68060    1.41700    1.37680  # cp,cp,oc
angle_coeff	 9 ba   58.47900  107.68060    1.41700    1.37680  # cp,cp,oh
angle_coeff	10 ba    0.00000    0.00000    1.41700    1.72000  # cp,cp,sf
angle_coeff	11 ba    0.00000    0.00000    1.37680    1.37680  # cp,oc,cp
angle_coeff	12 ba   53.86140   23.92240    1.37680    0.96500  # cp,oh,ho
angle_coeff	13 ba    0.00000    0.00000    1.72000    1.72000  # cp,sf,cp
angle_coeff	14 ba    0.00000    0.00000    1.72000    1.43080  # cp,sf,o=
angle_coeff	15 ba   18.10300   18.10300    1.10100    1.10100  # hc,c,hc
angle_coeff	16 ba    0.00000    0.00000    1.43080    1.43080  # o=,sf,o=

# Dihedral Coeffs

dihedral_coeff	 1    0.00000    0.00000    0.03160    0.00000   -0.16810    0.00000  # c,c,c,hc
dihedral_coeff	 2   -0.28020    0.00000   -0.06780    0.00000   -0.01220    0.00000  # c,c,cp,cp
dihedral_coeff	 3    0.00000    0.00000    4.40720    0.00000    0.00000    0.00000  # c,cp,cp,cp
dihedral_coeff	 4    0.00000    0.00000    1.55900    0.00000    0.00000    0.00000  # c,cp,cp,hc
dihedral_coeff	 5   -0.02280    0.00000    0.02800    0.00000   -0.18630    0.00000  # cp,c,c,hc
dihedral_coeff	 6   -0.28020    0.00000   -0.06780    0.00000   -0.01220    0.00000  # cp,c,cp,cp
dihedral_coeff	 7    8.36670    0.00000    1.19320    0.00000    0.00000    0.00000  # cp,cp,cp,cp
dihedral_coeff	 8    0.00000    0.00000    3.96610    0.00000    0.00000    0.00000  # cp,cp,cp,hc
dihedral_coeff	 9    0.00000    0.00000    4.84980    0.00000    0.00000    0.00000  # cp,cp,cp,oc
dihedral_coeff	10    0.00000    0.00000    4.84980    0.00000    0.00000    0.00000  # cp,cp,cp,oh
dihedral_coeff	11    0.00000    0.00000    3.00000    0.00000    0.00000    0.00000  # cp,cp,cp,sf
dihedral_coeff	12    0.00000    0.00000    1.80000    0.00000    0.00000    0.00000  # cp,cp,oc,cp
dihedral_coeff	13   -0.69000    0.00000    0.50970    0.00000    0.00950    0.00000  # cp,cp,oh,ho
dihedral_coeff	14    0.00000    0.00000    1.50000    0.00000    0.00000    0.00000  # cp,cp,sf,cp
dihedral_coeff	15    0.00000    0.00000    1.50000    0.00000    0.00000    0.00000  # cp,cp,sf,o=
dihedral_coeff	16    0.00000    0.00000    1.87690    0.00000    0.00000    0.00000  # hc,cp,cp,hc
dihedral_coeff	17    0.00000    0.00000    1.72340    0.00000    0.00000    0.00000  # hc,cp,cp,oc
dihedral_coeff	18    0.00000    0.00000    1.72340    0.00000    0.00000    0.00000  # hc,cp,cp,oh
dihedral_coeff	19    0.00000    0.00000    3.00000    0.00000    0.00000    0.00000  # hc,cp,cp,sf

# MiddleBondTorsion Coeffs

dihedral_coeff	 1 mbt  -14.87900   -3.65810   -0.31380    1.53000  # c,c,c,hc
dihedral_coeff	 2 mbt    0.00000    0.00000    0.00000    1.50100  # c,c,cp,cp
dihedral_coeff	 3 mbt    0.00000    9.17920    0.00000    1.41700  # c,cp,cp,cp
dihedral_coeff	 4 mbt    0.00000    3.94210    0.00000    1.41700  # c,cp,cp,hc
dihedral_coeff	 5 mbt    0.00000    0.00000    0.00000    1.53000  # cp,c,c,hc
dihedral_coeff	 6 mbt    0.00000    0.00000    0.00000    1.50100  # cp,c,cp,cp
dihedral_coeff	 7 mbt   27.59890   -2.31200    0.00000    1.41700  # cp,cp,cp,cp
dihedral_coeff	 8 mbt    0.00000   -1.15210    0.00000    1.41700  # cp,cp,cp,hc
dihedral_coeff	 9 mbt    0.00000    4.82550    0.00000    1.41700  # cp,cp,cp,oc
dihedral_coeff	10 mbt    0.00000    4.82550    0.00000    1.41700  # cp,cp,cp,oh
dihedral_coeff	11 mbt    0.00000    0.00000    0.00000    1.41700  # cp,cp,cp,sf
dihedral_coeff	12 mbt    0.00000    0.00000    0.00000    1.37680  # cp,cp,oc,cp
dihedral_coeff	13 mbt    1.15800    3.26970    3.51320    1.37680  # cp,cp,oh,ho
dihedral_coeff	14 mbt    0.00000    0.00000    0.00000    1.72000  # cp,cp,sf,cp
dihedral_coeff	15 mbt    0.00000    0.00000    0.00000    1.72000  # cp,cp,sf,o=
dihedral_coeff	16 mbt    0.00000    4.82280    0.00000    1.41700  # hc,cp,cp,hc
dihedral_coeff	17 mbt    0.00000    5.54320    0.00000    1.41700  # hc,cp,cp,oc
dihedral_coeff	18 mbt    0.00000    5.54320    0.00000    1.41700  # hc,cp,cp,oh
dihedral_coeff	19 mbt    0.00000    0.00000    0.00000    1.41700  # hc,cp,cp,sf

# EndBondTorsion Coeffs

dihedral_coeff	 1 ebt    0.24860    0.24220   -0.09250    0.08140    0.05910    0.22190    1.53000    1.10100  # c,c,c,hc
dihedral_coeff	 2 ebt    0.00000    0.00000    0.00000    0.00000    0.00000    0.00000    1.53000    1.41700  # c,c,cp,cp
dihedral_coeff	 3 ebt    0.00000    0.24210    0.00000    0.00000   -0.69180    0.00000    1.50100    1.41700  # c,cp,cp,cp
dihedral_coeff	 4 ebt    0.00000   -1.79700    0.00000    0.00000   -0.48790    0.00000    1.50100    1.09820  # c,cp,cp,hc
dihedral_coeff	 5 ebt    0.00000    0.00000    0.00000    0.00000    0.00000    0.00000    1.50100    1.10100  # cp,c,c,hc
dihedral_coeff	 6 ebt    0.00000    0.00000    0.00000    0.00000    0.00000    0.00000    1.50100    1.41700  # cp,c,cp,cp
dihedral_coeff	 7 ebt   -0.11850    6.32040    0.00000   -0.11850    6.32040    0.00000    1.41700    1.41700  # cp,cp,cp,cp
dihedral_coeff	 8 ebt    0.00000   -6.89580    0.00000    0.00000   -0.46690    0.00000    1.41700    1.09820  # cp,cp,cp,hc
dihedral_coeff	 9 ebt    0.00000    0.26550    0.00000    0.00000    4.89050    0.00000    1.41700    1.37680  # cp,cp,cp,oc
dihedral_coeff	10 ebt    0.00000    0.26550    0.00000    0.00000    4.89050    0.00000    1.41700    1.37680  # cp,cp,cp,oh
dihedral_coeff	11 ebt    0.00000    0.00000    0.00000    0.00000    0.00000    0.00000    1.41700    1.72000  # cp,cp,cp,sf
dihedral_coeff	12 ebt    0.00000    0.00000    0.00000    0.00000    0.00000    0.00000    1.41700    1.37680  # cp,cp,oc,cp
dihedral_coeff	13 ebt    0.90000   -1.34560    1.19000    3.41320    0.58730   -0.13230    1.41700    0.96500  # cp,cp,oh,ho
dihedral_coeff	14 ebt    0.00000    0.00000    0.00000    0.00000    0.00000    0.00000    1.41700    1.72000  # cp,cp,sf,cp
dihedral_coeff	15 ebt    0.00000    0.00000    0.00000    0.00000    0.00000    0.00000    1.41700    1.43080  # cp,cp,sf,o=
dihedral_coeff	16 ebt    0.00000   -0.68900    0.00000    0.00000   -0.68900    0.00000    1.09820    1.09820  # hc,cp,cp,hc
dihedral_coeff	17 ebt    0.00000   -1.58670    0.00000    0.00000    4.26410    0.00000    1.09820    1.37680  # hc,cp,cp,oc
dihedral_coeff	18 ebt    0.00000   -1.58670    0.00000    0.00000    4.26410    0.00000    1.09820    1.37680  # hc,cp,cp,oh
dihedral_coeff	19 ebt    0.00000    0.00000    0.00000    0.00000    0.00000    0.00000    1.09820    1.72000  # hc,cp,cp,sf

# AngleTorsion Coeffs

dihedral_coeff	 1 at   -0.24540    0.00000   -0.11360    0.31130    0.45160   -0.19880  112.67000  110.77000  # c,c,c,hc
dihedral_coeff	 2 at    0.00000    0.00000    0.00000    0.00000    0.00000    0.00000  108.40000  120.05000  # c,c,cp,cp
dihedral_coeff	 3 at    0.00000   -4.46830    0.00000    0.00000    3.89870    0.00000  120.05000  118.90000  # c,cp,cp,cp
dihedral_coeff	 4 at    0.00000   -0.12420    0.00000    0.00000    3.46010    0.00000  120.05000  117.94000  # c,cp,cp,hc
dihedral_coeff	 5 at    0.00000    0.00000    0.00000    0.00000    0.00000    0.00000  108.40000  110.77000  # cp,c,c,hc
dihedral_coeff	 6 at    0.00000    0.00000    0.00000    0.00000    0.00000    0.00000  111.00000  120.05000  # cp,c,cp,cp
dihedral_coeff	 7 at    1.97670    1.02390    0.00000    1.97670    1.02390    0.00000  118.90000  118.90000  # cp,cp,cp,cp
dihedral_coeff	 8 at    0.00000    2.50140    0.00000    0.00000    2.71470    0.00000  118.90000  117.94000  # cp,cp,cp,hc
dihedral_coeff	 9 at    0.00000   10.01550    0.00000    0.00000    1.74040    0.00000  118.90000  123.42000  # cp,cp,cp,oc
dihedral_coeff	10 at    0.00000   10.01550    0.00000    0.00000    1.74040    0.00000  118.90000  123.42000  # cp,cp,cp,oh
dihedral_coeff	11 at    0.00000    0.00000    0.00000    0.00000    0.00000    0.00000  118.90000  120.00000  # cp,cp,cp,sf
dihedral_coeff	12 at    0.00000    0.00000    0.00000    0.00000    0.00000    0.00000  123.42000  109.50000  # cp,cp,oc,cp
dihedral_coeff	13 at   -5.13600   -1.01220    0.00000    4.68520    0.02300   -0.59800  123.42000  108.19000  # cp,cp,oh,ho
dihedral_coeff	14 at    0.00000    0.00000    0.00000    0.00000    0.00000    0.00000  120.00000  102.00000  # cp,cp,sf,cp
dihedral_coeff	15 at    0.00000    0.00000    0.00000    0.00000    0.00000    0.00000  120.00000  113.10000  # cp,cp,sf,o=
dihedral_coeff	16 at    0.00000    2.45010    0.00000    0.00000    2.45010    0.00000  117.94000  117.94000  # hc,cp,cp,hc
dihedral_coeff	17 at    0.00000    1.87290    0.00000    0.00000    2.57060    0.00000  117.94000  123.42000  # hc,cp,cp,oc
dihedral_coeff	18 at    0.00000    1.87290    0.00000    0.00000    2.57060    0.00000  117.94000  123.42000  # hc,cp,cp,oh
dihedral_coeff	19 at    0.00000    0.00000    0.00000    0.00000    0.00000    0.00000  117.94000  120.00000  # hc,cp,cp,sf

# AngleAngleTorsion Coeffs

dihedral_coeff	 1 aat  -16.16400  112.67000  110.77000  # c,c,c,hc
dihedral_coeff	 2 aat    0.00000  108.40000  120.05000  # c,c,cp,cp
dihedral_coeff	 3 aat  -14.40970  120.05000  118.90000  # c,cp,cp,cp
dihedral_coeff	 4 aat    4.44440  120.05000  117.94000  # c,cp,cp,hc
dihedral_coeff	 5 aat    0.00000  108.40000  110.77000  # cp,c,c,hc
dihedral_coeff	 6 aat    0.00000  111.00000  120.05000  # cp,c,cp,cp
dihedral_coeff	 7 aat    0.00000  118.90000  118.90000  # cp,cp,cp,cp
dihedral_coeff	 8 aat   -4.81410  118.90000  117.94000  # cp,cp,cp,hc
dihedral_coeff	 9 aat  -21.02470  118.90000  123.42000  # cp,cp,cp,oc
dihedral_coeff	10 aat  -21.02470  118.90000  123.42000  # cp,cp,cp,oh
dihedral_coeff	11 aat    0.00000  118.90000  120.00000  # cp,cp,cp,sf
dihedral_coeff	12 aat    0.00000  123.42000  109.50000  # cp,cp,oc,cp
dihedral_coeff	13 aat   -4.60720  123.42000  108.19000  # cp,cp,oh,ho
dihedral_coeff	14 aat    0.00000  120.00000  102.00000  # cp,cp,sf,cp
dihedral_coeff	15 aat    0.00000  120.00000  113.10000  # cp,cp,sf,o=
dihedral_coeff	16 aat    0.35980  117.94000  117.94000  # hc,cp,cp,hc
dihedral_coeff	17 aat    4.22960  117.94000  123.42000  # hc,cp,cp,oc
dihedral_coeff	18 aat    4.22960  117.94000  123.42000  # hc,cp,cp,oh
dihedral_coeff	19 aat    0.00000  117.94000  120.00000  # hc,cp,cp,sf

# BondBond13 Coeffs

dihedral_coeff	 1 bb13    0.00000    1.53000    1.10100  # c,c,c,hc
dihedral_coeff	 2 bb13    0.00000    1.53000    1.41700  # c,c,cp,cp
dihedral_coeff	 3 bb13    2.50850    1.50100    1.41700  # c,cp,cp,cp
dihedral_coeff	 4 bb13    0.87430    1.50100    1.09820  # c,cp,cp,hc
dihedral_coeff	 5 bb13    0.00000    1.50100    1.10100  # cp,c,c,hc
dihedral_coeff	 6 bb13    0.00000    1.50100    1.41700  # cp,c,cp,cp
dihedral_coeff	 7 bb13   53.00000    1.41700    1.41700  # cp,cp,cp,cp
dihedral_coeff	 8 bb13   -6.27410    1.41700    1.09820  # cp,cp,cp,hc
dihedral_coeff	 9 bb13   -2.24360    1.41700    1.37680  # cp,cp,cp,oc
dihedral_coeff	10 bb13   -2.24360    1.41700    1.37680  # cp,cp,cp,oh
dihedral_coeff	11 bb13    0.00000    1.41700    1.72000  # cp,cp,cp,sf
dihedral_coeff	12 bb13    0.00000    1.41700    1.37680  # cp,cp,oc,cp
dihedral_coeff	13 bb13    1.15900    1.41700    0.96500  # cp,cp,oh,ho
dihedral_coeff	14 bb13    0.00000    1.41700    1.72000  # cp,cp,sf,cp
dihedral_coeff	15 bb13    0.00000    1.41700    1.43080  # cp,cp,sf,o=
dihedral_coeff	16 bb13   -1.70770    1.09820    1.09820  # hc,cp,cp,hc
dihedral_coeff	17 bb13    2.05170    1.09820    1.37680  # hc,cp,cp,oc
dihedral_coeff	18 bb13    2.05170    1.09820    1.37680  # hc,cp,cp,oh
dihedral_coeff	19 bb13    0.00000    1.09820    1.72000  # hc,cp,cp,sf

# Improper Coeffs

improper_coeff	 1    0.00000    0.00000  # c,c,c,cp
improper_coeff	 2    0.00000    0.00000  # c,c,cp,cp
improper_coeff	 3    0.00000    0.00000  # c,c,hc,hc
improper_coeff	 4    0.00000    0.00000  # c,hc,hc,hc
improper_coeff	 5    7.81530    0.00000  # cp,c,cp,cp
improper_coeff	 6    4.89120    0.00000  # cp,cp,cp,hc
improper_coeff	 7   13.04210    0.00000  # cp,cp,cp,oc
improper_coeff	 8   13.04210    0.00000  # cp,cp,cp,oh
improper_coeff	 9    0.00000    0.00000  # cp,cp,cp,sf
improper_coeff	10    0.00000    0.00000  # sf,cp,cp,o=
improper_coeff	11    0.00000    0.00000  # sf,cp,o=,o=

# AngleAngle Coeffs

improper_coeff	 1 aa    0.00000    0.00000    0.00000  112.67000  108.40000  108.40000  # c,c,c,cp
improper_coeff	 2 aa    0.00000    0.00000    0.00000  108.40000  108.40000  111.00000  # c,c,cp,cp
improper_coeff	 3 aa    0.27380   -0.48250    0.27380  110.77000  110.77000  107.66000  # c,c,hc,hc
improper_coeff	 4 aa   -0.31570   -0.31570   -0.31570  107.66000  107.66000  107.66000  # c,hc,hc,hc
improper_coeff	 5 aa    0.00000    0.00000    0.00000  120.05000  120.05000  118.90000  # cp,c,cp,cp
improper_coeff	 6 aa    0.00000    0.00000    0.00000  118.90000  117.94000  117.94000  # cp,cp,cp,hc
improper_coeff	 7 aa    0.00000    0.00000    0.00000  118.90000  123.42000  123.42000  # cp,cp,cp,oc
improper_coeff	 8 aa    0.00000    0.00000    0.00000  118.90000  123.42000  123.42000  # cp,cp,cp,oh
improper_coeff	 9 aa    0.00000    0.00000    0.00000  118.90000  120.00000  120.00000  # cp,cp,cp,sf
improper_coeff	10 aa    0.00000    0.00000    0.00000  102.00000  113.10000  113.10000  # sf,cp,cp,o=
improper_coeff	11 aa    0.00000    0.00000    0.00000  113.10000  113.10000  119.32900  # sf,cp,o=,o=


# --- Thermo Output ---
thermo_style custom step time temp press enthalpy etotal ke pe ebond eangle edihed eimp evdwl ecoul elong etail vol lx ly lz density pxx pyy pzz
thermo_modify flush yes
thermo 1000

# --- Trajectory ---
dump dump_nvt all custom 1000 nvt_softheat.dump id type mol x y z ix iy iz vx vy vz

# --- Restart Checkpointing ---
restart 10000 nvt_1.rst nvt_2.rst

# --- Initial Velocities (optional) ---
velocity all create 300.0 291434 mom yes rot yes dist gaussian

# --- SHAKE Constraints ---
# Constrains H-X bonds to allow 2fs timestep
# SHAKE disabled

# --- NVT Thermostat (Nose-Hoover) ---
# T_damp = 50.0 fs  (coupling timescale for heat exchange)
# Ramp: 300.0 K -> 780.0 K over 500000 steps
timestep 0.5
fix nvt_fix all nvt temp 300.0 780.0 50.0

run 500000
PPPM Kokkos initialization ...
  using 12-bit tables for long-range coulomb
  G vector (1/distance) = 0.2922111
  grid = 40 40 40
  stencil order = 5
  estimated absolute RMS force accuracy = 0.00034540139
  estimated relative force accuracy = 1.040166e-06
  using double precision cuFFT
  3d grid and FFT values/proc = 103823 64000
Generated 28 of 28 mixed pair_coeff terms from sixthpower/sixthpower mixing rule
Neighbor list info ...
  update: every = 1 steps, delay = 0 steps, check = yes
  max neighbors/atom: 4000, page size: 100000
  master list distance cutoff = 11.5
  ghost atom cutoff = 11.5
  binsize = 11.5, bins = 6 6 6
  1 neighbor lists, perpetual/occasional/extra = 1 0 0
  (1) pair lj/class2/coul/long/kk, perpetual
      attributes: full, newton off, kokkos_device
      pair build: full/bin/kk/device
      stencil: full/bin/3d
      bin: kk/device
Per MPI rank memory allocation (min/avg/max) = 52.96 | 52.96 | 52.96 Mbytes
   Step          Time           Temp          Press         Enthalpy        TotEng         KinEng         PotEng         E_bond        E_angle        E_dihed        E_impro         E_vdwl         E_coul         E_long         E_tail         Volume           Lx             Ly             Lz          Density          Pxx            Pyy            Pzz      
         0   0              300            1211.844       21240.537      17050.289      9671.2382      7379.0509      1429.7278      2227.1321      1548.9091      24.038351      1174.51        7860.1252     -6885.3916     -461.17137      237092.09      61.892642      61.892642      61.892642      0.61999999     1255.4869      1198.7904      1181.2548    
      1000   500            306.14784     -178.56465      26800.742      27418.173      9869.4289      17548.744      5001.3968      5151.0633      3996.0741      398.22535      1971.3943      7908.1631     -6877.5733     -461.17137      237092.09      61.892642      61.892642      61.892642      0.61999999    -261.34146      95.352725     -369.70521    
      2000   1000           302.00896     -418.89936      25400.393      26848.84       9736.002       17112.838      4905.1209      5004.3177      3776.054       369.46065      2036.6292      7896.7736     -6875.5177     -461.17137      237092.09      61.892642      61.892642      61.892642      0.61999999    -430.50656     -301.13805     -525.05347    
      3000   1500           301.74342     -680.01466      24895.945      27247.262      9727.4418      17519.82       5070.335       5001.5217      3893.4927      368.42762      2150.8272      7910.7834     -6875.5675     -461.17137      237092.09      61.892642      61.892642      61.892642      0.61999999    -896.84938     -1097.4616     -45.733009    
      4000   2000           304.21974     -503.54121      25555.177      27296.294      9807.272       17489.022      4895.7438      5116.249       3858.4385      383.88242      2187.9398      7917.242      -6870.4737     -461.17137      237092.09      61.892642      61.892642      61.892642      0.61999999     139.68132     -487.33364     -1162.9713    
      5000   2500           303.32589     -208.98621      26366.874      27089.495      9778.4565      17311.038      4846.1833      5079.1833      3881.7455      385.31901      2085.2027      7909.8919     -6876.4875     -461.17137      237092.09      61.892642      61.892642      61.892642      0.61999999    -502.68782      9.331338      -133.60217    
      6000   3000           307.80495     -512.25759      25480.153      27251.409      9922.8501      17328.559      4913.527       5094.9532      3833.9016      359.49989      2107.6474      7894.8714     -6875.8413     -461.17137      237092.09      61.892642      61.892642      61.892642      0.61999999    -513.71361     -534.40806     -488.6511     
      7000   3500           310.01181     -410.37077      26037.902      27456.86       9993.9937      17462.866      4945.6104      5136.9536      3820.3085      380.02208      2164.7206      7892.9565     -6877.7056     -461.17137      237092.09      61.892642      61.892642      61.892642      0.61999999     202.40086     -953.57275     -479.94043    
      8000   4000           307.49531     -494.71923      25686.385      27396.998      9912.868       17484.13       5029.823       5025.6007      3915.6789      398.55641      2090.2114      7899.6457     -6875.3859     -461.17137      237092.09      61.892642      61.892642      61.892642      0.61999999    -967.71686      261.31813     -777.75898    
      9000   4500           306.4829      -320.07401      26307.292      27414.026      9880.2306      17533.796      4924.1543      5159.6276      3894.8519      381.20217      2157.7041      7893.7177     -6877.4622     -461.17137      237092.09      61.892642      61.892642      61.892642      0.61999999    -908.70806      327.58732     -379.10129    
     10000   5000           313.92802     -718.73806      25075.92       27561.133      10120.242      17440.891      4954.3808      5076.5537      3883.038       381.98754      2125.7079      7896.7002     -6877.4773     -461.17137      237092.09      61.892642      61.892642      61.892642      0.61999999    -134.03971     -682.76569     -1339.4088    
     11000   5500           311.83072     -658.02195      25334.107      27609.379      10052.631      17556.748      4964.388       5102.8959      3964.542       386.02782      2111.0024      7904.2681     -6876.3761     -461.17137      237092.09      61.892642      61.892642      61.892642      0.61999999    -302.47707     -1220.6393     -450.94953    
     12000   6000           306.5126      -829.46188      24523.438      27391.505      9881.1879      17510.317      5003.5491      5138.6634      3914.4217      385.92991      2035.8708      7907.3421     -6875.4595     -461.17137      237092.09      61.892642      61.892642      61.892642      0.61999999    -818.02049     -1070.7686     -599.59655    
     13000   6500           315.19154      44.254705      27670.582      27517.56       10160.975      17356.585      5031.0899      5068.5549      3778.4172      386.92229      2060.9109      7906.9208     -6876.2306     -461.17137      237092.09      61.892642      61.892642      61.892642      0.61999999     209.36613     -61.097549     -15.50447     
     14000   7000           311.79059     -313.80708      26565.165      27650.23       10051.337      17598.893      4982.53        5176.6602      3961.8408      396.82922      2056.4013      7902.608      -6877.9769     -461.17137      237092.09      61.892642      61.892642      61.892642      0.61999999    -364.55383     -406.02001     -170.8474     
     15000   7500           312.62634     -20.313491      27699.767      27770.006      10078.279      17691.726      5107.8808      5272.1335      3823.8792      375.58334      2095.1854      7895.9477     -6878.8836     -461.17137      237092.09      61.892642      61.892642      61.892642      0.61999999    -185.13467     -202.66148      326.85567    
     16000   8000           315.28615     -832.62567      24786.194      27665.201      10164.025      17501.176      4983.0739      5088.7897      4031.0406      382.66556      1999.6579      7895.4443     -6879.4956     -461.17137      237092.09      61.892642      61.892642      61.892642      0.61999999    -1300.1444     -465.32664     -732.40592    
     17000   8500           321.06262     -779.31778      25251.359      27946.041      10350.244      17595.798      5100.9792      5123.3308      3940.7886      381.45816      2037.1259      7895.2755     -6883.1604     -461.17137      237092.09      61.892642      61.892642      61.892642      0.61999999    -372.40232     -1340.0747     -625.47636    
     18000   9000           319.21456     -499.13463      26058.537      27784.418      10290.667      17493.751      5060.7038      5127.4819      3890.6316      373.4982       2033.7669      7889.954      -6882.2855     -461.17137      237092.09      61.892642      61.892642      61.892642      0.61999999    -206.54231     -418.81007     -872.0515     
     19000   9500           317.17041     -628.54736      25541.67       27715.027      10224.769      17490.258      4915.6313      5108.5023      4024.4118      376.00069      2054.0894      7894.1666     -6882.5443     -461.17137      237092.09      61.892642      61.892642      61.892642      0.61999999    -491.70918     -521.8331      -872.09979    
     20000   10000          319.05796     -1205.5572      23795.752      27964.261      10285.619      17678.643      5070.9678      5204.8213      4015.5879      390.41223      1986.8729      7892.664      -6882.6835     -461.17137      237092.09      61.892642      61.892642      61.892642      0.61999999    -1422.9587     -957.14886     -1236.5639    
     21000   10500          322.77507     -692.75607      25823.809      28219.182      10405.449      17813.734      5209.7884      5264.1656      3978.0667      398.39738      1949.019       7898.961      -6884.6644     -461.17137      237092.09      61.892642      61.892642      61.892642      0.61999999    -1493.8669     -873.26228      288.86097    
     22000   11000          321.19806     -137.02966      27640.691      28114.504      10354.61       17759.895      5211.5278      5268.273       3831.7401      388.2502       2029.9438      7912.2372     -6882.0776     -461.17137      237092.09      61.892642      61.892642      61.892642      0.61999999    -73.383559     -317.34557     -20.359857    
     23000   11500          321.3888      -220.3916       27197.466      27959.524      10360.759      17598.766      5159.331       5213.2805      3802.8254      388.87352      2002.7282      7911.5962     -6879.8693     -461.17137      237092.09      61.892642      61.892642      61.892642      0.61999999    -591.96031     -16.914152     -52.300329    
     24000   12000          323.8418      -622.71231      26045.899      28199.08       10439.837      17759.243      5014.6986      5197.0808      4080.409       404.94044      2036.2903      7904.7666     -6878.9431     -461.17137      237092.09      61.892642      61.892642      61.892642      0.61999999    -260.89461     -822.12194     -785.12039    
     25000   12500          328.70022     -655.95382      25975.807      28243.928      10596.46       17647.468      5060.0377      5198.3419      3992.3407      391.37872      1983.8051      7906.9272     -6885.3633     -461.17137      237092.09      61.892642      61.892642      61.892642      0.61999999    -315.18314     -360.9663      -1291.712     
     26000   13000          323.82361     -362.46024      26891.796      28145.091      10439.251      17705.84       5055.4585      5270.1996      4030.1664      409.02515      1912.9318      7916.2145     -6888.1561     -461.17137      237092.09      61.892642      61.892642      61.892642      0.61999999    -737.52839      180.25807     -530.11039    
     27000   13500          328.4813      -510.17837      26533.073      28297.14       10589.403      17707.737      5117.5132      5187.6095      4029.013       415.02491      1926.4439      7916.7753     -6884.6428     -461.17137      237092.09      61.892642      61.892642      61.892642      0.61999999    -306.36524     -855.78903     -368.38085    
     28000   14000          327.81674     -161.46757      27941.019      28499.333      10567.979      17931.354      5179.7737      5221.9591      4073.5138      413.2732       2017.8057      7906.8932     -6881.865      -461.17137      237092.09      61.892642      61.892642      61.892642      0.61999999    -330.71538      767.69899     -921.38631    
     29000   14500          326.04513     -471.88428      26773.086      28404.741      10510.867      17893.874      5169.5189      5293.3402      3988.3132      407.94593      2010.4512      7907.1253     -6882.8209     -461.17137      237092.09      61.892642      61.892642      61.892642      0.61999999    -824.64117     -318.91146     -272.10022    
     30000   15000          324.36525      152.11131      28826.312      28300.35       10456.712      17843.638      5223.2904      5297.8793      3916.6259      415.01634      1956.7997      7912.2201     -6878.1936     -461.17137      237092.09      61.892642      61.892642      61.892642      0.61999999     458.02013      547.79797     -549.48418    
     31000   15500          328.72806     -119.36429      27965.177      28377.908      10597.358      17780.55       5097.4638      5372.453       3918.4333      400.51107      1971.242       7904.3754     -6883.9282     -461.17137      237092.09      61.892642      61.892642      61.892642      0.61999999    -264.38527     -57.628526     -36.079061    
     32000   16000          329.35161     -195.35368      27731.301      28406.784      10617.46       17789.324      5212.1429      5294.7826      3897.7588      405.58935      1963.9585      7898.29       -6883.1981     -461.17137      237092.09      61.892642      61.892642      61.892642      0.61999999    -606.70558      192.0782      -171.43366    
     33000   16500          329.01901     -319.62094      27367.462      28472.629      10606.737      17865.892      5204.9793      5302.69        4008.3483      408.14352      1923.1603      7904.2743     -6885.7037     -461.17137      237092.09      61.892642      61.892642      61.892642      0.61999999    -50.369007     -318.27183     -590.22198    
     34000   17000          333.16722     -209.54165      27964.196      28688.737      10740.465      17948.272      5148.6013      5252.8825      4079.9461      425.25681      2012.8404      7911.7519     -6883.007      -461.17137      237092.09      61.892642      61.892642      61.892642      0.61999999    -421.28716     -54.296583     -153.04121    
     35000   17500          334.98754     -521.16877      27032.584      28834.653      10799.148      18035.505      5206.7423      5316.5685      4084.3959      419.73939      1980.7023      7912.0164     -6884.6597     -461.17137      237092.09      61.892642      61.892642      61.892642      0.61999999    -816.64173     -68.608207     -678.25636    
     36000   18000          335.05388     -446.0673       27381.434      28923.821      10801.286      18122.534      5228.3344      5332.0702      4147.0291      429.75455      1957.0905      7912.845      -6884.5894     -461.17137      237092.09      61.892642      61.892642      61.892642      0.61999999    -985.11519     -461.73378      108.64708    
     37000   18500          333.5917      -743.73628      26346.69       28918.34       10754.149      18164.191      5187.3362      5455.4044      4210.0092      426.46596      1861.576       7909.2047     -6885.8057     -461.17137      237092.09      61.892642      61.892642      61.892642      0.61999999    -825.53311     -304.8738      -1100.8019    
     38000   19000          334.51539     -566.2779       26847.73       28805.775      10783.927      18021.848      5160.3919      5261.9665      4209.278       415.35257      1944.5396      7912.4959     -6882.1764     -461.17137      237092.09      61.892642      61.892642      61.892642      0.61999999    -597.72893     -1340.9027      239.79794    
     39000   19500          341.5724      -926.21872      25888.687      29091.315      11011.427      18079.888      5188.1023      5411.6708      4158.8213      431.04541      1865.8014      7906.1764     -6881.7295     -461.17137      237092.09      61.892642      61.892642      61.892642      0.61999999    -1041.966      -728.39104     -1008.2991    
     40000   20000          342.5127      -484.99029      27515.296      29192.269      11041.74       18150.529      5210.9847      5391.1137      4186.4985      424.09763      1896.9059      7925.5874     -6884.6588     -461.17137      237092.09      61.892642      61.892642      61.892642      0.61999999    -323.22605     -149.48657     -982.25825    
     41000   20500          338.537       -1156.4274      25013.919      29012.55       10913.573      18098.977      5268.2128      5316.9233      4174.2         421.4248       1899.683       7898.8057     -6880.2727     -461.17137      237092.09      61.892642      61.892642      61.892642      0.61999999    -490.9295      -1885.0567     -1093.2961    
     42000   21000          342.40162      43.730869      29236.999      29085.788      11038.159      18047.63       5372.7543      5376.4328      3962.5086      424.84702      1874.4735      7918.1544     -6881.5409     -461.17137      237092.09      61.892642      61.892642      61.892642      0.61999999    -540.09649      721.8584      -50.569306    
     43000   21500          343.41917     -302.32954      28368.509      29413.887      11070.962      18342.925      5381.3164      5407.8016      4093.6104      427.26811      2007.4028      7911.0608     -6885.5349     -461.17137      237092.09      61.892642      61.892642      61.892642      0.61999999    -123.38316     -203.30023     -580.30523    
     44000   22000          338.55846     -652.47635      26666.933      28923.03       10914.265      18008.765      5138.4894      5278.8735      4215.9286      422.24395      1935.0317      7900.0193     -6881.8217     -461.17137      237092.09      61.892642      61.892642      61.892642      0.61999999    -1386.9476     -272.24874     -298.23275    
     45000   22500          340.52086     -384.81078      28042.291      29372.868      10977.528      18395.34       5383.1948      5517.5079      4053.2024      427.66003      1981.5903      7912.7325     -6880.5476     -461.17137      237092.09      61.892642      61.892642      61.892642      0.61999999     116.78671     -1076.076      -195.14306    
     46000   23000          341.60212     -282.92683      28230.332      29208.621      11012.385      18196.236      5414.4061      5402.8873      4004.1297      427.52519      1904.219       7922.4539     -6879.3853     -461.17137      237092.09      61.892642      61.892642      61.892642      0.61999999    -298.55699     -230.0814      -320.14209    
     47000   23500          341.07241     -393.72795      28120.586      29481.997      10995.308      18486.688      5369.6448      5558.2495      4139.0483      431.10353      1961.0257      7907.0748     -6879.4582     -461.17137      237092.09      61.892642      61.892642      61.892642      0.61999999    -279.90366     -414.85794     -486.42226    
     48000   24000          348.84126     -1124.1742      25847.444      29734.551      11245.756      18488.795      5368.0321      5431.4843      4369.2891      432.04282      1863.4786      7904.9794     -6880.5116     -461.17137      237092.09      61.892642      61.892642      61.892642      0.61999999    -1010.1949     -1196.871      -1165.4566    
     49000   24500          345.68562     -987.445        26181.516      29595.849      11144.026      18451.823      5447.8753      5460.9375      4245.4708      422.72932      1847.8312      7908.2624     -6881.2836     -461.17137      237092.09      61.892642      61.892642      61.892642      0.61999999    -1137.0429     -982.58498     -842.70716    
     50000   25000          353.77727     -659.48797      27526.193      29806.535      11404.881      18401.654      5472.4659      5490.5837      4126.679       419.24534      1864.8352      7906.1712     -6878.3266     -461.17137      237092.09      61.892642      61.892642      61.892642      0.61999999    -1008.3385     -798.58299     -171.5424     
     51000   25500          347.25779     -311.15997      28757.467      29833.378      11194.709      18638.669      5661.4161      5523.2548      4127.2658      440.85404      1863.3138      7904.2023     -6881.6379     -461.17137      237092.09      61.892642      61.892642      61.892642      0.61999999    -19.519098     -554.00265     -359.95817    
     52000   26000          347.7519      -780.20161      26913.529      29611.267      11210.638      18400.629      5411.722       5481.5328      4212.2065      436.60709      1848.8683      7895.4383     -6885.746      -461.17137      237092.09      61.892642      61.892642      61.892642      0.61999999    -820.31137     -1386.5922     -133.7013     
     53000   26500          354.26574     -608.61112      27868.302      29972.724      11420.628      18552.096      5437.1011      5492.0507      4300.6815      430.26634      1879.0801      7899.8685     -6886.9524     -461.17137      237092.09      61.892642      61.892642      61.892642      0.61999999    -777.51389     -205.43909     -842.88039    
     54000   27000          351.58649     -805.77538      27039.387      29825.553      11334.256      18491.297      5494.6359      5514.5184      4199.1881      443.54327      1836.1099      7891.25       -6887.9482     -461.17137      237092.09      61.892642      61.892642      61.892642      0.61999999    -892.90986     -364.40195     -1160.0143    
     55000   27500          354.10982     -1011.8312      26431.284      29929.938      11415.601      18514.337      5400.3827      5575.7193      4256.0839      433.09266      1843.0074      7893.8937     -6887.843      -461.17137      237092.09      61.892642      61.892642      61.892642      0.61999999    -1236.1007     -772.48315     -1026.9097    
     56000   28000          350.14023     -517.10667      28132.426      29920.449      11287.632      18632.817      5436.016       5582.7065      4311.9605      443.45849      1844.3851      7899.3723     -6885.0815     -461.17137      237092.09      61.892642      61.892642      61.892642      0.61999999    -103.23678     -745.64797     -702.43526    
     57000   28500          354.78922     -251.27727      29419.888      30288.741      11437.504      18851.237      5629.7844      5567.3612      4240.9457      431.11037      1953.8661      7912.8703     -6884.7011     -461.17137      237092.09      61.892642      61.892642      61.892642      0.61999999    -100.48882     -263.22526     -390.11773    
     58000   29000          355.13965      460.8053       31590.359      29997.011      11448.8        18548.211      5539.7417      5613.5926      4060.5851      436.99641      1875.5792      7905.6915     -6883.9755     -461.17137      237092.09      61.892642      61.892642      61.892642      0.61999999     208.62677      750.08571      423.70342    
     59000   29500          357.65142      10.966677      30274.915      30236.995      11529.774      18707.221      5454.3666      5633.3076      4246.4732      436.58522      1902.0956      7916.3302     -6881.9375     -461.17137      237092.09      61.892642      61.892642      61.892642      0.61999999    -76.000801      684.25324     -575.35241    
     60000   30000          356.23253     -118.29499      29714.923      30123.957      11484.032      18639.925      5453.8264      5595.12        4226.4794      433.00732      1893.9323      7918.3643     -6880.8045     -461.17137      237092.09      61.892642      61.892642      61.892642      0.61999999    -26.624185      228.32096     -556.58173    
     61000   30500          358.35308     -183.98067      29632.955      30269.113      11552.393      18716.72       5485.379       5681.2153      4262.7794      431.79601      1836.8748      7900.4287     -6881.7531     -461.17137      237092.09      61.892642      61.892642      61.892642      0.61999999    -734.77649     -369.18089      552.01537    
     62000   31000          363.20134     -565.92211      28276.158      30232.972      11708.689      18524.283      5363.8081      5525.5094      4273.7031      435.99393      1893.666       7911.117      -6879.5143     -461.17137      237092.09      61.892642      61.892642      61.892642      0.61999999    -201.80916     -594.57073     -901.38643    
     63000   31500          357.56902     -555.87484      28337.918      30259.991      11527.117      18732.874      5563.6026      5540.0793      4295.4258      446.1168       1848.4497      7922.1176     -6882.9179     -461.17137      237092.09      61.892642      61.892642      61.892642      0.61999999    -590.80643     -752.91935     -323.89874    
     64000   32000          360.09145     -490.31627      28869.419      30564.808      11608.434      18956.374      5415.2545      5784.8212      4375.8205      467.83414      1883.0089      7910.4857     -6880.8512     -461.17137      237092.09      61.892642      61.892642      61.892642      0.61999999    -1055.3166     -323.69295     -91.939251    
     65000   32500          358.57817     -792.25134      27658.71       30398.113      11559.65       18838.463      5528.8322      5616.7339      4302.5273      437.94558      1927.0536      7907.8191     -6882.4488     -461.17137      237092.09      61.892642      61.892642      61.892642      0.61999999    -487.32974     -636.92314     -1252.5011    
     66000   33000          363.23229     -191.94583      29892.893      30556.592      11709.687      18846.906      5536.4578      5559.8334      4335.927       446.87699      1933.5101      7913.3749     -6879.0744     -461.17137      237092.09      61.892642      61.892642      61.892642      0.61999999    -678.04319     -133.84327      236.04896    
     67000   33500          368.5241      -201.45087      30051.298      30747.864      11880.281      18867.583      5556.9132      5609.8195      4260.0671      464.07918      1939.0288      7918.768      -6881.0929     -461.17137      237092.09      61.892642      61.892642      61.892642      0.61999999    -972.85306      196.36939      172.13107    
     68000   34000          369.653       -447.63333      29258.775      30806.577      11916.674      18889.903      5590.3375      5664.067       4302.1795      451.98081      1846.0615      7917.1792     -6881.9023     -461.17137      237092.09      61.892642      61.892642      61.892642      0.61999999    -303.44302     -458.32002     -581.13695    
     69000   34500          364.18801     -71.261239      30458.476      30704.88       11740.497      18964.383      5541.0543      5677.4278      4334.4691      469.33616      1899.9046      7920.4727     -6878.2817     -461.17137      237092.09      61.892642      61.892642      61.892642      0.61999999     242.86664     -472.51469      15.864336    
     70000   35000          364.12014     -118.38067      30439.747      30849.077      11738.309      19110.769      5675.7704      5636.0488      4363.8274      466.8489       1932.7433      7912.4711     -6876.9414     -461.17137      237092.09      61.892642      61.892642      61.892642      0.61999999    -643.84565      203.40416      85.29947     
     71000   35500          371.99684     -145.35441      30631.144      31133.742      11992.234      19141.509      5639.0727      5645.8633      4381.7333      476.83239      1961.5535      7915.2282     -6878.7749     -461.17137      237092.09      61.892642      61.892642      61.892642      0.61999999     241.85435     -625.32659     -52.590975    
     72000   36000          369.26118     -429.80222      29506.605      30992.752      11904.043      19088.709      5651.6093      5652.4063      4313.2286      461.48696      1991.601       7901.2566     -6882.8798     -461.17137      237092.09      61.892642      61.892642      61.892642      0.61999999    -184.06072     -288.88595     -816.45998    
     73000   36500          367.43565     -603.71629      28694.032      30781.529      11845.192      18936.336      5663.153       5646.4482      4284.7034      457.0165       1851.1495      7915.0836     -6881.2178     -461.17137      237092.09      61.892642      61.892642      61.892642      0.61999999    -399.6074      -904.65468     -506.88679    
     74000   37000          368.93574     -1078.6334      27363.018      31092.657      11893.551      19199.106      5581.1374      5761.5069      4455.6108      453.52376      1914.1828      7915.4805     -6882.3363     -461.17137      237092.09      61.892642      61.892642      61.892642      0.61999999    -634.51434     -817.30981     -1784.0761    
     75000   37500          366.35707     -1343.3699      26201.05       30846.081      11810.422      19035.659      5646.2075      5568.1048      4448.934       483.50786      1852.3026      7917.2636     -6880.6608     -461.17137      237092.09      61.892642      61.892642      61.892642      0.61999999    -1602.184      -1790.1875     -637.73826    
     76000   38000          372.81274     -1021.7747      27708.453      31241.489      12018.536      19222.953      5536.7994      5768.4209      4524.5671      480.98184      1878.2477      7919.7213     -6885.7854     -461.17137      237092.09      61.892642      61.892642      61.892642      0.61999999    -1004.7102     -497.26193     -1563.352     
     77000   38500          369.49409     -774.59059      28318.779      30997.116      11911.551      19085.564      5661.3988      5643.1516      4419.3772      460.29163      1872.923       7915.5727     -6887.1505     -461.17137      237092.09      61.892642      61.892642      61.892642      0.61999999    -6.6902643     -1616.0322     -701.04936    
     78000   39000          370.07801     -356.31664      29886.938      31118.99       11930.375      19188.615      5679.3761      5743.4217      4402.4444      462.14282      1873.5133      7914.0908     -6886.3739     -461.17137      237092.09      61.892642      61.892642      61.892642      0.61999999     72.753588     -419.67329     -722.03022    
     79000   39500          378.31081     -420.32534      29949.11       31402.487      12195.78       19206.707      5710.6296      5727.4685      4369.3171      467.65744      1908.4459      7909.7343     -6886.5454     -461.17137      237092.09      61.892642      61.892642      61.892642      0.61999999    -308.88154     -580.55825     -371.53621    
     80000   40000          377.57022     -199.00171      30631.002      31319.099      12171.905      19147.194      5678.4403      5752.675       4311.6023      460.08758      1914.4701      7916.1161     -6886.1975     -461.17137      237092.09      61.892642      61.892642      61.892642      0.61999999    -366.72922     -413.01258      182.73668    
     81000   40500          379.94464     -678.14949      29329.66       31674.528      12248.45       19426.078      5778.4383      5763.2649      4483.1483      472.57666      1900.4873      7913.4492     -6885.287      -461.17137      237092.09      61.892642      61.892642      61.892642      0.61999999    -587.00751     -594.63458     -852.80638    
     82000   41000          377.75689     -397.65503      30099.722      31474.711      12177.923      19296.788      5746.8333      5821.9708      4375.9432      463.62146      1869.3146      7906.5937     -6887.4887     -461.17137      237092.09      61.892642      61.892642      61.892642      0.61999999    -1082.4161      192.6899      -303.23888    
     83000   41500          382.12133      0.43030369     31828.278      31826.791      12318.621      19508.169      5973.6645      5742.6893      4402.2467      486.83802      1888.5966      7901.5498     -6887.4157     -461.17137      237092.09      61.892642      61.892642      61.892642      0.61999999    -490.19484      28.645024      462.84073    
     84000   42000          380.3832      -623.68024      29436.834      31593.361      12262.589      19330.772      5654.3082      5796.9646      4467.7321      483.77994      1899.43        7915.1318     -6886.5742     -461.17137      237092.09      61.892642      61.892642      61.892642      0.61999999    -941.74186     -27.889617     -901.40924    
     85000   42500          385.09019     -733.14998      29255.434      31790.479      12414.33       19376.15       5821.7202      5732.3556      4465.9698      478.13787      1843.7421      7918.7807     -6884.5567     -461.17137      237092.09      61.892642      61.892642      61.892642      0.61999999    -1547.5109     -230.72955     -421.2095     
     86000   43000          379.05502     -1059.5813      27959.361      31623.122      12219.771      19403.351      5705.274       5847.2031      4575.9291      476.75131      1776.4277      7906.2385     -6884.4727     -461.17137      237092.09      61.892642      61.892642      61.892642      0.61999999    -679.02356     -1605.7271     -893.99325    
     87000   43500          380.55716     -126.50656      31331.509      31768.937      12268.196      19500.74       5798.3209      5789.66        4524.751       485.70662      1879.5747      7909.7127     -6886.9857     -461.17137      237092.09      61.892642      61.892642      61.892642      0.61999999    -295.19624     -97.042775      12.719351    
     88000   44000          390.14957     -660.1003       29863.285      32145.743      12577.431      19568.312      5800.0372      5843.1931      4509.3532      480.97016      1926.6856      7896.958      -6888.8854     -461.17137      237092.09      61.892642      61.892642      61.892642      0.61999999    -1145.1055     -659.0866      -176.10876    
     89000   44500          384.4047      -574.76024      29902.168      31889.542      12392.231      19497.311      5793.0966      5760.0661      4580.0927      484.6269       1856.2586      7911.7636     -6888.5938     -461.17137      237092.09      61.892642      61.892642      61.892642      0.61999999    -753.362       -486.4931      -484.42562    
     90000   45000          381.74532     -163.00405      31336.181      31899.807      12306.5        19593.307      5883.8693      5895.032       4508.5219      478.62137      1807.6594      7905.298      -6885.6945     -461.17137      237092.09      61.892642      61.892642      61.892642      0.61999999    -344.78056      102.25859     -246.49018    
     91000   45500          385.01607     -72.779057      31694.445      31946.097      12411.94       19534.156      5884.7962      5769.1265      4513.4565      482.36572      1869.4818      7901.774      -6886.8443     -461.17137      237092.09      61.892642      61.892642      61.892642      0.61999999    -73.536133      156.67655     -301.47759    
     92000   46000          390.6061      -433.34423      30559.142      32057.536      12592.149      19465.387      5755.5532      5937.8047      4486.9939      458.7778       1801.2418      7914.8143     -6889.7983     -461.17137      237092.09      61.892642      61.892642      61.892642      0.61999999     65.890191     -960.40543     -405.51744    
     93000   46500          389.20694     -455.20214      30651.777      32225.75       12547.043      19678.706      5829.0066      5829.0966      4611.3571      500.53361      1883.9811      7914.7498     -6890.0185     -461.17137      237092.09      61.892642      61.892642      61.892642      0.61999999    -146.40983     -794.03649     -425.16009    
     94000   47000          393.18293     -657.17297      29951.112      32223.449      12675.219      19548.229      5891.9867      5800.0195      4553.9724      498.54261      1788.472       7903.3544     -6888.1183     -461.17137      237092.09      61.892642      61.892642      61.892642      0.61999999    -935.76602     -843.31609     -192.4368     
     95000   47500          390.39782     -356.46343      31169.963      32402.522      12585.434      19817.088      6019.0615      5891.4481      4528.0666      491.23149      1864.2897      7915.0595     -6892.0691     -461.17137      237092.09      61.892642      61.892642      61.892642      0.61999999     141.59186     -344.47015     -866.51201    
     96000   48000          390.59562     -772.96064      29775.933      32448.634      12591.811      19856.823      5831.8029      5904.9245      4717.3662      520.217        1851.0923      7919.189      -6887.7688     -461.17137      237092.09      61.892642      61.892642      61.892642      0.61999999    -1563.4872     -655.01703     -100.37765    
     97000   48500          389.5553      -302.17406      31208.479      32253.32       12558.274      19695.046      5916.9888      5910.0665      4485.7375      492.07056      1848.0397      7924.5443     -6882.401      -461.17137      237092.09      61.892642      61.892642      61.892642      0.61999999    -986.07659     -86.763463      166.31789    
     98000   49000          395.04029     -508.46249      30925.284      32683.418      12735.096      19948.322      5998.9323      5954.9842      4613.3297      478.8175       1865.664       7923.2513     -6886.6572     -461.17137      237092.09      61.892642      61.892642      61.892642      0.61999999    -183.07694     -1222.2258     -120.08475    
     99000   49500          389.07666     -794.81919      29502.638      32250.92       12542.844      19708.077      5904.1922      5810.3028      4607.1988      478.22498      1896.9036      7902.0012     -6890.7468     -461.17137      237092.09      61.892642      61.892642      61.892642      0.61999999    -988.19125     -543.88081     -852.38551    
    100000   50000          401.76773     -758.57457      30129.524      32752.482      12951.971      19800.51       5989.3763      5881.7917      4622.2872      482.2511       1793.6945      7919.473      -6888.3634     -461.17137      237092.09      61.892642      61.892642      61.892642      0.61999999    -622.81446     -787.32098     -865.58826    
    101000   50500          394.31573     -206.39269      31892.101      32605.755      12711.738      19894.017      5963.7128      5993.5395      4561.4482      488.56018      1845.2061      7927.3086     -6885.7586     -461.17137      237092.09      61.892642      61.892642      61.892642      0.61999999    -102.31486      303.85691     -820.72011    
    102000   51000          394.2915      -307.00471      31615.579      32677.123      12710.957      19966.166      6136.9491      6038.2198      4473.8388      480.58377      1800.9503      7919.4259     -6883.8016     -461.17137      237092.09      61.892642      61.892642      61.892642      0.61999999    -933.16069      50.523587     -38.377023    
    103000   51500          394.05896     -1352.5324      28004.627      32681.339      12703.46       19977.878      5916.0173      5915.4679      4790.8684      509.8247       1821.2028      7912.4473     -6887.9501     -461.17137      237092.09      61.892642      61.892642      61.892642      0.61999999    -1101.4022     -1531.9969     -1424.1981    
    104000   52000          397.3195      -69.319994      32624.179      32863.87       12808.572      20055.298      5986.5054      5987.9351      4653.0591      501.86115      1880.5091      7933.5992     -6888.1712     -461.17137      237092.09      61.892642      61.892642      61.892642      0.61999999    -506.4713      -80.364859      378.87618    
    105000   52500          399.46362     -545.98781      31038.614      32926.501      12877.693      20048.808      6039.9067      6051.9808      4669.4379      508.24311      1740.9362      7924.9489     -6886.6453     -461.17137      237092.09      61.892642      61.892642      61.892642      0.61999999    -68.628903     -841.90749     -727.42705    
    106000   53000          401.38569     -506.89749      31347.749      33100.471      12939.656      20160.816      6258.5818      6023.6089      4617.43        489.09069      1746.7643      7908.5786     -6883.2385     -461.17137      237092.09      61.892642      61.892642      61.892642      0.61999999    -885.27949     -550.80605     -84.60692     
    107000   53500          398.81607     -519.36813      31171.494      32967.336      12856.817      20110.519      6115.7403      5969.1951      4569.8354      496.82125      1922.1518      7920.6102     -6883.8352     -461.17137      237092.09      61.892642      61.892642      61.892642      0.61999999    -444.28445     -472.82611     -640.99383    
    108000   54000          407.36648     -307.81139      32209.921      33274.254      13132.461      20141.793      6109.1763      6072.0715      4599.9616      494.67006      1833.2688      7917.4451     -6884.8002     -461.17137      237092.09      61.892642      61.892642      61.892642      0.61999999     605.88956     -970.50579     -558.81792    
    109000   54500          404.12497     -119.40992      32900.767      33313.656      13027.963      20285.693      6066.0572      6192.0259      4647.5957      511.04199      1820.9735      7934.3435     -6886.3445     -461.17137      237092.09      61.892642      61.892642      61.892642      0.61999999    -227.43807      652.11973     -782.91141    
    110000   55000          412.32242     -62.869501      33257.34       33474.726      13292.228      20182.498      6166.0538      5990.8679      4607.3112      507.45822      1881.7304      7914.1191     -6885.0421     -461.17137      237092.09      61.892642      61.892642      61.892642      0.61999999     92.465397      187.39758     -468.47148    
    111000   55500          405.08199     -553.45656      31308.227      33221.939      13058.815      20163.124      6154.1242      6016.7225      4698.3195      504.96094      1756.8841      7922.1915     -6890.0782     -461.17137      237092.09      61.892642      61.892642      61.892642      0.61999999    -782.78687     -370.22354     -507.35927    
    112000   56000          404.28012     -686.84937      31055.759      33430.709      13032.964      20397.745      6120.6027      6063.7919      4861.9016      509.01227      1812.6925      7918.903      -6889.1594     -461.17137      237092.09      61.892642      61.892642      61.892642      0.61999999    -1115.6947     -732.99283     -211.86063    
    113000   56500          408.34151     -1327.454       28863.369      33453.367      13163.893      20289.473      6122.7844      5973.2887      4826.0214      525.32577      1828.6204      7902.7449     -6889.3122     -461.17137      237092.09      61.892642      61.892642      61.892642      0.61999999    -1527.1547     -1031.8597     -1423.3476    
    114000   57000          402.75991     -745.71899      30522.403      33100.909      12983.957      20116.952      6062.806       5979.9991      4666.0559      493.45681      1892.7173      7910.9289     -6889.0122     -461.17137      237092.09      61.892642      61.892642      61.892642      0.61999999    -694.51557     -1359.6845     -182.95689    
    115000   57500          413.41369     -485.13348      31917.549      33595.017      13327.408      20267.609      6149.7098      6096.9768      4627.796       490.58971      1875.0746      7915.6693     -6888.2071     -461.17137      237092.09      61.892642      61.892642      61.892642      0.61999999    -206.36404     -297.78303     -951.25336    
    116000   58000          415.67711     -1228.0837      29489.835      33736.235      13400.374      20335.861      6135.8175      6164.7549      4703.7571      514.90587      1778.6782      7920.0764     -6882.1295     -461.17137      237092.09      61.892642      61.892642      61.892642      0.61999999    -2289.6206     -781.79023     -612.84033    
    117000   58500          408.31611     -913.76634      30377.553      33537.124      13163.075      20374.049      6212.8078      6000.641       4770.8572      503.82345      1846.6721      7925.3455     -6886.098      -461.17137      237092.09      61.892642      61.892642      61.892642      0.61999999    -898.84733     -704.85411     -1137.5976    
    118000   59000          412.59943     -359.90041      32492.567      33737.011      13301.158      20435.853      6183.2365      6052.471       4723.128       524.01319      1914.8096      7922.2275     -6884.0333     -461.17137      237092.09      61.892642      61.892642      61.892642      0.61999999    -861.58014     -171.72778     -46.393315    
    119000   59500          416.42266     -250.0489       33260.443      34125.048      13424.409      20700.639      6262.7468      6148.7724      4795.1857      535.08416      1914.3011      7929.7048     -6885.1562     -461.17137      237092.09      61.892642      61.892642      61.892642      0.61999999    -1040.314       417.20535     -127.03807    
    120000   60000          411.50662     -175.77474      33197.842      33805.626      13265.928      20539.698      6296.571       6154.3249      4683.1239      531.69462      1840.0901      7921.0114     -6887.1183     -461.17137      237092.09      61.892642      61.892642      61.892642      0.61999999    -450.04883     -56.744282     -20.531115    
    121000   60500          418.37772     -102.77118      33551.905      33907.261      13487.435      20419.826      6087.4448      6075.9534      4834.0024      507.08478      1883.3868      7919.0509     -6887.0973     -461.17137      237092.09      61.892642      61.892642      61.892642      0.61999999     35.170296     -387.19077      43.706933    
    122000   61000          419.32929     -403.23851      32508.608      33902.904      13518.112      20384.793      6099.4482      6110.6879      4778.6116      522.28869      1854.9538      7906.3622     -6887.5598     -461.17137      237092.09      61.892642      61.892642      61.892642      0.61999999     94.794576     -445.86581     -858.64429    
    123000   61500          414.93508     -236.3277       33116.174      33933.335      13376.453      20556.882      6278.403       6118.7879      4675.496       517.70485      1929.3321      7923.294      -6886.1362     -461.17137      237092.09      61.892642      61.892642      61.892642      0.61999999     191.77815     -316.45981     -584.30144    
    124000   62000          420.28889     -661.8266       32182.129      34470.557      13549.047      20921.51       6396.5338      6211.6347      4835.7231      523.21533      1917.8793      7921.6319     -6885.1079     -461.17137      237092.09      61.892642      61.892642      61.892642      0.61999999    -485.87866     -793.25338     -706.34776    
    125000   62500          415.19262     -1330.9291      29356.162      33958.175      13384.756      20573.42       6113.4753      6078.9103      4996.907       524.66611      1824.802       7925.7226     -6891.0638     -461.17137      237092.09      61.892642      61.892642      61.892642      0.61999999    -1306.4009     -1240.5177     -1445.8686    
    126000   63000          420.69146     -566.25874      32326.63       34284.609      13562.024      20722.584      6316.609       6176.5032      4830.5043      531.35626      1821.9415      7932.2714     -6886.6011     -461.17137      237092.09      61.892642      61.892642      61.892642      0.61999999    -1067.3428     -96.983151     -534.45031    
    127000   63500          421.90949      520.29986      36113.45       34314.386      13601.291      20713.095      6289.5702      6157.0379      4707.573       534.16979      1983.5534      7927.916      -6886.7249     -461.17137      237092.09      61.892642      61.892642      61.892642      0.61999999     1044.7695     -450.8517       966.98178    
    128000   64000          418.57964     -618.10216      32048.424      34185.663      13493.945      20691.719      6174.2888      6207.0027      4787.0307      538.63096      1943.7353      7923.4938     -6882.4636     -461.17137      237092.09      61.892642      61.892642      61.892642      0.61999999    -1081.2069     -640.3606      -132.73901    
    129000   64500          421.65658     -549.91401      32634.121      34535.584      13593.137      20942.447      6283.8095      6352.332       4746.8533      541.65407      1981.313       7920.7495     -6884.2649     -461.17137      237092.09      61.892642      61.892642      61.892642      0.61999999    -132.83787     -1383.1533     -133.75088    
    130000   65000          427.38928     -458.2879       32823.571      34408.214      13777.945      20630.268      6211.8767      6193.7994      4822.7537      514.10145      1845.9405      7930.009      -6888.2123     -461.17137      237092.09      61.892642      61.892642      61.892642      0.61999999    -253.93932     -560.9038      -560.02058    
    131000   65500          421.73372     -1429.0346      29437.743      34378.98       13595.624      20783.356      6266.1172      6202.5806      4926.046       515.0513       1849.8154      7912.5007     -6888.7557     -461.17137      237092.09      61.892642      61.892642      61.892642      0.61999999    -1701.6029     -325.34027     -2260.1605    
    132000   66000          432.67768     -1220.5417      30765.974      34986.296      13948.43       21037.867      6365.9412      6253.9802      4890.747       530.90619      1971.6594      7916.2599     -6891.6273     -461.17137      237092.09      61.892642      61.892642      61.892642      0.61999999    -1040.6631     -1257.8405     -1363.1214    
    133000   66500          429.41128     -552.58447      32892.285      34802.981      13843.129      20959.852      6411.2361      6309.4359      4741.7241      530.22418      1927.8549      7928.3439     -6888.9671     -461.17137      237092.09      61.892642      61.892642      61.892642      0.61999999    -10.81612      -972.76055     -674.17672    
    134000   67000          427.34487     -374.91299      33218.906      34515.259      13776.514      20738.745      6329.8074      6192.3053      4724.4654      514.62517      1951.1413      7915.9002     -6889.4994     -461.17137      237092.09      61.892642      61.892642      61.892642      0.61999999    -490.06608     -158.05031     -476.62256    
    135000   67500          428.16326     -594.01603      32679.988      34733.944      13802.896      20931.048      6521.8179      6231.6285      4700.4259      537.35943      1898.9498      7929.3565     -6888.4902     -461.17137      237092.09      61.892642      61.892642      61.892642      0.61999999    -387.20385     -110.15173     -1284.6925    
    136000   68000          425.74768     -1184.1402      30744.313      34838.768      13725.024      21113.744      6352.0243      6348.2727      4945.9611      519.68634      1910.7513      7923.8165     -6886.7678     -461.17137      237092.09      61.892642      61.892642      61.892642      0.61999999    -874.03993     -943.14229     -1735.2385    
    137000   68500          429.31153     -538.15154      33015.081      34875.872      13839.914      21035.958      6465.1807      6167.5103      4891.8994      527.34104      1947.1619      7929.2731     -6892.4083     -461.17137      237092.09      61.892642      61.892642      61.892642      0.61999999    -446.41602     -394.38957     -773.64903    
    138000   69000          434.55113     -932.77582      31911.826      35137.127      14008.825      21128.302      6505.771       6283.8268      4909.4541      539.23706      1860.98        7918.0731     -6889.0403     -461.17137      237092.09      61.892642      61.892642      61.892642      0.61999999    -777.58353     -1025.8913     -994.85267    
    139000   69500          433.79533     -699.73178      32615.152      35034.646      13984.46       21050.186      6455.3016      6283.0028      4852.2086      541.99593      1878.845       7924.3934     -6885.5614     -461.17137      237092.09      61.892642      61.892642      61.892642      0.61999999    -785.05376     -382.28667     -931.85492    
    140000   70000          433.04425     -339.5733       34032.779      35206.937      13960.247      21246.69       6473.5625      6295.2183      4939.3625      535.06319      1982.9633      7907.9451     -6887.4246     -461.17137      237092.09      61.892642      61.892642      61.892642      0.61999999    -236.78899     -427.7174      -354.21351    
    141000   70500          436.91792     -1004.0986      31634.428      35106.344      14085.124      21021.22       6385.2766      6308.2849      4870.8105      516.76593      1908.5581      7924.0487     -6892.5247     -461.17137      237092.09      61.892642      61.892642      61.892642      0.61999999    -799.33785     -498.15423     -1714.8036    
    142000   71000          429.77319     -497.60851      33294.901      35015.504      13854.796      21160.708      6404.0122      6333.0648      4865.2643      541.10318      1994.1419      7913.4866     -6890.3653     -461.17137      237092.09      61.892642      61.892642      61.892642      0.61999999    -903.19489      264.68137     -854.312      
    143000   71500          435.26416     -1098.214       31303.439      35100.783      14031.811      21068.971      6492.7676      6213.1056      4910.5016      527.93191      1897.9039      7916.0884     -6889.3277     -461.17137      237092.09      61.892642      61.892642      61.892642      0.61999999    -310.47315     -902.26351     -2081.9052    
    144000   72000          433.5061      -1271.5523      30873.731      35270.435      13975.136      21295.299      6551.5745      6321.0046      4955.7381      542.61805      1884.709       7928.5741     -6888.9195     -461.17137      237092.09      61.892642      61.892642      61.892642      0.61999999    -1380.1867     -1229.7124     -1204.7578    
    145000   72500          437.29995     -868.50836      32269.612      35272.692      14097.44       21175.252      6296.7385      6421.5199      4949.845       538.36842      1928.6026      7928.6079     -6888.4301     -461.17137      237092.09      61.892642      61.892642      61.892642      0.61999999    -578.17158     -518.05269     -1509.3008    
    146000   73000          439.97555     -128.12863      34997.992      35441.028      14183.694      21257.334      6491.4065      6372.805       4867.1571      541.18257      1933.7677      7937.0964     -6886.0813     -461.17137      237092.09      61.892642      61.892642      61.892642      0.61999999    -534.09415     -19.55866       169.26691    
    147000   73500          442.63282     -252.93768      34829.538      35704.132      14269.358      21434.774      6481.4329      6451.8578      5003.6632      555.63113      1905.4262      7921.3315     -6884.5688     -461.17137      237092.09      61.892642      61.892642      61.892642      0.61999999    -785.35827     -359.16968      385.71491    
    148000   74000          437.43175     -591.7362       33349.207      35395.279      14101.689      21293.59       6345.3673      6436.5008      5021.4214      539.34955      1892.7136      7946.1222     -6887.8845     -461.17137      237092.09      61.892642      61.892642      61.892642      0.61999999    -94.316186     -839.00311     -841.88929    
    149000   74500          448.69471     -419.31618      34335.886      35785.775      14464.778      21320.996      6439.3523      6332.5597      4982.9953      540.30837      1977.7255      7934.8437     -6886.7885     -461.17137      237092.09      61.892642      61.892642      61.892642      0.61999999    -612.16957     -383.98036     -261.79863    
    150000   75000          452.80412      218.09131      36735.949      35981.845      14597.255      21384.59       6385.4817      6410.5239      4978.3012      569.26128      1993.1228      7930.2965     -6882.3978     -461.17137      237092.09      61.892642      61.892642      61.892642      0.61999999    -365.23857      129.47924      890.03326    
    151000   75500          449.60605     -2.6779136      35892.487      35901.746      14494.157      21407.589      6432.2843      6438.5642      4909.3713      551.91028      2009.2706      7945.6505     -6879.4622     -461.17137      237092.09      61.892642      61.892642      61.892642      0.61999999     339.77951     -4.4574232     -343.35582    
    152000   76000          448.23871     -1044.8611      32444.528      36057.391      14450.078      21607.314      6421.0093      6520.5989      5073.8605      555.98605      1980.6684      7932.1078     -6876.9172     -461.17137      237092.09      61.892642      61.892642      61.892642      0.61999999    -400.40659     -1220.8937     -1513.2829    
    153000   76500          438.7462      -115.40528      35222.008      35621.05       14144.063      21476.987      6468.3614      6426.429       4897.3757      553.35178      2105.7443      7908.4429     -6882.7181     -461.17137      237092.09      61.892642      61.892642      61.892642      0.61999999     73.505225      331.55177     -751.27284    
    154000   77000          455.6639      -447.05761      34641.904      36187.716      14689.447      21498.269      6382.6703      6487.0276      5077.3483      561.07003      1947.0037      7926.5487     -6883.3998     -461.17137      237092.09      61.892642      61.892642      61.892642      0.61999999    -1020.951       91.860657     -412.08244    
    155000   77500          449.76998      544.53027      38044.913      36162.066      14499.442      21662.624      6469.1535      6472.3802      4949.3098      559.0152       2183.7495      7918.1945     -6889.1787     -461.17137      237092.09      61.892642      61.892642      61.892642      0.61999999     890.81341      483.65143      259.12595    
    156000   78000          451.70585      1.4544902      36219.033      36214.004      14561.85       21652.154      6485.4238      6388.3474      5138.5775      575.54886      2015.2247      7935.1537     -6886.1215     -461.17137      237092.09      61.892642      61.892642      61.892642      0.61999999    -218.07946     -187.1223       409.56523    
[...]
    455000   227500         728.68105     -282.64244      54145.971      55123.277      23490.827      31632.45       9876.1581      9117.4056      7380.5709      906.70078      3241.3877      7973.715      -6863.4881     -461.17137      237092.09      61.892642      61.892642      61.892642      0.61999999    -881.9733      -769.25508      803.30104    
    456000   228000         740.51868      31.118075      55623.135      55515.536      23872.442      31643.095      9941.3375      9179.376       7334.3576      923.89467      3170.3492      7958.9745     -6865.1948     -461.17137      237092.09      61.892642      61.892642      61.892642      0.61999999    -321.2605       116.51736      298.09736    
    457000   228500         739.17073     -1209.0004      51394.934      55575.349      23828.987      31746.361      9917.9504      9415.94        7382.0606      896.47265      3021.0112      7977.8955     -6864.969      -461.17137      237092.09      61.892642      61.892642      61.892642      0.61999999    -874.7868      -1519.4069     -1232.8074    
    458000   229000         730.79401     -376.50485      53997.723      55299.58       23558.943      31740.637      10098.156      9171.9471      7280.0701      927.75362      3155.4179      7970.7535     -6863.4613     -461.17137      237092.09      61.892642      61.892642      61.892642      0.61999999    -398.80319     -265.32892     -465.38243    
    459000   229500         738.00979     -636.40922      53318.971      55519.512      23791.562      31727.95       10032.036      9075.8321      7431.4766      903.81879      3176.5324      7973.8294     -6865.5755     -461.17137      237092.09      61.892642      61.892642      61.892642      0.61999999    -708.12705      271.47314     -1472.5738    
    460000   230000         732.08568     -392.94542      54030.66       55389.365      23600.583      31788.781      10120.392      9179.4566      7247.0514      896.67362      3236.6684      7967.3657     -6858.826      -461.17137      237092.09      61.892642      61.892642      61.892642      0.61999999    -892.21099     -498.62946      212.00417    
    461000   230500         741.85553     -994.4778       52534.195      55972.845      23915.539      32057.307      10161.44       9282.1008      7414.4647      910.21124      3184.8119      7964.6085     -6860.3308     -461.17137      237092.09      61.892642      61.892642      61.892642      0.61999999    -1211.656      -1135.4249     -636.3525     
    462000   231000         739.6252       221.36861      56401.188      55635.752      23843.638      31792.113      10126.456      9091.8935      7234.6256      900.54324      3313.9054      7983.4493     -6858.7595     -461.17137      237092.09      61.892642      61.892642      61.892642      0.61999999    -138.9123       391.14064      411.87748    
    463000   231500         740.26366     -860.90942      53187.051      56163.856      23864.221      32299.636      10009.304      9354.0803      7611.7407      933.71496      3290.3522      7961.6154     -6861.1717     -461.17137      237092.09      61.892642      61.892642      61.892642      0.61999999    -792.69532     -1350.0412     -439.99178    
    464000   232000         745.37647     -1737.5909      50061.245      56069.391      24029.045      32040.346      10059.145      9129.9469      7571.8035      888.58561      3288.1343      7961.8364     -6859.1055     -461.17137      237092.09      61.892642      61.892642      61.892642      0.61999999    -532.1665      -2582.5146     -2098.0915    
    465000   232500         743.2468      -5.985818       56237.278      56257.975      23960.39       32297.585      10310.96       9295.7048      7330.2068      900.09949      3346.7786      7973.2923     -6859.4566     -461.17137      237092.09      61.892642      61.892642      61.892642      0.61999999     887.29602     -257.34365     -647.90983    
    466000   233000         755.43957     -444.23268      54887.652      56423.695      24353.453      32070.242      10066.43       9337.0613      7366.6427      910.27457      3272.9353      7980.8114     -6863.9129     -461.17137      237092.09      61.892642      61.892642      61.892642      0.61999999    -564.47123      218.66847     -986.89528    
    467000   233500         750.67672     -510.34581      54271.475      56036.121      24199.911      31836.21       9977.0433      9208.3141      7402.4089      916.76028      3227.2538      7968.7096     -6864.2803     -461.17137      237092.09      61.892642      61.892642      61.892642      0.61999999    -843.82684      551.24943     -1238.46      
    468000   234000         746.0856      -237.72192      54940.863      55762.845      24051.905      31710.94       9987.3595      9163.4479      7310.0848      935.20025      3177.2765      7994.5518     -6856.9811     -461.17137      237092.09      61.892642      61.892642      61.892642      0.61999999     797.96278      166.32316     -1677.4517    
    469000   234500         747.43248     -84.215915      56291.411      56582.609      24095.325      32487.283      10407.852      9328.7869      7429.0467      931.3448       3266.9183      7984.8868     -6861.5519     -461.17137      237092.09      61.892642      61.892642      61.892642      0.61999999    -521.20715     -355.55439      624.11379    
    470000   235000         745.38717     -922.98639      53007.338      56198.789      24029.39       32169.4        10167.057      9117.1626      7545.0589      959.33323      3269.9157      7971.6102     -6860.7385     -461.17137      237092.09      61.892642      61.892642      61.892642      0.61999999     263.12039     -1158.6995     -1873.38      
    471000   235500         758.43359      28.44666       56854.433      56756.072      24449.973      32306.098      10312.751      9142.4489      7572.4441      948.8478       3213.8542      7977.5892     -6861.8369     -461.17137      237092.09      61.892642      61.892642      61.892642      0.61999999    -164.41662      167.36121      82.395389    
    472000   236000         751.71406      474.49558      58329.29       56688.605      24233.352      32455.253      10316.313      9270.0459      7467.0243      915.60497      3383.1763      7966.3711     -6863.2822     -461.17137      237092.09      61.892642      61.892642      61.892642      0.61999999    -297.94838      637.1906       1084.2445    
    473000   236500         754.00804     -345.99882      55678.908      56875.283      24307.304      32567.979      10451.246      9337.8522      7482.6717      918.30065      3269.945       7969.259      -6861.2959     -461.17137      237092.09      61.892642      61.892642      61.892642      0.61999999    -625.90223     -320.15487     -91.939359    
    474000   237000         766.43031      548.16958      59037.806      57142.375      24707.767      32434.608      10317.684      9306.3836      7457.8402      968.26988      3279.7877      7969.3761     -6864.7328     -461.17137      237092.09      61.892642      61.892642      61.892642      0.61999999     178.41414      692.5436       773.55101    
    475000   237500         753.47524     -879.53081      53611.3        56652.494      24290.128      32362.365      10129.142      9363.082       7533.7409      934.64827      3259.2198      7996.3749     -6853.8426     -461.17137      237092.09      61.892642      61.892642      61.892642      0.61999999    -676.86874     -720.87898     -1240.8447    
    476000   238000         747.77303     -169.09719      55662.482      56247.177      24106.304      32140.873      10209.183      9221.8609      7404.471       905.31997      3269.9985      7987.0641     -6857.0238     -461.17137      237092.09      61.892642      61.892642      61.892642      0.61999999     49.5548       -566.43997      9.5936135    
    477000   238500         760.13189     -1201.4747      53007.583      57161.976      24504.722      32657.254      10330.64       9275.4655      7723.2426      940.96961      3276.2979      7973.5399     -6862.9013     -461.17137      237092.09      61.892642      61.892642      61.892642      0.61999999    -1459.9298     -1500.8082     -643.68594    
    478000   239000         761.97343     -149.46506      56608.742      57125.554      24564.088      32561.466      10295.91       9392.2993      7535.3557      896.48306      3321.4116      7979.5017     -6859.4953     -461.17137      237092.09      61.892642      61.892642      61.892642      0.61999999     0.056454695   -687.65117      239.19952    
    479000   239500         747.17053      624.37903      58994.194      56835.251      24086.881      32748.371      10441.1        9349.6308      7536.2534      955.74386      3347.7757      7975.3266     -6857.4593     -461.17137      237092.09      61.892642      61.892642      61.892642      0.61999999     1389.8927      389.81211      93.432268    
    480000   240000         766.28719     -225.89923      56891.51       57672.612      24703.153      32969.459      10655.422      9480.2275      7433.2839      921.89017      3356.2483      7981.0228     -6858.6356     -461.17137      237092.09      61.892642      61.892642      61.892642      0.61999999    -1414.4867      149.3855       587.4035     
    481000   240500         762.79311      541.14817      58925.579      57054.427      24590.513      32463.914      10353.544      9323.3778      7390.5952      932.93433      3342.3259      7982.0899     -6860.9532     -461.17137      237092.09      61.892642      61.892642      61.892642      0.61999999     1257.4225     -268.34648      634.36853    
    482000   241000         764.41029     -610.73514      55120.314      57232.08       24642.647      32589.434      10300.914      9479.552       7525.5478      900.9848       3276.5252      7968.9004     -6862.991      -461.17137      237092.09      61.892642      61.892642      61.892642      0.61999999    -1193.1207     -1223.3155      584.23082    
    483000   241500         761.92804     -773.74303      54569.365      57244.771      24562.625      32682.146      10441.977      9331.1421      7570.8602      934.37574      3298.7392      7965.2402     -6860.1884     -461.17137      237092.09      61.892642      61.892642      61.892642      0.61999999    -262.262       -1078.8549     -980.11214    
    484000   242000         748.11264     -1085.1218      53067.581      56819.656      24117.252      32702.404      10368.238      9320.3412      7725.8104      935.02225      3254.6461      7960.1032     -6861.7575     -461.17137      237092.09      61.892642      61.892642      61.892642      0.61999999    -1556.092      -1047.3081     -651.96516    
    485000   242500         771.38797     -466.00787      56017.453      57628.789      24867.589      32761.2        10492.713      9496.3636      7502.6038      945.26798      3211.3444      7973.8305     -6860.9237     -461.17137      237092.09      61.892642      61.892642      61.892642      0.61999999    -614.72486     -631.63143     -151.66732    
    486000   243000         762.30772     -738.96356      54637.764      57192.911      24574.865      32618.046      10268.49       9489.0942      7563.8864      957.00885      3239.2631      7968.7538     -6868.4499     -461.17137      237092.09      61.892642      61.892642      61.892642      0.61999999    -1501.1843     -162.75609     -552.95033    
    487000   243500         774.14726     -169.14641      57200.832      57785.697      24956.542      32829.155      10537.788      9511.3053      7450.7903      943.60019      3278.7418      7976.7373     -6869.808      -461.17137      237092.09      61.892642      61.892642      61.892642      0.61999999    -891.44713      435.94443     -51.93655     
    488000   244000         771.25367     -1593.7496      52227.643      57738.423      24863.26       32875.163      10433.286      9452.9165      7760.9623      928.85592      3175.9634      7979.4556     -6856.2762     -461.17137      237092.09      61.892642      61.892642      61.892642      0.61999999    -392.15784     -2146.6555     -2242.4356    
    489000   244500         767.40115     -1339.1573      53031.485      57661.949      24739.064      32922.885      10408.225      9515.1442      7716.7673      978.03157      3227.3257      7942.046      -6864.6553     -461.17137      237092.09      61.892642      61.892642      61.892642      0.61999999    -701.40024     -1769.3428     -1546.7288    
    490000   245000         762.95981      159.19774      58121.988      57571.523      24595.887      32975.636      10800.801      9383.778       7572.0263      966.94751      3132.4244      7984.0456     -6864.387      -461.17137      237092.09      61.892642      61.892642      61.892642      0.61999999    -4.5365664      365.93678      116.193      
    491000   245500         771.75562      486.00813      59693.062      58012.57       24879.442      33133.129      10637.688      9723.7084      7365.9829      957.07058      3349.2676      7965.3668     -6865.9554     -461.17137      237092.09      61.892642      61.892642      61.892642      0.61999999    -357.27362      1860.3262     -45.028218    
    492000   246000         777.17103     -1080.8097      54186.446      57923.61       25054.02       32869.59       10496.297      9411.469       7718.2392      963.61769      3191.5769      7955.3478     -6866.9578     -461.17137      237092.09      61.892642      61.892642      61.892642      0.61999999    -578.53682     -1135.1774     -1528.7148    
    493000   246500         776.35133     -652.75313      55999.504      58256.558      25027.595      33228.963      10718.586      9486.7076      7643.707       957.99438      3315.3987      7970.7653     -6864.1967     -461.17137      237092.09      61.892642      61.892642      61.892642      0.61999999     173.02032     -1106.7533     -1024.5264    
    494000   247000         770.98869     -367.64221      56821.62       58092.833      24854.718      33238.116      10764.506      9409.6196      7697.4042      977.67769      3272.3711      7983.3576     -6866.8207     -461.17137      237092.09      61.892642      61.892642      61.892642      0.61999999    -301.65482     -755.37279     -45.899031    
    495000   247500         778.86094     -382.89438      57025.536      58349.487      25108.499      33240.988      10627.897      9489.6125      7776.5172      968.42257      3284.9128      7961.4428     -6867.8169     -461.17137      237092.09      61.892642      61.892642      61.892642      0.61999999    -749.66509     -975.20498      576.18692    
    496000   248000         772.02142     -932.13782      54679.648      57902.743      24888.01       33014.733      10565.406      9450.3155      7688.1601      960.90581      3218.7374      7987.7907     -6856.5824     -461.17137      237092.09      61.892642      61.892642      61.892642      0.61999999    -1570.5362     -475.88655     -749.99072    
    497000   248500         769.79246     -1023.1089      53872.858      57410.508      24816.154      32594.353      10444.937      9399.3869      7571.0289      930.19001      3155.7012      7957.7831     -6864.6732     -461.17137      237092.09      61.892642      61.892642      61.892642      0.61999999    -318.18288     -1177.956      -1573.1879    
    498000   249000         779.93364     -475.60588      56788.614      58433.137      25143.08       33290.058      10658.988      9750.8162      7529.7139      937.77535      3302.7055      7975.9537     -6865.8949     -461.17137      237092.09      61.892642      61.892642      61.892642      0.61999999    -774.32334     -65.682694     -586.81159    
    499000   249500         774.37528      299.76913      58818.695      57782.169      24963.893      32818.277      10419.593      9455.4808      7471.2116      953.86777      3418.1925      7966.7453     -6866.8144     -461.17137      237092.09      61.892642      61.892642      61.892642      0.61999999    -135.29385      123.72196      910.87927    
    500000   250000         779.92795     -66.565426      57882.226      58112.392      25142.897      32969.495      10556.074      9537.8795      7569.2472      958.75876      3229.2531      7976.902      -6858.6195     -461.17137      237092.09      61.892642      61.892642      61.892642      0.61999999    -906.5592       998.81194     -291.94902    
Loop time of 896.295 on 1 procs for 500000 steps with 10816 atoms

Performance: 24.099 ns/day, 0.996 hours/ns, 557.852 timesteps/s, 6.034 Matom-step/s
99.8% CPU use with 1 MPI tasks x 1 OpenMP threads

MPI task timing breakdown:
Section |  min time  |  avg time  |  max time  |%varavg| %total
---------------------------------------------------------------
Pair    | 8.3675     | 8.3675     | 8.3675     |   0.0 |  0.93
Bond    | 178.69     | 178.69     | 178.69     |   0.0 | 19.94
Kspace  | 536.5      | 536.5      | 536.5      |   0.0 | 59.86
Neigh   | 57.28      | 57.28      | 57.28      |   0.0 |  6.39
Comm    | 15.031     | 15.031     | 15.031     |   0.0 |  1.68
Output  | 9.7608     | 9.7608     | 9.7608     |   0.0 |  1.09
Modify  | 72.78      | 72.78      | 72.78      |   0.0 |  8.12
Other   |            | 17.89      |            |       |  2.00

Nlocal:          10816 ave       10816 max       10816 min
Histogram: 1 0 0 0 0 0 0 0 0 0
Nghost:          13199 ave       13199 max       13199 min
Histogram: 1 0 0 0 0 0 0 0 0 0
Neighs:              0 ave           0 max           0 min
Histogram: 1 0 0 0 0 0 0 0 0 0
FullNghs:  3.84833e+06 ave 3.84833e+06 max 3.84833e+06 min
Histogram: 1 0 0 0 0 0 0 0 0 0

Total # of neighbors = 3848334
Ave neighs/atom = 355.80011
Ave special neighs/atom = 5.7707101
Neighbor list builds = 15121
Dangerous builds = 0

# --- Cleanup ---
unfix nvt_fix

undump dump_nvt

# --- Write Output ---
write_dump all custom nvt_softheat_last.dump id type mol x y z xu yu zu vx vy vz modify sort id
write_data /home/alexzhao/PolyJarvis/data/PSU3/lammps/equil/nvt_softheat/nvt_softheat_out.data
System init for write_data ...
PPPM Kokkos initialization ...
  using 12-bit tables for long-range coulomb
  G vector (1/distance) = 0.2922111
  grid = 40 40 40
  stencil order = 5
  estimated absolute RMS force accuracy = 0.00034540139
  estimated relative force accuracy = 1.040166e-06
  using double precision cuFFT
  3d grid and FFT values/proc = 103823 64000
Generated 28 of 28 mixed pair_coeff terms from sixthpower/sixthpower mixing rule

print "STAGE COMPLETE: NVT T=300.0->780.0K steps=500000"
STAGE COMPLETE: NVT T=300.0->780.0K steps=500000
quit
7.89      |            |       |  2.00

Nlocal:          10816 ave       10816 max       10816 min
Histogram: 1 0 0 0 0 0 0 0 0 0
Nghost:          13199 ave       13199 max       13199 min
Histogram: 1 0 0 0 0 0 0 0 0 0
Neighs:              0 ave           0 max           0 min
Histogram: 1 0 0 0 0 0 0 0 0 0
FullNghs:  3.84833e+06 ave 3.84833e+06 max 3.84833e+06 min
Histogram: 1 0 0 0 0 0 0 0 0 0

Total # of neighbors = 3848334
Ave neighs/atom = 355.80011
Ave special neighs/atom = 5.7707101
Neighbor list builds = 15121
Dangerous builds = 0
System init for write_data ...
PPPM Kokkos initialization ...
  using 12-bit tables for long-range coulomb
  G vector (1/distance) = 0.2922111
  grid = 40 40 40
  stencil order = 5
  estimated absolute RMS force accuracy = 0.00034540139
  estimated relative force accuracy = 1.040166e-06
  using double precision cuFFT
  3d grid and FFT values/proc = 103823 64000
Generated 28 of 28 mixed pair_coeff terms from sixthpower/sixthpower mixing rule
STAGE COMPLETE: NVT T=300.0->780.0K steps=500000
