units real
atom_style full
boundary p p p

# --- Force Field Styles ---
pair_style lj/class2/coul/long 9.5 9.5
kspace_style pppm 1e-6
dielectric 1.000000
bond_style class2
angle_style class2
dihedral_style class2
improper_style class2
special_bonds lj/coul 0 0 1
pair_modify mix sixthpower tail yes
neighbor 2.0 bin
neigh_modify delay 0 every 1 check yes
neigh_modify one 4000
# KOKKOS: package loaded via -pk kokkos on the command line

read_data /home/arz2/PolyJarvis/data/PEEK1/lammps/equil/npt_prod300/npt_prod300_out.data
Reading data file ...
  orthogonal box = (3.978607 3.978607 3.978607) to (40.346249 40.346249 40.346249)
  1 by 1 by 1 MPI processor grid
  reading atoms ...
  4096 atoms
  reading velocities ...
  4096 velocities
  scanning bonds ...
  3 = max bonds/atom
  scanning angles ...
  9 = max angles/atom
  scanning dihedrals ...
  18 = max dihedrals/atom
  scanning impropers ...
  4 = max impropers/atom
  orthogonal box = (3.978607 3.978607 3.978607) to (40.346249 40.346249 40.346249)
  1 by 1 by 1 MPI processor grid
  reading bonds ...
  4448 bonds
  reading angles ...
  7080 angles
  reading dihedrals ...
  10544 dihedrals
  reading impropers ...
  2280 impropers
Finding 1-2 1-3 1-4 neighbors ...
  special bond factors lj:    0        0        1       
  special bond factors coul:  0        0        1       
     3 = max # of 1-2 neighbors
     6 = max # of 1-3 neighbors
     9 = max # of special neighbors
  special bonds CPU = 0.002 seconds
  read_data CPU = 0.170 seconds


# --- Thermo Output ---
thermo_style custom step time temp press enthalpy etotal ke pe ebond eangle edihed eimp evdwl ecoul elong etail vol lx ly lz density pxx pyy pzz
thermo_modify flush yes
thermo 100

# --- Trajectory ---
dump dump_npt all custom 1000 /home/arz2/PolyJarvis/data/PEEK1/lammps/mechanical/bm_series/bm_P5000/bm_P5000.dump id type mol x y z ix iy iz vx vy vz

# --- Restart Checkpointing ---
restart 10000 npt_1.rst npt_2.rst

# --- Initial Velocities (optional) ---
# Velocities read from data file

# --- SHAKE Constraints ---
fix shake_fix all shake 1e-4 1000 0 m 1.008
Finding SHAKE clusters ...
    1456 = # of size 2 clusters
       0 = # of size 3 clusters
       0 = # of size 4 clusters
       0 = # of frozen angles
  find clusters CPU = 0.001 seconds

# --- NPT Thermostat + Barostat (Nose-Hoover) ---
# T_damp = 100.0 fs  (heat bath coupling)
# P_damp = 1000.0 fs  (pressure bath coupling, ~10x T_damp typical)
# Ramp: T=300.0->300.0K  P=5000.0->5000.0atm
timestep 1.0
fix npt_fix all npt temp 300.0 300.0 100.0 iso 5000.0 5000.0 1000.0

run 500000
PPPM Kokkos initialization ...
  using 12-bit tables for long-range coulomb
  G vector (1/distance) = 0.31284831
  grid = 30 30 30
  stencil order = 5
  estimated absolute RMS force accuracy = 0.00027919675
  estimated relative force accuracy = 8.4079272e-07
  using double precision cuFFT
  3d grid and FFT values/proc = 50653 27000
Generated 21 of 21 mixed pair_coeff terms from sixthpower/sixthpower mixing rule
Neighbor list info ...
  update: every = 1 steps, delay = 0 steps, check = yes
  max neighbors/atom: 4000, page size: 100000
  master list distance cutoff = 11.5
  ghost atom cutoff = 11.5
  binsize = 11.5, bins = 4 4 4
  1 neighbor lists, perpetual/occasional/extra = 1 0 0
  (1) pair lj/class2/coul/long/kk, perpetual
      attributes: full, newton off, kokkos_device
      pair build: full/bin/kk/device
      stencil: full/bin/3d
      bin: kk/device
Per MPI rank memory allocation (min/avg/max) = 23.84 | 23.84 | 23.84 Mbytes
   Step          Time           Temp          Press         Enthalpy        TotEng         KinEng         PotEng         E_bond        E_angle        E_dihed        E_impro         E_vdwl         E_coul         E_long         E_tail         Volume           Lx             Ly             Lz          Density          Pxx            Pyy            Pzz      
         0   0              341.83751      2744.1105      14134.273      12209.307      3678.0796      8531.2278      1422.0011      2708.3998      2405.0606      202.02139     -609.28322      7467.3647     -5064.3367     -367.47146      48100.038      36.367642      36.367642      36.367642      1.1949246      3132.241       4644.5826      455.50794    
       100   100            294.25826      3575.3236      14278.427      11810.449      3166.1396      8644.3092      1481.0093      2681.8775      2371.6354      211.83088     -526.17982      7487.121      -5062.9849     -373.43834      47331.485      36.172904      36.172904      36.172904      1.2143274      3590.8735      4166.8722      2968.225     
       200   200            301.01591      3907.3293      14385.504      11754.994      3238.8501      8516.1435      1365.1717      2703.5135      2365.9947      198.46491     -535.1472       7483.7758     -5065.6298     -382.89965      46161.942      35.872476      35.872476      35.872476      1.2450932      4935.8371      2240.0934      4546.0575    
       300   300            301.12105      4422.527       14688.167      11754.57       3239.9814      8514.5887      1394.4499      2598.2894      2460.6142      212.40516     -562.85757      7478.4631     -5066.7755     -388.6109       45483.519      35.695874      35.695874      35.695874      1.2636647      5687.6036      5318.245       2261.7323    
       400   400            300.60338      4358.7006      14637.656      11766.481      3234.4114      8532.0691      1388.0562      2686.1267      2434.1505      210.56601     -611.16827      7489.4939     -5065.1559     -391.32923      45167.573      35.613029      35.613029      35.613029      1.272504       5848.1842      3158.9844      4068.9333    
       500   500            299.19561      5521.0129      15376.731      11752.545      3219.2641      8533.2805      1428.4847      2676.3768      2396.9579      198.35118     -593.88944      7492.8921     -5065.8927     -392.693        45010.711      35.571755      35.571755      35.571755      1.2769387      6552.8159      5079.4996      4930.7232    
       600   600            294.87648      6360.465       15864.498      11695.432      3172.7915      8522.6408      1409.2453      2691.2408      2362.3809      211.03052     -578.67656      7491.7146     -5064.2947     -393.27387      44944.23       35.554233      35.554233      35.554233      1.2788275      7355.399       5623.2526      6102.7435    
       700   700            291.33299      4904.4942      14856.048      11636.546      3134.6645      8501.8814      1444.2372      2689.783       2356.7398      202.88097     -614.31915      7484.4633     -5061.9037     -392.69058      45010.988      35.571828      35.571828      35.571828      1.2769308      5470.438       4403.9061      4839.1385    
       800   800            299.23142      5566.7365      15355.36       11692.876      3219.6495      8473.2266      1441.3617      2672.1607      2382.87        204.08164     -649.04212      7485.2778     -5063.4832     -391.80485      45112.742      35.598613      35.598613      35.598613      1.2740507      6503.3317      5505.933       4690.9446    
       900   900            301.88009      6289.2404      15922.515      11782.338      3248.1484      8534.1899      1384.5701      2729.1105      2371.5693      197.26335     -564.93695      7481.0174     -5064.4039     -391.58337      45138.259      35.605323      35.605323      35.605323      1.2733304      6129.6741      6468.748       6269.299     
      1000   1000           299.02096      4195.6236      14572.921      11804.997      3217.385       8587.6117      1458.2433      2725.62        2390.2828      191.48936     -611.41137      7495.569      -5062.1814     -390.73938      45235.756      35.63094       35.63094       35.63094       1.270586       4721.7872      5586.6436      2278.44      
      1100   1100           300.98262      2253.2546      13285.865      11797.762      3238.4919      8559.27        1375.9655      2712.8087      2443.7075      197.77272     -590.78376      7483.1133     -5063.3139     -390.32132      45284.206      35.643657      35.643657      35.643657      1.2692266      1527.8684      3333.9742      1897.9212    
      1200   1200           296.05098      5049.3481      15037.184      11703.657      3185.4288      8518.2287      1451.383       2682.4609      2336.9258      209.56972     -581.94612      7483.3156     -5063.4803     -390.45984      45268.142      35.639441      35.639441      35.639441      1.269677       5175.5624      5352.1966      4620.2852    
      1300   1300           299.00281      5272.4768      15123.448      11653.993      3217.1897      8436.8033      1404.5473      2667.762       2373.2442      200.46672     -632.20427      7486.4213     -5063.434      -391.74039      45120.166      35.600565      35.600565      35.600565      1.273841       5201.5721      6122.8939      4492.9643    
      1400   1400           302.92876      5118.8555      15060.154      11703.574      3259.4319      8444.1423      1430.2124      2657.3932      2369.2056      201.36626     -632.09806      7483.3776     -5065.3147     -393.11611      44962.266      35.558988      35.558988      35.558988      1.2783145      3516.0204      6032.4023      5808.1438    
      1500   1500           305.06772      5608.4918      15432.507      11766.891      3282.4465      8484.4445      1399.5631      2657.6023      2389.6076      197.56065     -577.07058      7481.3549     -5064.1735     -394.4065       44815.162      35.520166      35.520166      35.520166      1.2825106      4815.7463      7545.8605      4463.8687    
      1600   1600           296.05017      6194.8646      15844.243      11785.544      3185.4201      8600.1241      1424.7756      2728.2816      2408.7746      213.79224     -602.853        7490.0245     -5062.6715     -393.45032      44924.074      35.548917      35.548917      35.548917      1.2794013      6357.1223      6378.8449      5848.6265    
      1700   1700           302.80048      4310.9664      14609.18       11773.916      3258.0516      8515.8647      1386.0895      2706.5345      2463.5068      198.64813     -662.91157      7488.8357     -5064.8384     -391.94582      45096.517      35.594345      35.594345      35.594345      1.274509       4966.2687      3264.7198      4701.9109    
      1800   1800           295.98739      3149.3913      13825.189      11749.663      3184.7446      8564.9185      1388.8361      2762.8209      2401.0255      207.90127     -617.50149      7486.3691     -5064.5329     -391.14996      45188.273      35.618469      35.618469      35.618469      1.2719211      3643.2177      2027.7718      3777.1843    
      1900   1900           297.5205       7453.9651      16648.035      11744.278      3201.2404      8543.0378      1426.599       2722.8547      2324.313       205.93168     -543.93835      7473.906      -5066.6283     -391.83516      45109.253      35.597695      35.597695      35.597695      1.2741492      7947.1233      6565.8331      7848.9389    
      2000   2000           294.50412      4148.5338      14503.277      11777.426      3168.785       8608.641       1422.8513      2716.0444      2429.89        217.42168     -587.56441      7474.0123     -5064.0142     -392.3173       45053.816      35.583106      35.583106      35.583106      1.275717       3783.9436      4522.2642      4139.3935    
      2100   2100           301.69024      5582.7871      15502.319      11837.862      3246.1057      8591.7568      1393.8778      2753.894       2362.309       204.61805     -535.7398       7480.0722     -5067.2744     -392.7231       45007.261      35.570846      35.570846      35.570846      1.2770366      6945.0017      5418.355       4385.0046    
      2200   2200           301.5566       3432.4812      14065.776      11805.376      3244.6678      8560.7084      1403.8839      2760.6175      2393.6375      193.35132     -611.47755      7486.6746     -5065.9789     -391.4423       45154.525      35.6096        35.6096        35.6096        1.2728717      3171.8186      3844.2971      3281.3278    
      2300   2300           300.62851      3281.7097      13894.385      11731.871      3234.6818      8497.1888      1415.1359      2710.0927      2421.706       196.52873     -663.64865      7484.1565     -5066.7824     -391.18856      45183.814      35.617297      35.617297      35.617297      1.2720466      3456.3188      2336.6415      4052.1689    
      2400   2400           298.15901      5987.5877      15629.815      11697.82       3208.1107      8489.7096      1398.8325      2726.4255      2338.8144      202.95027     -587.10345      7477.0604     -5067.27       -392.54         45028.255      35.576376      35.576376      35.576376      1.2764412      7320.643       6767.0757      3875.0442    
      2500   2500           297.56464      5643.4705      15392.538      11696.064      3201.7153      8494.3484      1440.3516      2683.376       2369.2096      195.78992     -611.09967      7483.0093     -5066.2883     -393.55326      44912.323      35.545817      35.545817      35.545817      1.279736       6274.6874      6359.7751      4295.9489    
      2600   2600           300.76001      5114.4129      15126.799      11779.514      3236.0967      8543.4171      1452.9489      2733.8999      2369.5298      195.12842     -624.37936      7480.0826     -5063.7931     -393.86555      44876.713      35.53642       35.53642       35.53642       1.2807515      6028.5         4184.8573      5129.8814    
      2700   2700           300.27222      4812.9125      14997.379      11848.631      3230.8482      8617.7832      1427.2911      2747.6906      2446.3549      198.71233     -617.18305      7481.2556     -5066.3382     -394.01711      44859.451      35.531864      35.531864      35.531864      1.2812444      6189.6263      3477.2284      4771.8829    
      2800   2800           305.33951      6197.0482      15919.384      11864.274      3285.3709      8578.9036      1437.6273      2725.262       2382.877       203.38953     -586.82694      7482.323      -5065.7483     -393.9374       44868.528      35.53426       35.53426       35.53426       1.2809852      5221.6115      6355.2718      7014.2612    
      2900   2900           301.69364      3583.1508      14122.307      11770.629      3246.1423      8524.4869      1425.3869      2742.8158      2377.6866      204.58958     -651.83715      7488.5809     -5062.7358     -392.76443      45002.525      35.569598      35.569598      35.569598      1.277171       2650.8078      3894.1987      4204.4461    
      3000   3000           297.91039      4452.8539      14618.208      11697.142      3205.4355      8491.706       1403.2296      2697.9047      2429.3273      200.75125     -660.12398      7488.5879     -5067.9707     -392.95427      44980.784      35.563869      35.563869      35.563869      1.2777883      2905.0241      4338.1199      6115.4178    
      3100   3100           304.72349      5249.0744      15149.729      11714.755      3278.7427      8436.0119      1403.3907      2718.4299      2377.0324      202.73601     -680.1744       7480.8567     -5066.2595     -393.91652      44870.906      35.534888      35.534888      35.534888      1.2809173      6750.4554      4903.5622      4093.2056    
      3200   3200           298.77093      5808.3659      15554.323      11763.151      3214.6947      8548.4563      1438.4355      2698.2323      2433.4504      216.58125     -644.70151      7472.8469     -5066.3886     -394.93478      44755.216      35.504322      35.504322      35.504322      1.2842284      7319.3083      5691.0626      4414.7269    
      3300   3300           304.52276      5192.7143      15202.082      11809.921      3276.5829      8533.3384      1477.021       2730.1802      2349.2061      190.8622      -620.80717      7472.5121     -5065.636      -394.60537      44792.576      35.514198      35.514198      35.514198      1.2831572      7915.232       4080.3737      3582.5371    
      3400   3400           306.37286      3837.321       14383.72       11870.663      3296.4895      8574.173       1396.6407      2706.6705      2480.4902      226.72334     -652.3038       7482.2684     -5066.3163     -393.61402      44905.39       35.543988      35.543988      35.543988      1.2799336      5933.4796      4099.006       1479.4774    
      3500   3500           303.13886      4774.5101      15042.83       11910.226      3261.6925      8648.5339      1457.6941      2721.8925      2470.8214      193.28107     -609.45933      7478.7938     -5064.4898     -392.88752      44988.426      35.565883      35.565883      35.565883      1.2775712      6472.6546      3331.8128      4519.0629    
      3600   3600           299.11776      5298.8759      15305.746      11824.451      3218.4266      8606.0247      1421.4341      2791.0435      2390.3203      211.18144     -627.88861      7486.1467     -5066.2128     -392.3629       45048.579      35.581728      35.581728      35.581728      1.2758653      7829.3618      5139.8746      2927.3913    
      3700   3700           293.28935      3642.8838      14134.376      11745.525      3155.7144      8589.8108      1382.6282      2757.2651      2471.1792      202.18071     -639.80212      7481.2459     -5064.8862     -393.0983       44964.303      35.559525      35.559525      35.559525      1.2782566      4044.9157      3476.2402      3407.4953    
      3800   3800           295.03683      5363.0729      15238.091      11737.667      3174.5169      8563.1502      1474.9432      2646.2943      2417.4841      208.27593     -605.45151      7485.8844     -5064.2802     -394.9462       44753.921      35.503979      35.503979      35.503979      1.2842655      6681.3711      5411.8243      3996.0234    
      3900   3900           301.58964      6029.6861      15701.14       11780.068      3245.0233      8535.0446      1393.0471      2715.137       2430.9795      200.10004     -617.0073       7478.9277     -5066.1393     -396.40103      44589.67       35.460492      35.460492      35.460492      1.2889963      6178.3804      5081.7949      6828.8829    
      4000   4000           309.71065      5717.2705      15572.685      11851.885      3332.4032      8519.4821      1398.5356      2678.6658      2446.4412      206.64254     -625.40393      7483.4206     -5068.8197     -396.09324      44624.32       35.469675      35.469675      35.469675      1.2879954      6673.216       4131.7697      6346.8259    
      4100   4100           304.58378      2969.7799      13832.911      11892.222      3277.2394      8614.9827      1372.8138      2741.1443      2523.134       218.73001     -647.03567      7477.3055     -5071.1092     -394.4693       44808.027      35.518281      35.518281      35.518281      1.2827148      1635.2866      3601.6846      3672.3684    
      4200   4200           297.22483      5461.3029      15373.086      11789.87       3198.0591      8591.8106      1389.5447      2736.8311      2426.6744      217.19834     -589.6153       7477.1721     -5065.9947     -392.88744      44988.435      35.565886      35.565886      35.565886      1.277571       6268.8255      4501.5324      5613.551     
      4300   4300           301.07921      3077.0731      13715.063      11688.974      3239.5312      8449.4426      1393.8872      2668.1539      2420.3065      199.03068     -639.70933      7475.7478     -5067.9742     -391.49319      45148.656      35.608057      35.608057      35.608057      1.2730372      3189.0729      2344.5146      3697.6318    
      4400   4400           299.91812      5888.6957      15570.638      11691.611      3227.0382      8464.5729      1425.0697      2690.1049      2375.6134      206.98334     -644.43672      7478.4995     -5067.2612     -391.32825      45167.685      35.613059      35.613059      35.613059      1.2725009      7609.4768      6599.8011      3456.8092    
      4500   4500           300.71475      4335.0614      14614.069      11766.015      3235.6097      8530.4052      1398.6741      2684.4759      2475.3486      211.46571     -653.26563      7480.89       -5067.1836     -392.36649      45048.167      35.581619      35.581619      35.581619      1.275877       5963.2478      4081.5532      2960.383     
      4600   4600           301.02477      4326.0162      14668.088      11837.82       3238.9455      8598.875       1395.8165      2722.6193      2464.964       213.47616     -612.53498      7482.2855     -5067.7516     -394.00849      44860.432      35.532123      35.532123      35.532123      1.2812163      5976.7001      4339.0268      2662.3218    
      4700   4700           306.25296      6739.8363      16234.463      11833.946      3295.1993      8538.7469      1414.9751      2699.4841      2356.2346      218.33963     -573.98399      7489.6314     -5065.9338     -394.81221      44769.109      35.507995      35.507995      35.507995      1.2838298      7289.9277      6643.6695      6285.9117    
      4800   4800           294.61731      5421.5122      15230.772      11685.085      3170.0029      8515.0819      1433.7477      2694.1032      2362.9504      208.60807     -599.08535      7481.1814     -5066.4235     -394.1531       44843.973      35.527777      35.527777      35.527777      1.2816866      5388.6749      3623.7535      7252.1081    
      4900   4900           296.50455      4117.7158      14366.975      11670.781      3190.3091      8480.4723      1384.1561      2758.9314      2389.8265      212.52663     -676.35584      7478.2737     -5066.8862     -393.68624      44897.153      35.541815      35.541815      35.541815      1.2801685      4272.9043      4137.4316      3942.8116    
      5000   5000           305.91709      5313.9607      15214.823      11743.611      3291.5855      8452.0258      1430.8218      2679.4285      2365.0383      200.90999     -643.89179      7485.7933     -5066.0743     -394.62273      44790.606      35.513677      35.513677      35.513677      1.2832137      7339.8486      3557.7944      5044.2393    
      5100   5100           303.32908      3939.7313      14379.609      11807.135      3263.7392      8543.3956      1375.255       2703.5428      2454.965       217.41413     -606.78631      7468.2672     -5069.2623     -394.78493      44772.204      35.508813      35.508813      35.508813      1.2837411      4018.5145      4094.197       3706.4824    
      5200   5200           297.66922      5541.9787      15453.994      11833.307      3202.8406      8630.4659      1457.8131      2727.7098      2424.268       229.24973     -619.56607      7480.2947     -5069.3033     -394.56521      44797.136      35.515403      35.515403      35.515403      1.2830266      6100.8197      6542.9236      3982.1928    
      5300   5300           301.99828      4430.9937      14673.463      11773.019      3249.4201      8523.5986      1384.7838      2757.2757      2430.6065      219.43191     -680.72467      7480.3977     -5068.1724     -393.80532      44883.576      35.538232      35.538232      35.538232      1.2805557      4677.1056      3585.9532      5029.9223    
      5400   5400           293.90158      5240.8345      15082.423      11656.047      3162.3019      8493.7449      1374.9836      2700.9098      2426.7519      215.91623     -629.19572      7471.5721     -5067.193      -394.28503      44828.968      35.523813      35.523813      35.523813      1.2821156      4763.9331      5285.456       5673.1146    
      5500   5500           295.30485      3679.2367      14074.827      11666.602      3177.4007      8489.2012      1371.9145      2745.202       2407.3247      216.05175     -664.24195      7479.2616     -5066.3112     -393.82709      44881.096      35.537577      35.537577      35.537577      1.2806265      2788.551       4180.4951      4068.6641    
      5600   5600           300.22332      5064.994       15043.566      11728.527      3230.3221      8498.2048      1398.2309      2715.5495      2398.4742      213.63831     -652.30917      7490.9366     -5066.3155     -393.85394      44878.035      35.53677       35.53677       35.53677       1.2807138      5460.7178      5331.8965      4402.3678    
      5700   5700           298.64573      4678.8807      14857.903      11791.323      3213.3476      8577.9757      1442.7982      2723.9254      2395.3097      206.62809     -605.61463      7482.1223     -5067.1934     -393.30789      44940.342      35.553208      35.553208      35.553208      1.2789382      6242.6552      5332.8493      2461.1376    
      5800   5800           301.54809      6350.4354      15976.961      11815.331      3244.5762      8570.7547      1407.2754      2706.0223      2420.149       220.35285     -588.81518      7474.6263     -5068.856      -393.35523      44934.934      35.551781      35.551781      35.551781      1.2790921      6245.5086      7222.7969      5583.0007    
      5900   5900           298.74279      2858.1011      13637.995      11762.957      3214.392       8548.5652      1418.2409      2689.246       2460.9162      225.23531     -672.13528      7489.9972     -5062.9351     -392.92756      44983.842      35.564675      35.564675      35.564675      1.2777014      2569.3306      2143.8761      3861.0965    
      6000   6000           292.98136      5604.2668      15323.599      11655.163      3152.4005      8502.7624      1393.1978      2734.2985      2362.478       191.00994     -594.29543      7481.1367     -5065.0631     -393.80637      44883.456      35.5382        35.5382        35.5382        1.2805591      6601.2866      4282.3394      5929.1744    
      6100   6100           295.70839      5545.3874      15296.579      11666.47       3181.7426      8484.7273      1423.1398      2650.1988      2416.7053      205.57255     -622.75086      7479.176      -5067.3142     -393.78319      44886.098      35.538898      35.538898      35.538898      1.2804837      6618.8508      4424.9891      5592.3221    
      6200   6200           300.69307      4104.6625      14424.231      11738.309      3235.3764      8502.9328      1389.9763      2715.4324      2383.3793      203.77834     -597.85981      7474.2366     -5066.0104     -393.93911      44868.333      35.534208      35.534208      35.534208      1.2809907      6799.3287      2125.4904      3389.1684    
      6300   6300           300.18375      6344.2485      15936.194      11780.193      3229.8963      8550.2967      1443.4927      2707.2726      2373.192       206.35267     -597.05939      7482.2052     -5065.1591     -393.50427      44917.914      35.547292      35.547292      35.547292      1.2795768      8501.015       4598.1859      5933.5445    
      6400   6400           299.36992      4477.8611      14707.023      11769.972      3221.1397      8548.8321      1383.2361      2749.4233      2402.2327      210.07024     -615.24867      7484.1424     -5065.0239     -393.01043      44974.357      35.562176      35.562176      35.562176      1.2779709      6515.0461      4089.8477      2828.6896    
      6500   6500           299.62422      4883.1609      14960.011      11757.054      3223.876       8533.1784      1451.8077      2691.9988      2403.2601      204.37759     -644.44866      7493.2296     -5067.0468     -393.00211      44975.309      35.562426      35.562426      35.562426      1.2779438      6203.2734      4488.6504      3957.5588    
      6600   6600           296.56835      4904.0669      14941.508      11720.401      3190.9956      8529.4058      1379.5353      2741.3921      2412.0792      227.92148     -647.32266      7482.7688     -5066.9684     -392.46072      45037.351      35.578771      35.578771      35.578771      1.2761834      5079.2288      4966.8251      4666.1468    
      6700   6700           295.95929      6166.6976      15712.738      11670.375      3184.4423      8485.9326      1405.9952      2760.5726      2328.2677      203.26375     -627.62961      7479.8595     -5064.3965     -393.24416      44947.626      35.555128      35.555128      35.555128      1.2787309      5937.759       6299.7167      6262.6171    
      6800   6800           296.9401       2663.1878      13433.411      11695.85       3194.9955      8500.855       1348.235       2712.7414      2434.2989      207.11538     -620.53072      7482.8381     -5063.843      -395.09978      44736.525      35.499378      35.499378      35.499378      1.2847649      3735.4562      1802.6041      2451.503     
      6900   6900           305.91473      5244.1312      15203.562      11793.509      3291.5601      8501.9486      1394.7766      2725.386       2376.8399      209.80242     -630.51699      7489.9681     -5064.3075     -396.42155      44587.362      35.45988       35.45988       35.45988       1.289063       4020.7184      6891.1755      4820.4998    
      7000   7000           307.23772      5335.4889      15295.449      11820.865      3305.7951      8515.0694      1413.0594      2773.9824      2360.7297      200.25064     -647.3516       7481.1317     -5066.7327     -395.83688      44653.22       35.47733       35.47733       35.47733       1.2871618      5249.7354      6346.9784      4409.7529    
      7100   7100           300.13975      5424.1937      15334.546      11790.019      3229.4229      8560.5966      1435.6354      2785.9358      2345.5773      209.62059     -640.06003      7488.1475     -5064.26       -394.47713      44807.139      35.518046      35.518046      35.518046      1.2827402      5850.9148      5431.5707      4990.0958    
      7200   7200           297.79646      4857.2423      14837.484      11654.453      3204.2097      8450.2437      1379.7225      2744.1936      2355.0895      199.04769     -644.4049       7483.1043     -5066.509      -393.36339      44934.001      35.551536      35.551536      35.551536      1.2791186      4776.2237      4222.2718      5573.2315    
      7300   7300           294.20541      5092.5685      14976.01       11642.805      3165.5709      8477.2342      1381.7159      2715.4005      2382.4928      200.49378     -632.05787      7490.776      -5061.5869     -393.84002      44879.622      35.537188      35.537188      35.537188      1.2806685      5090.0393      6032.1917      4155.4745    
      7400   7400           297.4999       4662.6605      14755.746      11709.032      3201.0188      8508.013       1402.3128      2693.6549      2441.6064      199.86268     -642.80301      7480.2005     -5066.8213     -394.50005      44804.534      35.517358      35.517358      35.517358      1.2828148      4851.267       4500.1334      4636.581     
      7500   7500           298.2724       4718.2055      14846.966      11765.961      3209.3307      8556.6305      1398.6318      2653.2145      2475.9318      215.44702     -603.04184      7480.1823     -5063.7351     -394.75657      44775.42       35.509663      35.509663      35.509663      1.2836489      3291.3486      6476.5447      4386.7233    
      7600   7600           302.29295      4573.0732      14788.067      11794.738      3252.5907      8542.1477      1419.4578      2751.6023      2414.2922      203.71247     -666.35444      7485.1351     -5065.6977     -393.82085      44881.806      35.537765      35.537765      35.537765      1.2806062      2315.7545      5741.3146      5662.1506    
      7700   7700           305.13757      4496.464       14727.91       11788.677      3283.1981      8505.4786      1440.1474      2691.1195      2419.5498      200.62909     -659.9657       7480.7454     -5066.7468     -394.35009      44821.572      35.52186       35.52186       35.52186       1.2823271      3848.9949      4184.1068      5456.2904    
      7800   7800           303.54289      5730.9343      15482.59       11743.456      3266.0398      8477.416       1418.2351      2749.6713      2328.3914      209.21652     -640.57606      7477.1221     -5064.6444     -395.09292      44737.302      35.499584      35.499584      35.499584      1.2847426      5825.4581      6063.1103      5304.2344    
      7900   7900           290.68844      5714.048       15353.368      11632.888      3127.7294      8505.1586      1400.6526      2713.3682      2397.0151      204.18061     -634.41789      7489.6148     -5065.2548     -395.90391      44645.659      35.475327      35.475327      35.475327      1.2873798      6411.0175      4582.1577      6148.9689    
      8000   8000           298.17655      5061.5216      14940.301      11651.15       3208.2994      8442.8505      1347.1656      2715.0152      2420.3675      211.35229     -679.29446      7492.4131     -5064.1687     -396.68177      44558.113      35.452124      35.452124      35.452124      1.2899092      5874.9233      5892.6865      3416.9549    
      8100   8100           300.3398       4771.6404      14803.326      11699.116      3231.5753      8467.5404      1366.0522      2700.7144      2426.9444      204.96383     -656.15658      7487.7413     -5062.7191     -396.24296      44607.458      35.465206      35.465206      35.465206      1.2884823      4682.2173      4613.6485      5019.0554    
      8200   8200           297.11363      2247.6807      13213.092      11745.612      3196.8626      8548.7499      1379.422       2720.5776      2476.4293      205.31349     -659.417        7492.76       -5066.3356     -394.82756      44767.369      35.507535      35.507535      35.507535      1.2838798      2541.3734      2651.0602      1550.6085    
      8300   8300           297.71216      5691.9897      15520.247      11791.673      3203.3026      8588.3703      1449.0872      2788.0996      2345.2247      218.10129     -638.75133      7489.6506     -5063.0418     -393.51948      44916.178      35.546834      35.546834      35.546834      1.2796262      5651.0866      6140.9112      5283.9713    
      8400   8400           304.18418      4998.6833      15083.039      11806.778      3272.9399      8533.8384      1432.397       2724.8685      2382.3488      213.42683     -647.47667      7491.1992     -5062.9251     -393.29829      44941.439      35.553497      35.553497      35.553497      1.278907       6151.4578      4530.5464      4314.0456    
      8500   8500           297.69703      4953.7012      15003.631      11758.807      3203.1398      8555.6673      1442.4541      2686.6606      2426.2226      215.40838     -621.67606      7473.5046     -5066.907      -393.53519      44914.386      35.546362      35.546362      35.546362      1.2796773      7805.5019      3209.9573      3845.6445    
      8600   8600           293.12382      5161.6196      15030.976      11651.167      3153.9334      8497.2333      1381.4887      2709.7951      2415.6082      216.37395     -649.30746      7486.0764     -5062.8015     -393.67583      44898.34       35.542128      35.542128      35.542128      1.2801346      5108.9808      5487.9611      4887.9168    
      8700   8700           294.13052      3846.9739      14198.89       11680.474      3164.7651      8515.7093      1392.9305      2698.2609      2412.3147      200.51847     -606.10482      7481.9257     -5064.1362     -393.76473      44888.203      35.539453      35.539453      35.539453      1.2804237      3237.1237      5619.0672      2684.7308    
      8800   8800           302.04908      3704.4717      14175.047      11754.584      3249.9667      8504.6171      1370.9749      2710.1365      2443.092       206.87618     -638.25947      7477.946      -5066.149      -394.52334      44801.89       35.51666       35.51666       35.51666       1.2828905      3611.9745      5062.9647      2438.4759    
      8900   8900           298.32599      6497.5865      16017.214      11784.343      3209.9073      8574.436       1414.081       2775.1956      2395.6755      203.19378     -625.81246      7480.883      -5068.7804     -395.69627      44669.087      35.481532      35.481532      35.481532      1.2867046      7117.4781      6411.0152      5964.2662    
      9000   9000           295.68912      5391.8254      15306.063      11790.55       3181.5353      8609.0146      1468.9379      2703.0054      2434.1781      211.653       -631.62423      7487.7013     -5064.8368     -395.35938      44707.15       35.491607      35.491607      35.491607      1.2856091      6566.0155      5182.4144      4427.0462    
      9100   9100           301.74573      4275.5229      14557.953      11764.642      3246.7027      8517.9388      1400.9955      2762.6187      2411.1252      210.25039     -679.40479      7479.1985     -5066.8446     -394.56163      44797.542      35.515511      35.515511      35.515511      1.283015       4795.4482      3320.3108      4710.8097    
      9200   9200           297.90872      4263.1364      14450.779      11664.632      3205.4175      8459.2145      1351.4871      2759.1846      2382.4602      210.84607     -659.67035      7482.4935     -5067.5866     -394.43012      44812.479      35.519457      35.519457      35.519457      1.2825874      4842.2013      3864.9451      4082.2626    
      9300   9300           293.75091      3568.3434      13967.251      11634.899      3160.6807      8474.2183      1370.6152      2683.0049      2465.9168      204.792       -673.79061      7489.5194     -5065.8394     -394.38238      44817.903      35.52089       35.52089       35.52089       1.2824321      3587.0076      4753.921       2364.1015    
      9400   9400           296.9068       6027.3952      15672.033      11732.6        3194.6372      8537.9629      1405.901       2791.2407      2361.8493      217.22927     -660.39234      7487.2235     -5065.0885     -394.40359      44815.493      35.520254      35.520254      35.520254      1.2825011      7429.7232      6459.7096      4192.7527    
      9500   9500           305.82192      7381.895       16592.461      11780.13       3290.5614      8489.5686      1466.2284      2677.7502      2317.0805      210.03904     -604.94538      7487.5363     -5064.1203     -395.41876      44700.436      35.48983       35.48983       35.48983       1.2858022      7886.4537      7142.4787      7116.7527    
      9600   9600           299.10907      3871.2186      14324.053      11795.556      3218.3331      8577.2232      1427.9245      2718.8474      2454.4894      207.06528     -657.77535      7491.3045     -5064.6325     -394.66649      44785.64       35.512365      35.512365      35.512365      1.283356       3845.3665      4184.7151      3583.5741    
      9700   9700           310.1642       5771.8837      15566.707      11791.35       3337.2832      8454.0672      1387.5224      2750.254       2346.286       214.24761     -668.18253      7489.1932     -5065.2534     -394.09822      44850.218      35.529426      35.529426      35.529426      1.2815081      5140.8726      6587.9247      5586.8538    
      9800   9800           297.25571      4070.8481      14374.102      11711.835      3198.3914      8513.4437      1358.3728      2763.3373      2382.3847      214.07926     -628.66797      7489.0807     -5065.143      -394.16519      44842.598      35.527413      35.527413      35.527413      1.2817259      2689.4854      7655.7868      1867.2722    
      9900   9900           294.81911      3885.7579      14185.648      11646.985      3172.1742      8474.8108      1372.6853      2724.8355      2380.3983      209.96457     -633.42441      7486.5824     -5066.2308     -394.56231      44797.465      35.51549       35.51549       35.51549       1.2830172      6621.85        3754.7181      1280.7058    
     10000   10000          294.99923      6490.4089      15935.362      11696.309      3174.1123      8522.1964      1409.4072      2733.1246      2358.2527      219.81005     -607.9654       7478.1812     -5068.614      -394.68271      44783.799      35.511878      35.511878      35.511878      1.2834087      7635.5158      5830.8681      6004.8427    
     10100   10100          298.32156      5762.322       15530.521      11753.618      3209.8596      8543.7588      1440.0865      2688.9559      2415.3875      220.1488      -635.37695      7481.5206     -5066.9636     -393.2843       44943.038      35.553919      35.553919      35.553919      1.2788615      5757.3423      5845.1228      5684.5009    
     10200   10200          298.7791       4236.9672      14548.305      11759.234      3214.7826      8544.4511      1405.183       2700.5541      2437.0741      214.28386     -632.28845      7486.1688     -5066.5242     -391.59801      45136.571      35.60488       35.60488       35.60488       1.273378       4991.2359      3527.3279      4192.3378    
     10300   10300          304.86925      5348.4135      15275.997      11751.778      3280.311       8471.4668      1413.8209      2733.9231      2323.1505      192.3215      -605.11869      7480.581      -5067.2116     -391.20735      45181.644      35.616727      35.616727      35.616727      1.2721077      5056.1924      6399.3054      4589.7426    
     10400   10400          301.32408      4367.3242      14632.832      11761.215      3242.166       8519.0488      1359.6895      2768.4103      2432.9022      202.35289     -653.13917      7476.1808     -5067.3477     -392.04316      45085.32       35.591398      35.591398      35.591398      1.2748256      4909.4556      4371.2877      3821.2294    
     10500   10500          303.90824      2726.5956      13559.008      11775.302      3269.9709      8505.3312      1380.2454      2722.8973      2460.8537      205.53842     -671.63519      7474.2942     -5066.8626     -394.04182      44856.638      35.531121      35.531121      35.531121      1.2813247      3221.157       742.05165      4216.5782    
     10600   10600          299.93174      5935.5258      15627.831      11764.015      3227.1848      8536.8306      1435.6077      2738.1881      2361.0988      204.71582     -612.15544      7476.5278     -5067.1522     -395.99324      44635.588      35.47266       35.47266       35.47266       1.2876703      4785.9027      6630.5591      6390.1157    
     10700   10700          298.73675      6430.2235      15925.365      11734.546      3214.327       8520.2186      1443.2044      2770.1611      2308.2254      206.42341     -619.11857      7477.0343     -5065.7113     -395.5233       44688.622      35.486703      35.486703      35.486703      1.2861421      5651.2512      6475.9123      7163.5069    
     10800   10800          297.34788      5383.7177      15229.45       11713.123      3199.3831      8513.7398      1492.802       2711.5356      2335.677       200.42553     -629.72273      7472.5807     -5069.5583     -394.67352      44784.842      35.512154      35.512154      35.512154      1.2833788      5661.6933      5438.4278      5051.0319    
     10900   10900          299.09398      6045.0597      15689.678      11726.397      3218.1707      8508.2266      1446.6224      2740.693       2352.4038      196.91643     -628.385        7471.2294     -5071.2535     -393.17931      44955.039      35.557083      35.557083      35.557083      1.2785201      7058.1095      5186.5837      5890.486     
     11000   11000          310.09563      4172.3801      14551.183      11811.163      3336.5455      8474.6179      1445.9577      2674.3382      2427.1306      208.02779     -700.02518      7484.6197     -5065.4308     -392.53198      45029.175      35.576618      35.576618      35.576618      1.2764151      3998.4708      3643.7908      4874.8788    
     11100   11100          300.90588      5231.9768      15274.791      11841.028      3237.6662      8603.3613      1413.5182      2725.731       2429.5965      204.61268     -574.41395      7470.6184     -5066.3014     -392.77181      45001.679      35.569376      35.569376      35.569376      1.277195       6542.6244      4566.9819      4586.3243    
     11200   11200          296.37684      6049.6503      15774.373      11806.186      3188.935       8617.251       1476.3031      2740.9021      2401.0017      216.23199     -625.33988      7476.6887     -5068.5368     -392.99143      44976.531      35.562749      35.562749      35.562749      1.2779091      6072.1924      6948.3287      5128.4298    
     11300   11300          300.86055      3216.0253      13784.393      11677.413      3237.1785      8440.2341      1395.9724      2711.9423      2402.1778      191.34043     -672.56014      7479.1085     -5067.7473     -393.46292      44922.635      35.548538      35.548538      35.548538      1.2794423      2381.7385      2122.487       5143.8504    
     11400   11400          287.52684      5752.5358      15436.254      11679.525      3093.7113      8585.814       1465.5074      2699.1662      2425.5563      203.08749     -618.45728      7480.065      -5069.111      -394.72486      44779.017      35.510614      35.510614      35.510614      1.2835458      6366.7001      5194.7967      5696.1106    
     11500   11500          296.98723      5140.8477      15107.479      11750.442      3195.5026      8554.9394      1399.2418      2716.3777      2441.7556      218.26324     -629.07726      7475.6983     -5067.32       -394.75126      44776.023      35.509823      35.509823      35.509823      1.2836316      5821.7669      3873.7572      5727.019     
     11600   11600          298.00434      6604.4483      16112.426      11797.126      3206.4464      8590.6791      1492.2009      2705.0865      2390.6913      203.67963     -615.83915      7481.3601     -5066.5002     -394.52128      44802.124      35.516721      35.516721      35.516721      1.2828838      5530.1887      7843.2486      6439.9078    
     11700   11700          300.05581      4224.7721      14560.011      11798.076      3228.5197      8569.5565      1389.0247      2713.3271      2471.8431      213.94716     -631.7874       7479.6685     -5066.4667     -394.3073       44826.437      35.523145      35.523145      35.523145      1.282188       4007.1851      6004.7993      2662.3319    
     11800   11800          298.80192      7442.3252      16603.733      11724.991      3215.0282      8509.9628      1465.0037      2660.9836      2373.0562      215.01838     -620.47681      7484.0456     -5067.6679     -393.22913      44949.343      35.555581      35.555581      35.555581      1.2786821      8207.8367      7241.1186      6878.0202    
     11900   11900          291.80894      3534.3031      13930.9        11607.877      3139.7856      8468.091       1435.3506      2673.8618      2432.913       202.32569     -685.4639       7475.9836     -5066.8798     -392.18882      45068.574      35.586991      35.586991      35.586991      1.2752992      5936.3468      3744.8952      921.66718    
     12000   12000          294.40226      6563.7223      15961.265      11667.286      3167.689       8499.5968      1468.0701      2646.6074      2405.4688      205.49665     -639.10676      7480.2309     -5067.1703     -394.03538      44857.371      35.531314      35.531314      35.531314      1.2813038      8155.339       5825.2434      5710.5843    
     12100   12100          298.74841      7002.0634      16325          11753.686      3214.4525      8539.2337      1469.9392      2723.9175      2329.7766      203.11466     -589.04517      7467.2361     -5065.7051     -394.84796      44765.056      35.506924      35.506924      35.506924      1.2839461      11301.758      3923.0194      5781.4128    
     12200   12200          303.60266      5073.6434      15106.389      11791.976      3266.6829      8525.2928      1457.9566      2648.2328      2453.0957      195.30859     -642.07797      7478.0755     -5065.2985     -394.601        44793.072      35.514329      35.514329      35.514329      1.283143       5036.8065      4887.3114      5296.8125    
     12300   12300          305.63482      3969.8202      14396.937      11801.13       3288.5484      8512.5815      1455.4435      2679.9904      2447.7962      200.0032      -666.46402      7463.9277     -5068.1154     -394.22419      44835.886      35.525641      35.525641      35.525641      1.2819178      2265.4841      4651.9182      4992.0583    
     12400   12400          298.46402      6689.4936      16098.532      11723.643      3211.3924      8512.2505      1427.13        2729.612       2387.9249      204.97666     -641.6035       7471.5346     -5067.3242     -394.15869      44843.338      35.527609      35.527609      35.527609      1.2817047      7492.2991      8310.1228      4266.0589    
     12500   12500          293.94574      3632.2926      14023.103      11647.05       3162.777       8484.2728      1444.2022      2656.8184      2417.9925      204.63592     -646.33788      7473.843      -5066.8812     -394.06662      44853.814      35.530375      35.530375      35.530375      1.2814054      5186.2182      4087.5612      1623.0984    
     12600   12600          297.5906       6607.6701      16004.715      11684.634      3201.9947      8482.6395      1426.4825      2748.5389      2344.6894      206.11509     -647.60984      7472.4297     -5068.0063     -394.27695      44829.887      35.524056      35.524056      35.524056      1.2820893      7798.2898      6008.9885      6015.7319    
     12700   12700          302.58597      5950.7638      15630.429      11743.51       3255.7435      8487.767       1468.535       2739.9759      2283.3819      195.21049     -622.06624      7488.7561     -5066.0262     -394.65013      44787.496      35.512856      35.512856      35.512856      1.2833028      4422.6254      7233.403       6196.2631    
     12800   12800          296.69514      3981.1863      14373.069      11771.784      3192.3597      8579.4245      1453.9568      2693.7168      2421.3272      210.06982     -603.60478      7470.456      -5066.4973     -394.52045      44802.218      35.516746      35.516746      35.516746      1.2828811      4155.6017      5824.2595      1963.6977    
     12900   12900          295.75902      9058.6096      17711.159      11786.529      3182.2874      8604.2413      1545.6239      2770.8858      2245.4572      199.94341     -572.34488      7480.7338     -5066.058      -394.13516      44846.015      35.528316      35.528316      35.528316      1.2816282      8816.4118      8859.9338      9499.4831    
     13000   13000          301.50334      3224.3702      13891.523      11778.095      3244.0947      8533.9998      1416.1152      2716.5995      2444.4614      201.85788     -660.09676      7483.1103     -5068.0476     -393.28033      44943.492      35.554038      35.554038      35.554038      1.2788485      4677.1308      2729.251       2266.7288    
     13100   13100          299.17663      4294.1255      14531.73       11711.916      3219.0599      8492.8558      1444.3132      2712.528       2369.0706      196.39409     -652.94399      7490.6311     -5067.1373     -392.55377      45026.675      35.57596       35.57596       35.57596       1.276486       5069.5261      5132.8033      2680.0472    
     13200   13200          291.77341      6023.4692      15563.763      11613.786      3139.4033      8474.3832      1425.3432      2726.0562      2349.1014      210.07905     -655.94848      7485.8923     -5066.1405     -393.09466      44964.72       35.559635      35.559635      35.559635      1.2782448      5462.1429      6133.6768      6474.5878    
     13300   13300          294.98153      4305.9665      14498.122      11681.513      3173.9219      8507.5914      1455.12        2686.2456      2375.0063      215.67302     -645.06619      7486.2969     -5065.6843     -394.08419      44851.815      35.529847      35.529847      35.529847      1.2814625      4646.0732      5034.6268      3237.1995    
     13400   13400          301.34776      6715.8407      16147.056      11773.676      3242.4207      8531.2548      1476.6893      2727.5339      2320.9673      197.9944      -596.44843      7473.7988     -5069.2805     -395.84764      44652.006      35.477008      35.477008      35.477008      1.2871968      5761.0122      7558.1607      6828.3491    
     13500   13500          299.63138      6221.7147      15831.76       11778.797      3223.9529      8554.8439      1498.5649      2736.5642      2314.0205      208.84699     -609.05311      7473.9289     -5068.0286     -395.71488      44666.987      35.480975      35.480975      35.480975      1.2867651      7185.1111      6188.117       5291.9159    
     13600   13600          299.38781      4357.9146      14601.266      11755.466      3221.3322      8534.1341      1506.4439      2705.3645      2379.1044      206.84482     -672.63867      7478.7573     -5069.742      -394.74742      44776.458      35.509938      35.509938      35.509938      1.2836192      1769.0248      6168.3059      5136.4132    
     13700   13700          300.37622      5741.9777      15449.393      11698.662      3231.9672      8466.695       1459.5117      2727.0853      2317.9434      203.42464     -663.91195      7489.2026     -5066.5606     -394.63043      44789.732      35.513446      35.513446      35.513446      1.2832387      5329.8568      6159.2075      5736.8689    
     13800   13800          293.52273      5779.2753      15423.618      11655.718      3158.2255      8497.493       1437.1562      2762.6985      2306.527       202.83003     -627.77907      7482.7863     -5066.726      -395.38388      44704.38       35.490874      35.490874      35.490874      1.2856888      6830.0634      4811.2444      5696.518     
     13900   13900          297.57479      5426.0313      15242.315      11714.76       3201.8246      8512.935       1413.2968      2711.6433      2373.9214      205.11644     -621.72065      7500.3083     -5069.6305     -396.50928      44577.497      35.457264      35.457264      35.457264      1.2893483      5159.5693      5261.4182      5857.1065    
     14000   14000          301.27429      3620.1452      14169.912      11809.758      3241.6303      8568.1273      1425.0992      2720.3194      2435.5231      200.67081     -638.44659      7493.6012     -5068.6398     -395.39436      44703.195      35.49056       35.49056       35.49056       1.2857228      3694.8775      5850.9189      1314.6393    
     14100   14100          302.97         4439.0525      14730.762      11826.18       3259.8756      8566.3045      1417.8494      2732.1125      2419.8265      204.49605     -631.44932      7490.4569     -5066.9875     -393.95953      44866.008      35.533595      35.533595      35.533595      1.2810571      3966.3178      5047.5355      4303.3043    
     14200   14200          303.79174      4908.9399      15015.001      11796.235      3268.7173      8527.518       1437.6253      2725.9198      2387.8702      201.35074     -638.53749      7481.5008     -5068.2113     -393.13641      44959.945      35.558376      35.558376      35.558376      1.2783805      5324.3459      4463.2446      4939.2292    
     14300   14300          294.4005       5241.7797      15151.571      11709.444      3167.6701      8541.7738      1529.3604      2673.222       2371.6399      207.4625      -660.44709      7487.6176     -5067.0815     -392.55158      45026.926      35.576026      35.576026      35.576026      1.2764788      5281.9723      4646.6596      5796.7074    
     14400   14400          295.58816      5971.2578      15566.366      11647.988      3180.449       8467.539       1443.8902      2668.0053      2367.8884      202.19281     -637.0382       7490.6177     -5068.0171     -392.82979      44995.038      35.567626      35.567626      35.567626      1.2773835      6528.4788      4617.0635      6768.231     
     14500   14500          298.99581      4943.4965      14960.179      11726.426      3217.1144      8509.3118      1427.172       2723.4335      2376.5602      199.50824     -641.74813      7490.7222     -5066.3363     -394.06911      44853.532      35.530301      35.530301      35.530301      1.2814134      6580.8841      5155.4501      3094.1552    
     14600   14600          306.88161      4849.7703      15004.318      11840.073      3301.9635      8538.1095      1376.4451      2687.7197      2453.3126      216.11675     -618.87879      7491.0686     -5067.6745     -395.09001      44737.631      35.499671      35.499671      35.499671      1.2847332      5068.6641      5764.7294      3715.9175    
     14700   14700          300.68429      4544.3133      14773.362      11815.019      3235.2819      8579.7367      1380.6951      2790.6733      2427.5354      200.41883     -637.94333      7485.1434     -5066.786      -395.97212      44637.969      35.473291      35.473291      35.473291      1.2876016      6094.7832      4216.5196      3321.6372    
     14800   14800          298.93567      3832.537       14243.991      11748.969      3216.4673      8532.5013      1422.1259      2728.8565      2437.2947      214.96433     -695.20814      7492.2167     -5067.7487     -395.96501      44638.771      35.473503      35.473503      35.473503      1.2875784      5211.1138      4361.8219      1924.6753    
     14900   14900          304.31375      5847.2188      15515.213      11709.786      3274.334       8435.452       1375.8313      2709.1482      2362.4368      200.71207     -618.10331      7476.3896     -5070.9626     -396.08722      44624.997      35.469854      35.469854      35.469854      1.2879758      5808.3814      5454.6781      6278.597     
     15000   15000          297.33963      6072.194       15684.268      11729.952      3199.2943      8530.6575      1464.4614      2746.0791      2387.8712      202.60988     -688.65926      7487.3025     -5069.0074     -395.83956      44652.918      35.47725       35.47725       35.47725       1.2871705      7431.0869      5912.0309      4873.4642    
     15100   15100          301.35267      4884.248       15019.409      11837.171      3242.4736      8594.6978      1428.5868      2699.0131      2474.3089      223.32709     -650.32037      7487.17       -5067.3878     -395.649        44674.424      35.482945      35.482945      35.482945      1.2865509      7910.9852      3457.9413      3283.8176    
     15200   15200          302.40884      3872.1603      14388.443      11856.734      3253.8377      8602.8961      1453.6806      2733.6755      2402.7836      207.73928     -605.99487      7477.903      -5066.891      -394.26158      44831.634      35.524518      35.524518      35.524518      1.2820393      4170.4049      3458.4995      3987.5767    
     15300   15300          300.80373      5133.6065      15154.968      11792.915      3236.5671      8556.3474      1421.0041      2747.8539      2412.705       212.23409     -654.85498      7487.0448     -5069.6395     -393.60712      44906.177      35.544196      35.544196      35.544196      1.2799112      5640.589       4843.2327      4916.9979    
     15400   15400          296.94191      3351.1958      13934.601      11741.455      3195.0149      8546.4403      1386.0896      2750.8124      2446.5014      206.24869     -665.23339      7490.0594     -5068.0378     -393.89202      44873.698      35.535624      35.535624      35.535624      1.2808376      5296.5373      2726.6488      2030.4014    
     15500   15500          296.68652      5560.6433      15382.316      11748.427      3192.267       8556.1597      1451.0721      2751.6172      2308.6322      194.20319     -557.77295      7477.7243     -5069.3162     -394.45571      44809.571      35.518689      35.518689      35.518689      1.2826706      4822.6003      5512.4442      6346.8856    
     15600   15600          305.60906      5400.5203      15305.234      11779.193      3288.2712      8490.9222      1436.8956      2732.8665      2326.7296      199.00951     -620.6548       7487.0888     -5071.0129     -394.81456      44768.843      35.507925      35.507925      35.507925      1.2838375      6370.2314      6446.6938      3384.6357    
     15700   15700          298.43389      6418.165       15986.43       11800.058      3211.0682      8588.9902      1480.7952      2687.8083      2383.6796      207.73966     -591.89574      7490.5788     -5069.7156     -395.20103      44725.064      35.496347      35.496347      35.496347      1.2850942      6680.1784      7560.3137      5014.0028    
     15800   15800          298.79975      3946.7479      14380.22       11795.38       3215.0048      8580.3756      1424.2101      2752.519       2425.9331      195.52404     -643.91383      7493.0118     -5066.9085     -393.59599      44907.448      35.544531      35.544531      35.544531      1.279875       3855.3197      4932.8196      3052.1043    
     15900   15900          300.98599      5017.9546      15074.949      11782.618      3238.5282      8544.0901      1424.4923      2726.8345      2413.1761      194.06583     -632.1851       7486.8671     -5069.1606     -392.88748      44988.431      35.565885      35.565885      35.565885      1.2775711      6498.0752      4400.4833      4155.3054    
     16000   16000          299.7961       3592.7347      14133.326      11765.83       3225.7253      8540.1046      1423.9767      2771.6723      2423.1517      215.1062      -707.03265      7482.689      -5069.4587     -391.18374      45184.371      35.617444      35.617444      35.617444      1.272031       3412.5607      5924.8429      1440.8006    
     16100   16100          299.00926      7011.4885      16358.141      11757.994      3217.2592      8540.7353      1433.8276      2727.4365      2342.3537      192.25983     -577.96973      7490.4945     -5067.6671     -392.90133      44986.845      35.565467      35.565467      35.565467      1.2776161      5681.5961      9873.4915      5479.378     
     16200   16200          302.25036      4542.8475      14715.038      11743.839      3252.1324      8491.7062      1451.04        2682.231       2413.3651      193.36235     -669.51504      7491.0114     -5069.7885     -394.13162      44846.418      35.528422      35.528422      35.528422      1.2816167      4681.331       4482.9137      4464.2977    
     16300   16300          299.80607      6229.7172      15771.806      11711.604      3225.8326      8485.7713      1443.6781      2737.8252      2304.5724      201.12733     -622.42939      7487.959      -5066.9612     -395.51736      44689.293      35.486881      35.486881      35.486881      1.2861228      6032.868       6542.3743      6113.9092    
     16400   16400          299.60718      4809.617       14821.227      11691.514      3223.6926      8467.821       1399.5544      2714.7749      2354.9118      203.15821     -624.02174      7487.8874     -5068.444      -396.14197      44618.83       35.46822       35.46822       35.46822       1.2881539      6454.9804      3443.9438      4529.9269    
     16500   16500          294.31133      5595.0032      15401.439      11749.803      3166.7106      8583.0922      1491.2641      2752.952       2372.7001      205.22687     -676.38977      7504.3486     -5067.0097     -394.96422      44751.879      35.503439      35.503439      35.503439      1.2843241      6806.6622      7382.4679      2595.8794    
     16600   16600          299.61233      5358.515       15332.977      11825.528      3223.748       8601.7797      1469.6245      2795.046       2327.5815      203.07982     -619.78848      7490.7044     -5064.468      -393.82019      44881.882      35.537785      35.537785      35.537785      1.280604       6099.8561      5997.5481      3978.1408    
     16700   16700          306.81068      4737.6141      14932.24       11826.06       3301.2003      8524.8602      1437.2199      2752.2059      2344.9424      208.68554     -633.86164      7484.4583     -5068.7902     -393.16793      44956.341      35.557426      35.557426      35.557426      1.278483       5039.7592      5925.4533      3247.6299    
     16800   16800          303.38727      3232.695       13874.341      11759.83       3264.3653      8495.4648      1403.6218      2790.7148      2377.0383      198.41869     -702.69266      7493.5924     -5065.2285     -394.09401      44850.697      35.529552      35.529552      35.529552      1.2814944      3534.2025      5533.8286      630.05372    
     16900   16900          298.52023      4955.5803      14940.594      11719.006      3211.9973      8507.0086      1454.0203      2693.782       2391.5588      205.29685     -653.66336      7486.0995     -5070.0856     -396.52394      44575.848      35.456827      35.456827      35.456827      1.289396       5801.6189      5977.0498      3088.072     
     17000   17000          295.6649       4739.9004      14812.815      11742.997      3181.2747      8561.7222      1449.292       2763.2236      2408.5302      198.25729     -665.26118      7476.3845     -5068.7042     -398.0169       44408.645      35.412439      35.412439      35.412439      1.2942507      5415.1264      5276.7724      3527.8023    
     17100   17100          299.00833      5939.8147      15624.933      11783.096      3217.2491      8565.8468      1486.353       2685.0714      2412.7726      211.16761     -630.36724      7472.0077     -5071.1582     -398.54642      44349.643      35.396749      35.396749      35.396749      1.2959725      6159.8098      6365.7289      5293.9053    
     17200   17200          301.21371      4428.1012      14702.179      11819.604      3240.9784      8578.6256      1493.6743      2780.0908      2383.2238      198.2804      -689.7363       7479.8433     -5066.7508     -395.98787      44636.194      35.47282       35.47282       35.47282       1.2876528      6555.263       1984.1085      4744.932     
     17300   17300          302.07738      4962.9732      15130.924      11890.432      3250.2712      8640.1604      1496.7309      2765.6198      2427.8726      222.30367     -686.06114      7483.4061     -5069.7116     -394.79881      44770.63       35.508397      35.508397      35.508397      1.2837862      5665.8254      6011.3523      3211.7417    
     17400   17400          310.61115      2783.2382      13768.181      11950.425      3342.0924      8608.3325      1449.1503      2729.3217      2492.848       194.90514     -679.04545      7487.7888     -5066.6358     -394.69329      44782.598      35.511561      35.511561      35.511561      1.2834431      3237.5322      3424.5923      1687.59      
     17500   17500          301.93715      6200.205       15884.239      11849.243      3248.7624      8600.4803      1449.1613      2741.6737      2409.6598      211.34353     -625.1967       7480.9122     -5067.0735     -396.10271      44623.252      35.469392      35.469392      35.469392      1.2880262      7432.8799      6964.3031      4203.4319    
     17600   17600          301.10742      5323.7916      15239.169      11769.543      3239.8347      8529.7082      1455.2918      2699.3686      2378.3896      205.52463     -616.91602      7475.1624     -5067.1128     -395.53357      44687.461      35.486396      35.486396      35.486396      1.2861755      6229.778       4924.099       4817.4977    
     17700   17700          299.90086      4875.4895      14904.118      11714.997      3226.8524      8488.1443      1469.3454      2743.6512      2332.9533      201.921       -678.70272      7487.3382     -5068.362      -394.08705      44851.49       35.529761      35.529761      35.529761      1.2814718      5175.6882      4569.4772      4881.3029    
     17800   17800          292.25285      5641.9683      15385.814      11697.007      3144.562       8552.4447      1470.0142      2719.4576      2376.7051      216.58546     -643.30546      7483.5376     -5070.5498     -394.2662       44831.109      35.524379      35.524379      35.524379      1.2820543      9262.1382      4916.8675      2746.8991    
     17900   17900          299.74777      3944.5057      14358.614      11782.053      3225.2053      8556.8482      1435.4039      2732.2675      2389.5852      211.53675     -631.83754      7486.537      -5066.6447     -394.63636      44789.058      35.513268      35.513268      35.513268      1.283258       3837.2655      5114.7699      2881.4818    
     18000   18000          303.82707      4172.4098      14568.33       11850.098      3269.0975      8581.001       1408.2707      2743.6465      2451.18        207.99673     -653.83786      7490.7619     -5067.017      -395.68122      44670.787      35.481982      35.481982      35.481982      1.2866556      4941.1056      3958.4396      3617.6843    
     18100   18100          300.94799      4852.5949      14976.141      11815.553      3238.1193      8577.4339      1404.5836      2735.9336      2460.7358      215.12974     -661.09572      7490.085      -5067.9382     -395.77755      44659.914      35.479103      35.479103      35.479103      1.2869689      5088.3695      6087.1836      3382.2315    
     18200   18200          306.13234      3871.9515      14281.767      11753.26       3293.9015      8459.3583      1372.3272      2663.1434      2413.3247      199.52324     -610.08289      7490.2457     -5069.123      -394.73956      44777.349      35.510173      35.510173      35.510173      1.2835936      4020.1115      4242.1524      3353.5907    
     18300   18300          296.82327      6813.4519      16184.703      11718.661      3193.7385      8524.9228      1486.9574      2740.5111      2305.0675      210.31819     -632.08964      7482.9856     -5068.8273     -393.26862      44944.83       35.554391      35.554391      35.554391      1.2788105      9479.4246      6313.5802      4647.3508    
     18400   18400          296.18245      5580.0375      15383.164      11725.057      3186.8434      8538.214       1521.1651      2685.3551      2363.3359      199.36121     -648.11273      7484.8251     -5067.7156     -393.21102      44951.413      35.556127      35.556127      35.556127      1.2786232      3776.7316      7678.1718      5285.209     
     18500   18500          303.19592      4208.3031      14505.539      11753.855      3262.3065      8491.549       1480.8271      2702.6071      2365.9424      202.42058     -678.54749      7484.1921     -5065.8929     -394.23337      44834.843      35.525365      35.525365      35.525365      1.2819476      4454.5961      5264.574       2905.7391    
     18600   18600          303.28105      5149.8676      15147.517      11795.865      3263.2224      8532.6423      1455.7462      2764.3187      2352.8808      203.84464     -658.88072      7486.2341     -5071.5014     -396.07915      44625.907      35.470095      35.470095      35.470095      1.2879496      5964.3462      5159.4081      4325.8485    
     18700   18700          296.01346      5042.4173      15067.358      11791.965      3185.0251      8606.9397      1445.8499      2768.7923      2405.2467      205.22516     -634.49743      7484.1807     -5067.8576     -396.84442      44539.851      35.44728       35.44728       35.44728       1.290438       5919.1165      5734.5046      3473.6309    
     18800   18800          293.10679      4355.4086      14520.847      11689.768      3153.7501      8536.0176      1412.4022      2729.0719      2447.659       204.55881     -676.43632      7488.7063     -5069.9442     -396.57174      44570.477      35.455403      35.455403      35.455403      1.2895514      3392.5552      5197.6034      4476.0672    
     18900   18900          290.26138      5386.343       15174.023      11662.518      3123.1343      8539.3837      1468.058       2763.748       2333.9441      200.4291      -639.94954      7480.3        -5067.1459     -395.40817      44701.634      35.490147      35.490147      35.490147      1.2857677      6486.1449      5560.9191      4111.9652    
     19000   19000          301.62337      5366.5021      15242.319      11731.88       3245.3862      8486.4942      1430.0838      2716.4683      2393.7458      209.28153     -686.87781      7487.8513     -5064.0587     -394.07137      44853.275      35.530233      35.530233      35.530233      1.2814208      5703.0347      6222.5856      4173.886     
     19100   19100          297.79092      4918.6568      15008.891      11787.728      3204.1501      8583.5782      1489.6288      2727.7982      2369.0354      217.44289     -622.02177      7470.8258     -5069.1311     -393.62145      44904.543      35.543765      35.543765      35.543765      1.2799578      6228.3742      5979.1437      2548.4526    
     19200   19200          300.38223      5210.8278      15201.639      11795.249      3232.0319      8563.2172      1453.9256      2728.1622      2444.2782      204.87218     -688.86718      7487.4331     -5066.587      -394.32768      44824.12       35.522533      35.522533      35.522533      1.2822543      4621.4445      6277.4401      4733.5989    
     19300   19300          302.4468       4684.3738      14837.83       11782.349      3254.2462      8528.1029      1426.0255      2715.6304      2401.2789      211.48126     -641.55918      7483.7512     -5068.5052     -395.19995      44725.186      35.496379      35.496379      35.496379      1.2850907      5030.2884      3842.6019      5180.2311    
     19400   19400          301.57586      5837.123       15557.146      11750.568      3244.8751      8505.693       1442.5084      2720.9104      2376.168       209.2813      -657.71414      7483.7847     -5069.2457     -395.28377      44715.701      35.49387       35.49387       35.49387       1.2853632      5603.7683      4428.9547      7478.6459    
     19500   19500          291.9924       6611.1256      15969.587      11656.306      3141.7596      8514.5465      1450.1687      2717.9399      2303.7075      226.68317     -588.44264      7471.8693     -5067.3795     -395.10509      44735.923      35.499219      35.499219      35.499219      1.2847822      6916.3653      7359.8483      5557.1632    
     19600   19600          289.37892      5200.7993      14984.635      11585.638      3113.6392      8471.9991      1428.3228      2677.2313      2417.5956      209.4852      -685.19012      7492.2555     -5067.7014     -394.42484      44813.079      35.519616      35.519616      35.519616      1.2825702      5677.4549      3558.7363      6366.2067    
     19700   19700          301.23942      4629.6053      14694.138      11670.578      3241.2551      8429.323       1352.2059      2672.2638      2415.5374      198.75081     -638.15042      7497.0851     -5068.3696     -394.70287      44781.512      35.511274      35.511274      35.511274      1.2834743      4910.2082      6186.7431      2791.8646    
     19800   19800          300.01781      2443.0515      13322.712      11729.975      3228.1108      8501.8644      1381.3474      2657.6111      2498.5703      207.03345     -657.60216      7481.9209     -5067.0165     -395.3971       44702.885      35.490478      35.490478      35.490478      1.2857317      3426.6135      1181.7308      2720.8101    
     19900   19900          302.85981      4354.166       14630.7        11797.623      3258.69        8538.9331      1401.74        2740.1917      2399.6301      203.96526     -611.11035      7474.5858     -5070.0695     -396.17905      44614.653      35.467113      35.467113      35.467113      1.2882745      4682.8943      4319.1581      4060.4455    
     20000   20000          303.98774      5464.8148      15375.854      11817.805      3270.8262      8546.9788      1455.3796      2724.7648      2406.1551      203.29857     -674.03977      7497.779      -5066.3585     -395.92093      44643.741      35.474819      35.474819      35.474819      1.2874351      4833.9837      4978.7113      6581.7494    
     20100   20100          302.01025      4108.3829      14426.233      11752.184      3249.5489      8502.6354      1447.8228      2656.4085      2394.0378      206.56761     -629.41729      7496.9457     -5069.7297     -396.04675      44629.557      35.471062      35.471062      35.471062      1.2878443      4174.1907      3727.5142      4423.4437    
     20200   20200          295.55265      6571.7333      15943.689      11656.891      3180.0669      8476.8244      1418.8648      2790.0065      2329.4249      194.63486     -689.80538      7502.866      -5069.1673     -395.17715      44727.766      35.497062      35.497062      35.497062      1.2850165      7594.326       6626.3559      5494.5181    
     20300   20300          300.4199       3124.8738      13713.773      11672.337      3232.4372      8439.9001      1384.4606      2683.5346      2470.2755      188.51832     -710.92475      7489.7224     -5065.6865     -394.58594      44794.782      35.514781      35.514781      35.514781      1.2830941      5773.4223      2177.6754      1423.5238    
     20400   20400          298.395        4213.8184      14468.882      11723.984      3210.6499      8513.3343      1396.3394      2747.2433      2427.0048      204.59781     -694.44123      7499.2474     -5066.6573     -395.72594      44665.738      35.480645      35.480645      35.480645      1.286801       6586.1628      5287.7426      767.54977    
     20500   20500          298.39777      6579.9297      16047.972      11778.443      3210.6796      8567.7638      1454.4513      2745.3362      2382.371       195.41828     -629.25929      7485.3465     -5065.9002     -397.27041      44492.091      35.434606      35.434606      35.434606      1.2918233      7933.1132      7596.8022      4209.8736    
     20600   20600          302.55643      5520.1026      15388.401      11802.218      3255.4257      8546.7922      1504.5271      2726.7138      2347.4337      206.09914     -648.65773      7477.8486     -5067.1724     -396.78901      44546.07       35.44893       35.44893       35.44893       1.2902579      7860.6629      4983.4544      3716.1906    
     20700   20700          304.10567      5396.4867      15340.129      11824.601      3272.0951      8552.5061      1458.3186      2774.7654      2377.2605      207.64557     -696.11268      7496.6807     -5066.052      -395.69954      44668.718      35.481434      35.481434      35.481434      1.2867152      6637.9254      5429.6881      4121.8467    
     20800   20800          303.98949      4592.5963      14820.14       11824.534      3270.8451      8553.6888      1469.147       2742.9983      2458.0462      201.06586     -747.68394      7493.9359     -5063.8206     -395.20146      44725.015      35.496334      35.496334      35.496334      1.2850956      6705.5681      4996.7055      2075.5154    
     20900   20900          298.80946      4420.9676      14653.523      11774.944      3215.1093      8559.8347      1376.5319      2697.5901      2500.3188      210.76993     -649.96515      7490.2953     -5065.7062     -395.89871      44646.247      35.475483      35.475483      35.475483      1.2873628      5846.2993      4486.3751      2930.2283    
     21000   21000          297.26634      5858.0208      15526.002      11704.977      3198.5058      8506.4711      1405.0773      2772.6696      2341.0402      202.6029      -633.89257      7484.7592     -5065.7855     -395.19909      44725.283      35.496405      35.496405      35.496405      1.2850879      7198.5341      4528.8622      5846.6661    
     21100   21100          297.26169      2530.8266      13333.776      11679.293      3198.4557      8480.8376      1387.1252      2710.241       2480.3926      195.90928     -713.76923      7490.3152     -5069.3764     -394.31656      44825.384      35.522867      35.522867      35.522867      1.2822181      3696.507       1449.7704      2446.2024    
     21200   21200          300.03611      4643.7112      14798.916      11766.77       3228.3077      8538.4623      1445.9023      2708.7648      2404.5123      211.87709     -654.88999      7490.2502     -5067.9543     -394.78441      44772.262      35.508829      35.508829      35.508829      1.2837394      4522.6497      3861.158       5547.3258    
[...]
    495200   495200         296.9381       5580.803       15370.266      11731.114      3194.974       8536.1404      1470.0312      2717.2734      2398.9712      194.05106     -662.23809      7486.9643     -5068.9127     -395.31335      44712.356      35.492985      35.492985      35.492985      1.2854594      6179.1259      6848.6587      3714.6245    
    495300   495300         300.20535      8115.5162      17080.644      11776.379      3230.1288      8546.2498      1469.0537      2732.1294      2309.6685      201.78555     -586.77778      7489.279      -5068.8886     -394.39903      44816.01       35.52039       35.52039       35.52039       1.2824863      9901.4216      8212.4661      6232.6611    
    495400   495400         302.49075      2984.6676      13722.477      11765.964      3254.719       8511.245       1466.7982      2689.3047      2374.4021      197.90156     -624.74847      7475.8776     -5068.2906     -393.24037      44948.058      35.555243      35.555243      35.555243      1.2787186      1729.5138      4336.9093      2887.5796    
    495500   495500         301.18242      4923.7087      14986.611      11760.235      3240.6417      8519.5935      1399.2951      2765.7908      2383.7105      197.94176     -636.84332      7477.4295     -5067.7309     -393.38907      44931.068      35.550762      35.550762      35.550762      1.2792021      5481.4568      5088.2328      4201.4364    
    495600   495600         296.18252      4110.1674      14423.859      11735.162      3186.8441      8548.3179      1466.6935      2751.4309      2381.1239      201.38431     -675.94163      7491.3414     -5067.7145     -394.06022      44854.543      35.530568      35.530568      35.530568      1.2813845      4188.5814      4767.0509      3374.8701    
    495700   495700         296.66076      4983.2517      14929.788      11687.702      3191.9898      8495.7122      1402.4064      2715.2467      2401.0323      207.67222     -641.15414      7479.59       -5069.0813     -396.21708      44610.372      35.465979      35.465979      35.465979      1.2883981      5356.9744      5272.9273      4319.8534    
    495800   495800         299.61342      6696.2316      15992.897      11651.189      3223.7597      8427.4289      1446.6964      2665.0053      2350.6143      205.7536      -653.59129      7483.2555     -5070.3049     -397.57106      44458.445      35.425671      35.425671      35.425671      1.2928009      7779.6493      6444.1425      5864.9029    
    495900   495900         296.43921      4482.6124      14617.802      11715.271      3189.6061      8525.6653      1383.4848      2720.1328      2480.4564      201.1068      -673.38303      7485.4935     -5071.6259     -398.1066       44398.639      35.409779      35.409779      35.409779      1.2945423      4673.8263      5332.0887      3441.9222    
    496000   496000         301.54793      5110.1001      15117.181      11802.109      3244.5745      8557.535       1460.8292      2704.2612      2401.6988      205.00134     -633.0835       7488.1914     -5069.3633     -397.35751      44482.338      35.432016      35.432016      35.432016      1.2921065      6177.3683      5898.2154      3254.7164    
    496100   496100         296.68789      5203.116       15186.573      11804.085      3192.2818      8611.8034      1463.8037      2751.5121      2408.4231      210.46421     -644.16257      7490.5557     -5068.7927     -396.52643      44575.569      35.456753      35.456753      35.456753      1.289404       4992.004       5893.9562      4723.3878    
    496200   496200         304.62193      3783.1368      14254.655      11789.016      3277.6499      8511.3658      1451.1474      2763.5234      2380.5233      209.50409     -708.1032       7485.3258     -5070.555      -395.5191       44689.097      35.486829      35.486829      35.486829      1.2861284      3740.5776      3280.144       4328.6889    
    496300   496300         293.51011      4608.4769      14716.352      11712.062      3158.0897      8553.9719      1408.2293      2770.3442      2445.5617      208.87492     -697.03891      7489.1653     -5071.1646     -395.4217       44700.104      35.489742      35.489742      35.489742      1.2858117      4949.2931      5610.2069      3265.9305    
    496400   496400         292.86819      6534.6297      15884.178      11639.29       3151.1828      8488.1071      1449.8985      2721.8139      2327.9888      217.75797     -657.38997      7494.5774     -5066.5394     -396.82557      44541.966      35.447841      35.447841      35.447841      1.2903768      7791.9337      7768.9594      4042.996     
    496500   496500         292.58528      4429.0264      14542.542      11667.131      3148.1388      8518.9925      1411.3906      2780.1643      2367.1016      190.05233     -649.33865      7492.9571     -5073.3346     -397.05748      44515.95       35.440939      35.440939      35.440939      1.2911309      5310.8832      2980.7786      4995.4173    
    496600   496600         298.82898      5375.3755      15239.768      11744.79       3215.3193      8529.4704      1450.4117      2786.6364      2341.8469      200.03135     -673.59203      7493.1065     -5068.9703     -396.46901      44582.024      35.458465      35.458465      35.458465      1.2892173      4564.2668      4464.5806      7097.2791    
    496700   496700         303.42197      4468.6488      14662.925      11756.825      3264.7387      8492.0862      1387.8172      2756.2935      2387.8825      206.91177     -653.49409      7480.4442     -5073.7688     -396.379        44592.148      35.461149      35.461149      35.461149      1.2889246      5944.9972      3495.1695      3965.7798    
    496800   496800         300.15065      6366.4537      15895.252      11759.338      3229.5402      8529.7974      1426.8013      2740.0433      2414.3457      218.87697     -682.51766      7481.8409     -5069.5931     -396.79937      44544.907      35.448622      35.448622      35.448622      1.2902916      5401.8045      5963.931       7733.6255    
    496900   496900         300.83968      4874.954       14943.225      11780.671      3236.9539      8543.7175      1428.7859      2752.404       2376.8829      218.22529     -647.19509      7484.7991     -5070.1846     -397.354        44482.731      35.432121      35.432121      35.432121      1.2920951      5897.3841      4223.4253      4504.0525    
    497000   497000         305.96684      4028.733       14398.597      11784.349      3292.1208      8492.228       1422.1494      2714.09        2410.7503      210.32469     -672.85035      7478.9045     -5071.1406     -397.25239      44494.109      35.435141      35.435141      35.435141      1.2917647      5373.343       1998.5617      4714.2943    
    497100   497100         302.10085      7574.985       16670.659      11749.756      3250.5238      8499.2326      1437.4966      2728.1973      2322.9108      207.86024     -611.00507      7485.0187     -5071.2459     -396.80937      44543.785      35.448324      35.448324      35.448324      1.2903241      8162.9973      8177.6442      6384.3135    
    497200   497200         297.6802       3374.8944      13865.946      11662.386      3202.9588      8459.4269      1448.0965      2725.852       2381.2873      203.15345     -705.43359      7479.7237     -5073.2524     -394.80277      44770.181      35.508278      35.508278      35.508278      1.2837991      3371.491       3196.9209      3556.2713    
    497300   497300         292.47614      5399.6104      15178.216      11650.5        3146.9645      8503.5351      1416.1711      2756.3596      2385.1637      211.37595     -676.94112      7483.0089     -5071.6029     -394.56057      44797.662      35.515542      35.515542      35.515542      1.2830116      5070.3794      7136.3568      3992.0949    
    497400   497400         299.31468      5488.4448      15346.615      11771.786      3220.5454      8551.2406      1434.8912      2713.9942      2440.3448      200.05565     -650.2505       7481.7075     -5069.5023     -395.76648      44661.162      35.479433      35.479433      35.479433      1.2869329      5793.2501      5401.3646      5270.7196    
    497500   497500         303.93891      5828.6948      15618.142      11837.781      3270.3008      8567.4806      1410.2649      2751.3989      2417.0258      205.45326     -634.5816       7487.8951     -5069.9758     -397.45046      44471.936      35.429254      35.429254      35.429254      1.2924088      5531.0456      6782.0608      5172.9781    
    497600   497600         294.1083       4309.9958      14596.981      11801.965      3164.5261      8637.4393      1466.4038      2789.4827      2477.2078      206.09551     -725.74173      7494.8498     -5070.8587     -397.50034      44466.354      35.427772      35.427772      35.427772      1.292571       5038.7263      2987.3181      4903.9428    
    497700   497700         298.93217      5854.0713      15551.614      11762.275      3216.4296      8545.8456      1432.9246      2753.2616      2373.1516      210.47028     -645.10142      7489.6852     -5068.5463     -398.23509      44384.314      35.405971      35.405971      35.405971      1.2949602      4787.4223      6352.6756      6422.116     
    497800   497800         295.40873      4126.3861      14348.947      11671.503      3178.5183      8492.9847      1390.8856      2772.1016      2399.4443      212.29553     -702.36738      7489.5587     -5068.9337     -397.27793      44491.249      35.434382      35.434382      35.434382      1.2918477      4703.5999      4307.5624      3367.996     
    497900   497900         290.44428      5358.4666      15116.699      11629.019      3125.1022      8503.9167      1415.2986      2830.1493      2361.6728      194.71528     -713.79944      7485.1246     -5069.2446     -396.04888      44629.317      35.470998      35.470998      35.470998      1.2878512      5597.4029      4924.7727      5553.2243    
    498000   498000         301.86002      3607.6734      14127.817      11777.232      3247.9325      8529.2991      1359.4154      2779.1882      2439.7434      210.89304     -683.29125      7492.1559     -5068.8056     -395.63625      44675.864      35.483326      35.483326      35.483326      1.2865094      3259.8351      3259.2418      4303.9435    
    498100   498100         303.82244      5922.5044      15674.596      11821.744      3269.0476      8552.6964      1471.8801      2758.8334      2349.3367      216.67011     -656.66192      7483.2943     -5070.6563     -396.24888      44606.792      35.46503       35.46503       35.46503       1.2885015      7596.3031      4554.6431      5616.5671    
    498200   498200         299.62755      6860.7699      16266.727      11802.857      3223.9118      8578.9449      1523.7956      2738.9392      2322.6548      209.93908     -638.65953      7490.4068     -5068.1311     -396.19248      44613.141      35.466713      35.466713      35.466713      1.2883181      7632.5638      6542.9309      6406.815     
    498300   498300         298.00866      4839.8753      14889.106      11733.796      3206.4929      8527.3028      1402.8999      2746.2994      2422.8321      203.87211     -673.20693      7492.1097     -5067.5035     -395.40036      44702.517      35.490381      35.490381      35.490381      1.2857423      6310.5023      4640.7651      3568.3585    
    498400   498400         291.24155      4388.4049      14536.262      11677.297      3133.6807      8543.6165      1405.7796      2746.241       2415.8433      208.78743     -649.87547      7486.4326     -5069.5921     -395.67879      44671.061      35.482054      35.482054      35.482054      1.2866477      5249.5004      4161.9956      3753.7188    
    498500   498500         293.80371      5809.8547      15494.374      11714.117      3161.2488      8552.8684      1443.1599      2751.025       2356.8951      208.96478     -623.96984      7486.3652     -5069.5717     -396.17672      44614.917      35.467183      35.467183      35.467183      1.2882669      5971.3197      4530.1374      6928.1069    
    498600   498600         303.33948      3738.8674      14252.451      11814.904      3263.8512      8551.0526      1385.0856      2781.5981      2419.5375      208.23432     -668.00975      7493.3787     -5068.7719     -395.39563      44703.051      35.490522      35.490522      35.490522      1.285727       3116.3584      4884.0615      3216.1823    
    498700   498700         304.09696      4933.4681      15058.027      11836.371      3272.0014      8564.3692      1445.9513      2749.4752      2390.6769      209.39085     -652.98737      7490.8804     -5069.018      -394.74626      44776.59       35.509973      35.509973      35.509973      1.2836154      4659.8227      3933.7875      6206.7941    
    498800   498800         304.20753      5696.944       15520.506      11804.187      3273.1911      8530.9963      1462.0858      2735.2259      2360.0012      208.03488     -654.27495      7490.8045     -5070.8811     -395.16091      44729.605      35.497548      35.497548      35.497548      1.2849637      3604.6676      6400.8042      7085.36      
    498900   498900         299.64619      5911.7589      15596.214      11757.122      3224.1123      8533.0097      1459.3837      2735.2849      2401.7454      187.13816     -662.48682      7485.6347     -5073.6903     -396.94759      44528.274      35.444209      35.444209      35.444209      1.2907735      4683.016       5979.8406      7072.4202    
    499000   499000         297.2482       5284.3987      15146.306      11722.81       3198.3106      8524.4991      1406.3493      2768.5052      2390.7962      199.74925     -662.58648      7489.9409     -5068.2554     -397.89701      44422.026      35.415995      35.415995      35.415995      1.2938608      5221.345       4829.2261      5802.6248    
    499100   499100         299.04979      4859.6501      14891.954      11745.894      3217.6952      8528.1991      1384.3221      2711.1616      2444.8759      210.70553     -637.6998       7485.6996     -5070.8658     -398.18317      44390.101      35.407509      35.407509      35.407509      1.2947914      4455.9752      4116.295       6006.6799    
    499200   499200         302.37348      6984.3494      16376.039      11834.856      3253.4572      8581.3987      1438.9521      2781.1162      2369.1029      201.82058     -650.12525      7505.1427     -5064.6105     -396.4623       44582.779      35.458665      35.458665      35.458665      1.2891955      5848.7502      7844.9985      7259.2996    
    499300   499300         305.51742      4002.1079      14500.716      11880.123      3287.2852      8592.838       1449.5854      2791.3586      2388.352       202.58505     -672.77378      7499.8568     -5066.1263     -393.6717       44898.81       35.542252      35.542252      35.542252      1.2801212      2693.6364      5667.5453      3645.1419    
    499400   499400         306.59022      4976.4064      15086.464      11822.633      3298.8281      8523.8044      1389.0322      2719.9266      2449.1578      207.52346     -672.45703      7497.3744     -5066.7529     -393.03659      44971.363      35.561386      35.561386      35.561386      1.278056       3899.5402      8330.3231      2699.3559    
    499500   499500         306.00782      3630.6931      14130.576      11752.931      3292.5618      8460.3689      1362.0154      2748.3712      2395.3779      206.77746     -672.39604      7488.5835     -5068.3606     -393.62924      44903.654      35.54353       35.54353       35.54353       1.2799831      6245.6374      1920.1435      2726.2985    
    499600   499600         296.64197      5250.6842      15139.163      11718.908      3191.7878      8527.1207      1406.4678      2695.0465      2419.5598      202.47949     -615.19654      7489.9531     -5071.1894     -395.73316      44664.923      35.480429      35.480429      35.480429      1.2868245      5411.033       6130.8546      4210.1649    
    499700   499700         291.72044      4555.1717      14678.912      11721.84       3138.8334      8583.0068      1387.8349      2781.2083      2460.2935      216.13586     -689.01902      7497.2345     -5070.6812     -397.08891      44512.428      35.440004      35.440004      35.440004      1.2912331      5156.3871      7357.2489      1151.8791    
    499800   499800         306.30848      4922.9885      14992.453      11803.739      3295.7967      8507.9419      1367.9014      2742.0783      2408.6202      200.1862      -627.1253       7485.9277     -5069.6465     -397.97719      44413.077      35.413617      35.413617      35.413617      1.2941215      6009.5119      6488.4342      2271.0195    
    499900   499900         304.52345      5671.508       15557.117      11885.362      3276.5904      8608.7714      1477.6946      2718.8117      2429.3215      215.25852     -634.51143      7474.0669     -5071.8704     -398.17116      44391.441      35.407865      35.407865      35.407865      1.2947523      7055.0311      5067.568       4891.9251    
    500000   500000         302.75529      5728.1673      15550.99       11826.753      3257.5654      8569.188       1467.4437      2724.6876      2434.0216      212.34493     -681.14461      7482.6635     -5070.8287     -396.48188      44580.577      35.458081      35.458081      35.458081      1.2892592      5968.8567      5921.7192      5293.9261    
Loop time of 1652.32 on 1 procs for 500000 steps with 4096 atoms

Performance: 26.145 ns/day, 0.918 hours/ns, 302.605 timesteps/s, 1.239 Matom-step/s
100.0% CPU use with 1 MPI tasks x 1 OpenMP threads

MPI task timing breakdown:
Section |  min time  |  avg time  |  max time  |%varavg| %total
---------------------------------------------------------------
Pair    | 584.1      | 584.1      | 584.1      |   0.0 | 35.35
Bond    | 276.62     | 276.62     | 276.62     |   0.0 | 16.74
Kspace  | 412.31     | 412.31     | 412.31     |   0.0 | 24.95
Neigh   | 72.111     | 72.111     | 72.111     |   0.0 |  4.36
Comm    | 11.002     | 11.002     | 11.002     |   0.0 |  0.67
Output  | 4.7957     | 4.7957     | 4.7957     |   0.0 |  0.29
Modify  | 238.56     | 238.56     | 238.56     |   0.0 | 14.44
Other   |            | 52.82      |            |       |  3.20

Nlocal:           4096 ave        4096 max        4096 min
Histogram: 1 0 0 0 0 0 0 0 0 0
Nghost:          14298 ave       14298 max       14298 min
Histogram: 1 0 0 0 0 0 0 0 0 0
Neighs:              0 ave           0 max           0 min
Histogram: 1 0 0 0 0 0 0 0 0 0
FullNghs:  2.39424e+06 ave 2.39424e+06 max 2.39424e+06 min
Histogram: 1 0 0 0 0 0 0 0 0 0

Total # of neighbors = 2394238
Ave neighs/atom = 584.53076
Ave special neighs/atom = 5.6289062
Neighbor list builds = 11672
Dangerous builds = 0

# --- Cleanup ---
unfix npt_fix
unfix shake_fix
undump dump_npt

# --- Write Output ---
write_dump all custom /home/arz2/PolyJarvis/data/PEEK1/lammps/mechanical/bm_series/bm_P5000/bm_P5000_last.dump id type mol x y z xu yu zu vx vy vz modify sort id
write_data /home/arz2/PolyJarvis/data/PEEK1/lammps/mechanical/bm_series/bm_P5000/bm_P5000_out.data
System init for write_data ...
PPPM Kokkos initialization ...
  using 12-bit tables for long-range coulomb
  G vector (1/distance) = 0.31483367
  grid = 30 30 30
  stencil order = 5
  estimated absolute RMS force accuracy = 0.0002588749
  estimated relative force accuracy = 7.7959406e-07
  using double precision cuFFT
  3d grid and FFT values/proc = 50653 27000
Generated 21 of 21 mixed pair_coeff terms from sixthpower/sixthpower mixing rule

print "STAGE COMPLETE: NPT T=300.0->300.0K P=5000.0->5000.0atm steps=500000"
STAGE COMPLETE: NPT T=300.0->300.0K P=5000.0->5000.0atm steps=500000
quit
