units real
atom_style full
boundary p p p

# --- Force Field Styles ---
pair_style lj/class2/coul/long 9.5 9.5
kspace_style pppm 1e-6
dielectric 1.000000
bond_style class2
angle_style class2
dihedral_style class2
improper_style class2
special_bonds lj/coul 0 0 1
pair_modify mix sixthpower tail yes
neighbor 2.0 bin
neigh_modify delay 0 every 1 check yes
neigh_modify one 4000
package gpu 1 neigh no

read_data /home/arz2/PolyJarvis/data/PEEK1/lammps/equil/npt_compress/npt_compress_out.data
Reading data file ...
  orthogonal box = (5.4938119 5.4938119 5.4938119) to (38.831044 38.831044 38.831044)
  1 by 1 by 3 MPI processor grid
  reading atoms ...
  4096 atoms
  reading velocities ...
  4096 velocities
  scanning bonds ...
  3 = max bonds/atom
  scanning angles ...
  3 = max angles/atom
  scanning dihedrals ...
  9 = max dihedrals/atom
  scanning impropers ...
  1 = max impropers/atom
  orthogonal box = (5.4938119 5.4938119 5.4938119) to (38.831044 38.831044 38.831044)
  1 by 1 by 3 MPI processor grid
  reading bonds ...
  4448 bonds
  reading angles ...
  7080 angles
  reading dihedrals ...
  10544 dihedrals
  reading impropers ...
  2280 impropers
Finding 1-2 1-3 1-4 neighbors ...
  special bond factors lj:    0        0        1       
  special bond factors coul:  0        0        1       
     3 = max # of 1-2 neighbors
     6 = max # of 1-3 neighbors
     9 = max # of special neighbors
  special bonds CPU = 0.001 seconds
  read_data CPU = 0.086 seconds
include /home/arz2/PolyJarvis/data/PEEK1/lammps/equil/emc_build.params
# LAMMPS parameters created by EMC v9.4.4, build Jul 31 2025 20:33:44

# Variables

variable	seed		index	-1
variable	ntotal		index	4096
variable	fshape		index	1
variable	output		index	emc_build
variable	field		index	pcff/pcff
variable	location1	index	/home/arz2/emc/field/
variable	nav		index	0.6022141179
variable	temperature	index	300
variable	radius		index	5
variable	nrelax		index	100
variable	weight_nonbond	index	0.0001
variable	weight_bond	index	0.0001
variable	weight_focus	index	1
variable	cutoff		index	9.5
variable	charge_cutoff	index	9.5
variable	kappa		index	4
variable	density1	index	0.66
variable	lprevious	index	0
variable	lphase		index	44.3248558022
variable	f_poly		index	8
variable	chem_repeat	index	*Oc1ccc(Oc2ccc(C(=O)c3ccc(cc3)*)cc2)cc1
variable	chem_cap	index	*[H]
variable	lg_repeat	index	34
variable	lg_cap		index	1
variable	norm_poly	index	100
variable	l_poly		index	512
variable	mg_repeat	index	260.29514
variable	mg_cap		index	0
variable	m_poly		index	3904.4271
variable	n_poly		index	8
variable	mtotal		index	34612.81032
variable	nphase1		index	4096
variable	mphase1		index	34612.81032
variable	vphase1		index	87084.7269122
variable	lbox		index	44.3248558022
variable	lphase1		index	44.3248558022
variable	lxx		index	44.3248558022
variable	lyy		index	44.3248558022
variable	lzz		index	44.3248558022
variable	lzy		index	0
variable	lzx		index	0
variable	lyx		index	0
variable	vtotal		index	87084.7269122
variable	nl_poly		index	8

# Types

variable	type_c_0	index	1
variable	type_cp		index	2
variable	type_hc		index	3
variable	type_ho		index	4
variable	type_o_1	index	5
variable	type_oc		index	6
variable	type_oh		index	7

variable	type_bond_c_0_cp index	1
variable	type_bond_c_0_o_1 index	2
variable	type_bond_cp_cp	index	3
variable	type_bond_cp_hc	index	4
variable	type_bond_cp_oc	index	5
variable	type_bond_cp_oh	index	6
variable	type_bond_ho_oh	index	7

variable	type_angle_c_0_cp_cp index	1
variable	type_angle_cp_c_0_cp index	2
variable	type_angle_cp_c_0_o_1 index	3
variable	type_angle_cp_cp_cp index	4
variable	type_angle_cp_cp_hc index	5
variable	type_angle_cp_cp_oc index	6
variable	type_angle_cp_cp_oh index	7
variable	type_angle_cp_oc_cp index	8
variable	type_angle_cp_oh_ho index	9

# Clusters

variable	n0_poly		index	1
variable	n1_poly		index	8
variable	nl_poly		index	8

# Flags

variable	flag_charged	index	1

# Masses

mass		1    12.01115  # c_0
mass		2    12.01115  # cp
mass		3     1.00797  # hc
mass		4     1.00797  # ho
mass		5    15.99940  # o_1
mass		6    15.99940  # oc
mass		7    15.99940  # oh

# Potentials

pair_modify	mix sixthpower tail yes
special_bonds	lj/coul 0 0 1

# Pair Coeffs

pair_coeff	 1  1    0.12000    3.30800  # c_0,c_0
pair_coeff	 2  2    0.06400    4.01000  # cp,cp
pair_coeff	 3  3    0.02000    2.99500  # hc,hc
pair_coeff	 4  4    0.01300    1.09800  # ho,ho
pair_coeff	 5  5    0.26700    3.30000  # o_1,o_1
pair_coeff	 6  6    0.24000    3.53500  # oc,oc
pair_coeff	 7  7    0.24000    3.53500  # oh,oh

# Bond Coeffs

bond_coeff	1    1.48900  339.35740 -655.72360  670.23620  # c_0,cp
bond_coeff	2    1.21600  823.79480 -1878.79400 2303.53110  # c_0,o_1
bond_coeff	3    1.41700  470.83610 -627.61790 1327.63450  # cp,cp
bond_coeff	4    1.09820  372.82510 -803.45260  894.31730  # cp,hc
bond_coeff	5    1.37680  428.87980 -738.23510 1114.96550  # cp,oc
bond_coeff	6    1.37680  428.87980 -738.23510 1114.96550  # cp,oh
bond_coeff	7    0.96500  532.50620 -1282.90500 2004.76580  # ho,oh

# Angle Coeffs

angle_coeff	1  108.40000   43.95940   -8.39240   -9.33790  # c_0,cp,cp
angle_coeff	2  110.58840   34.62140   -7.09390   -7.40320  # cp,c_0,cp
angle_coeff	3  119.30000   65.10160  -17.97660    0.00000  # cp,c_0,o_1
angle_coeff	4  118.90000   61.02260  -34.99310    0.00000  # cp,cp,cp
angle_coeff	5  117.94000   35.15580  -12.46820    0.00000  # cp,cp,hc
angle_coeff	6  123.42000   73.67810  -21.67870    0.00000  # cp,cp,oc
angle_coeff	7  123.42000   73.67810  -21.67870    0.00000  # cp,cp,oh
angle_coeff	8  109.50000   60.00000    0.00000    0.00000  # cp,oc,cp
angle_coeff	9  108.19000   53.12500   -8.50160    0.00000  # cp,oh,ho

# BondBond Coeffs

angle_coeff	1 bb    0.00000    1.48900    1.41700  # c_0,cp,cp
angle_coeff	2 bb    0.00000    1.48900    1.48900  # cp,c_0,cp
angle_coeff	3 bb    0.00000    1.48900    1.21600  # cp,c_0,o_1
angle_coeff	4 bb   68.28560    1.41700    1.41700  # cp,cp,cp
angle_coeff	5 bb    1.07950    1.41700    1.09820  # cp,cp,hc
angle_coeff	6 bb   48.47540    1.41700    1.37680  # cp,cp,oc
angle_coeff	7 bb   48.47540    1.41700    1.37680  # cp,cp,oh
angle_coeff	8 bb    0.00000    1.37680    1.37680  # cp,oc,cp
angle_coeff	9 bb   20.65770    1.37680    0.96500  # cp,oh,ho

# BondAngle Coeffs

angle_coeff	1 ba    0.00000    0.00000    1.48900    1.41700  # c_0,cp,cp
angle_coeff	2 ba    0.00000    0.00000    1.48900    1.48900  # cp,c_0,cp
angle_coeff	3 ba    0.00000    0.00000    1.48900    1.21600  # cp,c_0,o_1
angle_coeff	4 ba   28.87080   28.87080    1.41700    1.41700  # cp,cp,cp
angle_coeff	5 ba   20.00330   24.21830    1.41700    1.09820  # cp,cp,hc
angle_coeff	6 ba   58.47900  107.68060    1.41700    1.37680  # cp,cp,oc
angle_coeff	7 ba   58.47900  107.68060    1.41700    1.37680  # cp,cp,oh
angle_coeff	8 ba    0.00000    0.00000    1.37680    1.37680  # cp,oc,cp
angle_coeff	9 ba   53.86140   23.92240    1.37680    0.96500  # cp,oh,ho

# Dihedral Coeffs

dihedral_coeff	 1    0.00000    0.00000    4.62820    0.00000    0.00000    0.00000  # c_0,cp,cp,cp
dihedral_coeff	 2    0.00000    0.00000    2.16700    0.00000    0.00000    0.00000  # c_0,cp,cp,hc
dihedral_coeff	 3    0.00000    0.00000    2.50000    0.00000    0.00000    0.00000  # cp,c_0,cp,cp
dihedral_coeff	 4    0.00000    0.00000    0.90630    0.00000    0.00000    0.00000  # cp,cp,c_0,o_1
dihedral_coeff	 5    8.36670    0.00000    1.19320    0.00000    0.00000    0.00000  # cp,cp,cp,cp
dihedral_coeff	 6    0.00000    0.00000    3.96610    0.00000    0.00000    0.00000  # cp,cp,cp,hc
dihedral_coeff	 7    0.00000    0.00000    4.84980    0.00000    0.00000    0.00000  # cp,cp,cp,oc
dihedral_coeff	 8    0.00000    0.00000    4.84980    0.00000    0.00000    0.00000  # cp,cp,cp,oh
dihedral_coeff	 9    0.00000    0.00000    1.80000    0.00000    0.00000    0.00000  # cp,cp,oc,cp
dihedral_coeff	10   -0.69000    0.00000    0.50970    0.00000    0.00950    0.00000  # cp,cp,oh,ho
dihedral_coeff	11    0.00000    0.00000    1.87690    0.00000    0.00000    0.00000  # hc,cp,cp,hc
dihedral_coeff	12    0.00000    0.00000    1.72340    0.00000    0.00000    0.00000  # hc,cp,cp,oc
dihedral_coeff	13    0.00000    0.00000    1.72340    0.00000    0.00000    0.00000  # hc,cp,cp,oh

# MiddleBondTorsion Coeffs

dihedral_coeff	 1 mbt    0.00000    0.00000    0.00000    1.41700  # c_0,cp,cp,cp
dihedral_coeff	 2 mbt    0.00000    0.00000    0.00000    1.41700  # c_0,cp,cp,hc
dihedral_coeff	 3 mbt    0.00000    0.00000    0.00000    1.48900  # cp,c_0,cp,cp
dihedral_coeff	 4 mbt    0.00000    0.00000    0.00000    1.48900  # cp,cp,c_0,o_1
dihedral_coeff	 5 mbt   27.59890   -2.31200    0.00000    1.41700  # cp,cp,cp,cp
dihedral_coeff	 6 mbt    0.00000   -1.15210    0.00000    1.41700  # cp,cp,cp,hc
dihedral_coeff	 7 mbt    0.00000    4.82550    0.00000    1.41700  # cp,cp,cp,oc
dihedral_coeff	 8 mbt    0.00000    4.82550    0.00000    1.41700  # cp,cp,cp,oh
dihedral_coeff	 9 mbt    0.00000    0.00000    0.00000    1.37680  # cp,cp,oc,cp
dihedral_coeff	10 mbt    1.15800    3.26970    3.51320    1.37680  # cp,cp,oh,ho
dihedral_coeff	11 mbt    0.00000    4.82280    0.00000    1.41700  # hc,cp,cp,hc
dihedral_coeff	12 mbt    0.00000    5.54320    0.00000    1.41700  # hc,cp,cp,oc
dihedral_coeff	13 mbt    0.00000    5.54320    0.00000    1.41700  # hc,cp,cp,oh

# EndBondTorsion Coeffs

dihedral_coeff	 1 ebt    0.00000    0.00000    0.00000    0.00000    0.00000    0.00000    1.48900    1.41700  # c_0,cp,cp,cp
dihedral_coeff	 2 ebt    0.00000    0.00000    0.00000    0.00000    0.00000    0.00000    1.48900    1.09820  # c_0,cp,cp,hc
dihedral_coeff	 3 ebt    0.00000    0.00000    0.00000    0.00000    0.00000    0.00000    1.48900    1.41700  # cp,c_0,cp,cp
dihedral_coeff	 4 ebt    0.00000    0.00000    0.00000    0.00000    0.00000    0.00000    1.41700    1.21600  # cp,cp,c_0,o_1
dihedral_coeff	 5 ebt   -0.11850    6.32040    0.00000   -0.11850    6.32040    0.00000    1.41700    1.41700  # cp,cp,cp,cp
dihedral_coeff	 6 ebt    0.00000   -6.89580    0.00000    0.00000   -0.46690    0.00000    1.41700    1.09820  # cp,cp,cp,hc
dihedral_coeff	 7 ebt    0.00000    0.26550    0.00000    0.00000    4.89050    0.00000    1.41700    1.37680  # cp,cp,cp,oc
dihedral_coeff	 8 ebt    0.00000    0.26550    0.00000    0.00000    4.89050    0.00000    1.41700    1.37680  # cp,cp,cp,oh
dihedral_coeff	 9 ebt    0.00000    0.00000    0.00000    0.00000    0.00000    0.00000    1.41700    1.37680  # cp,cp,oc,cp
dihedral_coeff	10 ebt    0.90000   -1.34560    1.19000    3.41320    0.58730   -0.13230    1.41700    0.96500  # cp,cp,oh,ho
dihedral_coeff	11 ebt    0.00000   -0.68900    0.00000    0.00000   -0.68900    0.00000    1.09820    1.09820  # hc,cp,cp,hc
dihedral_coeff	12 ebt    0.00000   -1.58670    0.00000    0.00000    4.26410    0.00000    1.09820    1.37680  # hc,cp,cp,oc
dihedral_coeff	13 ebt    0.00000   -1.58670    0.00000    0.00000    4.26410    0.00000    1.09820    1.37680  # hc,cp,cp,oh

# AngleTorsion Coeffs

dihedral_coeff	 1 at    0.00000    0.00000    0.00000    0.00000    0.00000    0.00000  108.40000  118.90000  # c_0,cp,cp,cp
dihedral_coeff	 2 at    0.00000    0.00000    0.00000    0.00000    0.00000    0.00000  108.40000  117.94000  # c_0,cp,cp,hc
dihedral_coeff	 3 at    0.00000    0.00000    0.00000    0.00000    0.00000    0.00000  110.58840  108.40000  # cp,c_0,cp,cp
dihedral_coeff	 4 at    0.00000    0.00000    0.00000    0.00000    0.00000    0.00000  108.40000  119.30000  # cp,cp,c_0,o_1
dihedral_coeff	 5 at    1.97670    1.02390    0.00000    1.97670    1.02390    0.00000  118.90000  118.90000  # cp,cp,cp,cp
dihedral_coeff	 6 at    0.00000    2.50140    0.00000    0.00000    2.71470    0.00000  118.90000  117.94000  # cp,cp,cp,hc
dihedral_coeff	 7 at    0.00000   10.01550    0.00000    0.00000    1.74040    0.00000  118.90000  123.42000  # cp,cp,cp,oc
dihedral_coeff	 8 at    0.00000   10.01550    0.00000    0.00000    1.74040    0.00000  118.90000  123.42000  # cp,cp,cp,oh
dihedral_coeff	 9 at    0.00000    0.00000    0.00000    0.00000    0.00000    0.00000  123.42000  109.50000  # cp,cp,oc,cp
dihedral_coeff	10 at   -5.13600   -1.01220    0.00000    4.68520    0.02300   -0.59800  123.42000  108.19000  # cp,cp,oh,ho
dihedral_coeff	11 at    0.00000    2.45010    0.00000    0.00000    2.45010    0.00000  117.94000  117.94000  # hc,cp,cp,hc
dihedral_coeff	12 at    0.00000    1.87290    0.00000    0.00000    2.57060    0.00000  117.94000  123.42000  # hc,cp,cp,oc
dihedral_coeff	13 at    0.00000    1.87290    0.00000    0.00000    2.57060    0.00000  117.94000  123.42000  # hc,cp,cp,oh

# AngleAngleTorsion Coeffs

dihedral_coeff	 1 aat    0.00000  108.40000  118.90000  # c_0,cp,cp,cp
dihedral_coeff	 2 aat    0.00000  108.40000  117.94000  # c_0,cp,cp,hc
dihedral_coeff	 3 aat    0.00000  110.58840  108.40000  # cp,c_0,cp,cp
dihedral_coeff	 4 aat    0.00000  108.40000  119.30000  # cp,cp,c_0,o_1
dihedral_coeff	 5 aat    0.00000  118.90000  118.90000  # cp,cp,cp,cp
dihedral_coeff	 6 aat   -4.81410  118.90000  117.94000  # cp,cp,cp,hc
dihedral_coeff	 7 aat  -21.02470  118.90000  123.42000  # cp,cp,cp,oc
dihedral_coeff	 8 aat  -21.02470  118.90000  123.42000  # cp,cp,cp,oh
dihedral_coeff	 9 aat    0.00000  123.42000  109.50000  # cp,cp,oc,cp
dihedral_coeff	10 aat   -4.60720  123.42000  108.19000  # cp,cp,oh,ho
dihedral_coeff	11 aat    0.35980  117.94000  117.94000  # hc,cp,cp,hc
dihedral_coeff	12 aat    4.22960  117.94000  123.42000  # hc,cp,cp,oc
dihedral_coeff	13 aat    4.22960  117.94000  123.42000  # hc,cp,cp,oh

# BondBond13 Coeffs

dihedral_coeff	 1 bb13    0.00000    1.48900    1.41700  # c_0,cp,cp,cp
dihedral_coeff	 2 bb13    0.00000    1.48900    1.09820  # c_0,cp,cp,hc
dihedral_coeff	 3 bb13    0.00000    1.48900    1.41700  # cp,c_0,cp,cp
dihedral_coeff	 4 bb13    0.00000    1.41700    1.21600  # cp,cp,c_0,o_1
dihedral_coeff	 5 bb13   53.00000    1.41700    1.41700  # cp,cp,cp,cp
dihedral_coeff	 6 bb13   -6.27410    1.41700    1.09820  # cp,cp,cp,hc
dihedral_coeff	 7 bb13   -2.24360    1.41700    1.37680  # cp,cp,cp,oc
dihedral_coeff	 8 bb13   -2.24360    1.41700    1.37680  # cp,cp,cp,oh
dihedral_coeff	 9 bb13    0.00000    1.41700    1.37680  # cp,cp,oc,cp
dihedral_coeff	10 bb13    1.15900    1.41700    0.96500  # cp,cp,oh,ho
dihedral_coeff	11 bb13   -1.70770    1.09820    1.09820  # hc,cp,cp,hc
dihedral_coeff	12 bb13    2.05170    1.09820    1.37680  # hc,cp,cp,oc
dihedral_coeff	13 bb13    2.05170    1.09820    1.37680  # hc,cp,cp,oh

# Improper Coeffs

improper_coeff	1   38.79490    0.00000  # c_0,cp,cp,o_1
improper_coeff	2    0.00000    0.00000  # cp,c_0,cp,cp
improper_coeff	3    4.89120    0.00000  # cp,cp,cp,hc
improper_coeff	4   13.04210    0.00000  # cp,cp,cp,oc
improper_coeff	5   13.04210    0.00000  # cp,cp,cp,oh

# AngleAngle Coeffs

improper_coeff	1 aa    0.00000    0.00000    0.00000  110.58840  119.30000  119.30000  # c_0,cp,cp,o_1
improper_coeff	2 aa    0.00000    0.00000    0.00000  108.40000  108.40000  118.90000  # cp,c_0,cp,cp
improper_coeff	3 aa    0.00000    0.00000    0.00000  118.90000  117.94000  117.94000  # cp,cp,cp,hc
improper_coeff	4 aa    0.00000    0.00000    0.00000  118.90000  123.42000  123.42000  # cp,cp,cp,oc
improper_coeff	5 aa    0.00000    0.00000    0.00000  118.90000  123.42000  123.42000  # cp,cp,cp,oh


# --- Thermo Output ---
thermo_style custom step time temp press enthalpy etotal ke pe ebond eangle edihed eimp evdwl ecoul elong etail vol lx ly lz density pxx pyy pzz
thermo_modify flush yes
thermo 1000

# --- Trajectory ---
dump dump_npt all custom 1000 npt_pppm.dump id type mol x y z ix iy iz vx vy vz

# --- Restart Checkpointing ---
restart 10000 npt_1.rst npt_2.rst

# --- Initial Velocities (optional) ---
# Velocities read from data file

# --- SHAKE Constraints ---
# SHAKE disabled

# --- NPT Thermostat + Barostat (Nose-Hoover) ---
# T_damp = 100.0 fs  (heat bath coupling)
# P_damp = 1000.0 fs  (pressure bath coupling, ~10x T_damp typical)
# Ramp: T=850.0->850.0K  P=50000.0->1.0atm
timestep 1.0
fix npt_fix all npt temp 850.0 850.0 100.0 iso 50000.0 1.0 1000.0

run 300000

CITE-CITE-CITE-CITE-CITE-CITE-CITE-CITE-CITE-CITE-CITE-CITE-CITE

Your simulation uses code contributions which should be cited:

- GPU package (short-range, long-range and three-body potentials): doi:10.1016/j.cpc.2010.12.021, doi:10.1016/j.cpc.2011.10.012, doi:10.1016/j.cpc.2013.08.002, doi:10.1016/j.commatsci.2014.10.068, doi:10.1016/j.cpc.2016.10.020, doi:10.3233/APC200086

@Article{Brown11,
 author = {W. M. Brown and P. Wang and S. J. Plimpton and A. N. Tharrington},
 title = {Implementing Molecular Dynamics on Hybrid High Performance Computers---Short Range Forces},
 journal = {Comput.\ Phys.\ Commun.},
 year =    2011,
 volume =  182,
 pages =   {898--911},
 doi =     {10.1016/j.cpc.2010.12.021}
}

@Article{Brown12,
 author = {W. M. Brown and A. Kohlmeyer and S. J. Plimpton and A. N. Tharrington},
 title = {Implementing Molecular Dynamics on Hybrid High Performance Computers - Particle-Particle Particle-Mesh},
 journal = {Comput.\ Phys.\ Commun.},
 year =    2012,
 volume =  183,
 doi =     {10.1016/j.cpc.2011.10.012},
 pages =   {449--459}
}

@Article{Brown13,
 author = {W. M. Brown and Y. Masako},
 title = {Implementing Molecular Dynamics on Hybrid High Performance Computers---Three-Body Potentials},
 journal = {Comput.\ Phys.\ Commun.},
 year =    2013,
 volume =  184,
 pages =   {2785--2793},
 doi =     {10.1016/j.cpc.2013.08.002},
}

@Article{Trung15,
 author = {T. D. Nguyen and S. J. Plimpton},
 title = {Accelerating Dissipative Particle Dynamics Simulations for Soft Matter Systems},
 journal = {Comput.\ Mater.\ Sci.},
 year =    2015,
 doi =     {10.1016/j.commatsci.2014.10.068},
 volume =  100,
 pages =   {173--180}
}

@Article{Trung17,
 author = {T. D. Nguyen},
 title = {{GPU}-Accelerated {T}ersoff Potentials for Massively Parallel
    Molecular Dynamics Simulations},
 journal = {Comput.\ Phys.\ Commun.},
 year =    2017,
 doi =     {10.1016/j.cpc.2016.10.020},
 volume =  212,
 pages =   {113--122}
}

@inproceedings{Nikolskiy19,
 author = {V. Nikolskiy and V. Stegailov},
 title = {{GPU} Acceleration of Four-Site Water Models in {LAMMPS}},
 booktitle = {Proceedings of the International Conference on Parallel
    Computing (ParCo 2019), Prague, Czech Republic},
 doi =     {10.3233/APC200086},
 year =    2019
}

CITE-CITE-CITE-CITE-CITE-CITE-CITE-CITE-CITE-CITE-CITE-CITE-CITE

PPPM initialization ...
  using 12-bit tables for long-range coulomb
  G vector (1/distance) = 0.31090504
  grid = 27 27 27
  stencil order = 5
  estimated absolute RMS force accuracy = 0.00034853022
  estimated relative force accuracy = 1.0495884e-06
  using double precision KISS FFT
  3d grid and FFT values/proc = 18496 6561
Generated 21 of 21 mixed pair_coeff terms from sixthpower/sixthpower mixing rule
Neighbor list info ...
  update: every = 1 steps, delay = 0 steps, check = yes
  max neighbors/atom: 4000, page size: 100000
  master list distance cutoff = 11.5
  ghost atom cutoff = 11.5
  binsize = 5.75, bins = 6 6 6
  1 neighbor lists, perpetual/occasional/extra = 1 0 0
  (1) pair lj/class2/coul/long/gpu, perpetual
      attributes: full, newton on
      pair build: full/bin
      stencil: full/bin/3d
      bin: standard
Per MPI rank memory allocation (min/avg/max) = 18.22 | 18.36 | 18.62 Mbytes
   Step          Time           Temp          Press         Enthalpy        TotEng         KinEng         PotEng         E_bond        E_angle        E_dihed        E_impro         E_vdwl         E_coul         E_long         E_tail         Volume           Lx             Ly             Lz          Density          Pxx            Pyy            Pzz      
         0   0              852.17587      43865.214      51380.433      27678.446      10402.014      17276.432      4297.7975      4114.0385      4628.1912      600.30359      1172.1926      7495.2953     -5031.3867     -477.06815      37050.034      33.337232      33.337232      33.337232      1.5513054      49435.075      42074.438      40086.128    
      1000   1000           854.34146      51152.681      55671.398      28142.265      10428.448      17713.817      4483.6389      4392.349       4504.5157      587.02317      1260.4136      7514.6583     -5028.7822     -478.98375      36901.86       33.292731      33.292731      33.292731      1.5575345      53368.464      52122.885      47966.693    
      2000   2000           846.11405      53008.175      56557.693      28022.979      10328.021      17694.958      4588.9586      4378.6141      4357.5444      549.40849      1354.2925      7494.8017     -5028.6621     -478.86627      36910.913      33.295453      33.295453      33.295453      1.5571524      52079.343      56297.167      50648.014    
      3000   3000           838.03361      51111.537      55159.996      27674.137      10229.388      17444.749      4417.962       4267.0177      4434.6784      607.55622      1267.4822      7479.1345     -5029.0816     -479.35201      36873.51       33.284203      33.284203      33.284203      1.5587319      51225.944      52754.748      49353.918    
      4000   4000           851.09291      50703.652      55065.571      27708.907      10388.795      17320.112      4310.4238      4383.6516      4316.8966      592.60407      1236.8239      7509.4703     -5029.7579     -477.77237      36995.423      33.320845      33.320845      33.320845      1.5535954      45076.315      54214.879      52819.763    
      5000   5000           855.83156      53371.024      56696.243      27985.938      10446.637      17539.301      4539.564       4305.6964      4319.2925      557.40821      1371.1338      7473.9224     -5027.7159     -479.19543      36885.559      33.287828      33.287828      33.287828      1.5582228      47290.834      60136.806      52685.431    
      6000   6000           837.3435       52298.269      56059.892      28029.843      10220.964      17808.879      4570.3361      4337.2914      4431.4095      560.02499      1416.9945      7520.8404     -5028.0176     -480.95937      36750.279      33.247083      33.247083      33.247083      1.5639587      52492.031      51899.63       52503.145    
      7000   7000           848.27856      49850.614      54758.239      27942.978      10354.442      17588.536      4475.4113      4285.5115      4531.1398      587.12423      1235.5935      7507.6576     -5033.9021     -479.21832      36883.797      33.287298      33.287298      33.287298      1.5582972      51208.107      52121.618      46222.116    
      8000   8000           848.80686      45546.685      52175.479      27590.607      10360.891      17229.716      4295.6815      4291.371       4458.9771      579.20389      1154.859       7475.9121     -5026.2885     -477.56637      37011.382      33.325635      33.325635      33.325635      1.5529255      44177.726      48861.172      43601.155    
      9000   9000           846.23101      47590.948      53474.308      27797.051      10329.449      17467.602      4236.8329      4363.1694      4544.9704      603.25579      1244.0654      7505.5461     -5030.2377     -477.77196      36995.455      33.320854      33.320854      33.320854      1.553594       47771.562      50093.687      44907.596    
     10000   10000          866.89063      44326.115      51922.478      27806.898      10581.629      17225.27       4511.3575      4132.0825      4503.9257      571.81445      1048.5595      7488.0612     -5030.5313     -473.81291      37304.58       33.413404      33.413404      33.413404      1.5407202      46769.341      40769.282      45439.723    
     11000   11000          837.39167      53064.608      56170.497      27625.231      10221.552      17403.679      4389.7286      4188.2516      4401.7852      598.73884      1370.6517      7486.4008     -5031.8775     -479.19889      36885.293      33.287748      33.287748      33.287748      1.558234       53193.109      52477.195      53523.521    
     12000   12000          843.55614      48096.724      53626.575      27652.824      10296.798      17356.026      4452.418       4210.4214      4397.1089      569.9193       1236.2678      7509.8021     -5019.9113     -477.33772      37029.111      33.330955      33.330955      33.330955      1.552182       48070.001      50516.056      45704.115    
     13000   13000          853.86805      46860.755      53154.112      27804.231      10422.67       17381.561      4467.511       4249.5357      4489.1829      582.74743      1141.6556      7481.5571     -5030.6285     -476.51687      37092.897      33.350083      33.350083      33.350083      1.5495128      48133.399      45886.341      46562.525    
     14000   14000          846.6457       49089.358      54380.548      27912.932      10334.511      17578.422      4306.683       4245.3672      4659.8177      583.6515       1337.5222      7476.1995     -5030.8195     -478.09859      36970.181      33.313264      33.313264      33.313264      1.5546561      50388.867      49256.737      47622.47     
     15000   15000          850.50798      45339.614      52252.455      27613.763      10381.655      17232.108      4294.6652      4243.8858      4545.3647      555.65462      1143.7418      7480.3817     -5031.5858     -474.35676      37261.809      33.400629      33.400629      33.400629      1.5424887      47401.836      48766.824      39850.183    
     16000   16000          860.86248      48753.451      54221.541      27867.714      10508.047      17359.668      4405.8232      4375.4186      4408.8847      573.05074      1146.346       7477.7163     -5027.5718     -476.87725      37064.865      33.34168       33.34168       33.34168       1.5506847      48059.906      51352.458      46847.989    
     17000   17000          856.8804       43508.426      51470.443      27965.665      10459.44       17506.225      4516.1631      4330.1533      4459.1305      565.37223      1142.1526      7518.5005     -5025.247      -477.15793      37043.063      33.335141      33.335141      33.335141      1.5515974      41875.728      43068.709      45580.841    
     18000   18000          843.27547      45747.318      52593.409      27748.196      10293.372      17454.823      4440.0508      4321.373       4542.8598      571.95882      1115.1119      7495.0809     -5031.6118     -474.64383      37239.273      33.393894      33.393894      33.393894      1.5434221      48394.052      41193.393      47654.509    
     19000   19000          865.67156      52059.171      56280.128      28161.571      10566.748      17594.823      4481.6805      4380.807       4493.5346      609.00423      1148.307       7508.0805     -5026.5913     -477.25351      37035.644      33.332915      33.332915      33.332915      1.5519082      53364.033      51427.85       51385.63     
     20000   20000          851.23765      47503.338      53662.721      27937.221      10390.562      17546.659      4627.8584      4245.9719      4506.687       589.75901      1119.9966      7485.6792     -5029.2926     -475.99812      37133.322      33.362194      33.362194      33.362194      1.5478259      44115.74       53291.8        45102.473    
     21000   21000          847.0706       43226.756      51086.947      27636.322      10339.697      17296.625      4369.9639      4235.9841      4624.0969      560.10779      1011.9324      7523.5158     -5028.9761     -475.16357      37198.541      33.381714      33.381714      33.381714      1.5451122      43818.895      46876.876      38984.496    
     22000   22000          837.11504      46144.569      52655.635      27613.295      10218.175      17395.12       4340.6777      4379.9298      4493.7478      598.7626       1122.3012      7488.9691     -5029.2682     -474.99673      37211.606      33.385622      33.385622      33.385622      1.5445697      48790.954      45348.469      44294.284    
     23000   23000          862.33106      43962.311      51820.786      28042.099      10525.973      17516.127      4411.3614      4264.9193      4642.4337      628.84877      1111.1251      7483.557      -5026.1186     -476.58194      37087.833      33.348565      33.348565      33.348565      1.5497244      40879.954      45165.95       45841.029    
     24000   24000          857.79247      46432.899      53035.284      27763.951      10470.573      17293.378      4349.1596      4460.5594      4341.1027      573.17218      1104.1265      7497.7344     -5032.4766     -473.63366      37318.697      33.417618      33.417618      33.417618      1.5401373      47292.362      46010.495      45995.84     
     25000   25000          847.49346      46138.132      52892.457      27786.976      10344.859      17442.117      4485.394       4206.3765      4574.5314      604.34066      1120.7785      7480.5291     -5029.8332     -473.73599      37310.636      33.415212      33.415212      33.415212      1.5404701      46402.019      45180.909      46831.468    
     26000   26000          857.01729      47675.327      53934.641      28061.651      10461.11       17600.54       4509.5066      4439.4357      4479.3584      548.72842      1135.4075      7513.8347     -5025.7311     -474.99823      37211.489      33.385587      33.385587      33.385587      1.5445745      46377.95       43844.565      52803.466    
     27000   27000          850.40856      46902.143      53367.083      27835.365      10380.442      17454.924      4442.1112      4287.3633      4545.8311      587.99777      1127.452       7492.5569     -5028.3884     -473.541        37325.999      33.419798      33.419798      33.419798      1.539836       47786.749      48427.228      44492.453    
     28000   28000          839.14753      45042.639      52273.282      27722.405      10242.985      17479.42       4401.1192      4158.9154      4785.7044      627.95417      1029.7874      7507.6495     -5031.7097     -472.9353       37373.804      33.434059      33.434059      33.434059      1.5378664      45458.303      43210.537      46459.076    
     29000   29000          836.71837      45416.611      52175.671      27435.048      10213.333      17221.714      4376.442       4298.4139      4504.1559      570.58792      997.52998      7507.7531     -5033.1688     -473.20466      37352.53       33.427714      33.427714      33.427714      1.5387423      47425.627      45073.208      43750.999    
     30000   30000          857.17567      49091.422      54395.384      27847.574      10463.044      17384.53       4479.7036      4288.8976      4469.8713      577.59308      1108.1097      7490.3086     -5029.9539     -476.6744       37080.638      33.346409      33.346409      33.346409      1.5500251      51226.958      49966.846      46080.46     
     31000   31000          858.00476      44731.525      52214.729      27700.454      10473.164      17227.29       4434.6728      4319.9765      4453.9795      575.94771      965.55864      7503.1141     -5025.959      -470.36996      37577.636      33.49473       33.49473       33.49473       1.5295246      46506.379      46846.891      40841.304    
     32000   32000          863.77185      46600.469      53218.843      27808.523      10543.56       17264.964      4349.9743      4260.2884      4466.4198      592.57064      1109.2779      7510.4341     -5024.0015     -472.74297      37389.009      33.438592      33.438592      33.438592      1.537241       44863.554      48189.838      46748.014    
     33000   33000          837.19183      44409.77       51669.256      27386.813      10219.113      17167.701      4542.0894      4294.7929      4294.1172      557.67195      1014.0572      7495.6285     -5030.6566     -471.44505      37491.944      33.46925       33.46925       33.46925       1.5330205      44518.373      44981.481      43729.457    
     34000   34000          848.8095       43267.816      51337.483      27719.321      10360.923      17358.398      4468.1718      4293.3236      4452.2766      586.72186      1093.2497      7498.2476     -5033.593      -472.24112      37428.742      33.450433      33.450433      33.450433      1.5356091      42951.394      41024.289      45827.764    
     35000   35000          866.79668      45046.136      52472.839      27931.086      10580.482      17350.604      4474.0055      4231.7895      4541.1869      577.53289      1064.7157      7490.6666     -5029.2928     -473.14788      37357.012      33.429051      33.429051      33.429051      1.5385577      43698.654      44662.579      46777.176    
     36000   36000          860.80166      42594.619      51018.861      27771.511      10507.304      17264.207      4286.1148      4420.7647      4510.6453      578.03786      996.0946       7501.0729     -5028.523      -472.309        37423.363      33.448831      33.448831      33.448831      1.5358299      43702.96       40998.948      43081.948    
     37000   37000          825.14939      46050.658      52624.644      27604.066      10072.118      17531.948      4325.8431      4413.9239      4539.8161      625.38751      1142.3453      7512.7433     -5028.1112     -474.44232      37255.09       33.398621      33.398621      33.398621      1.5427669      42080.763      50319.172      45752.04     
     38000   38000          860.12929      41036.895      50273.696      27791.186      10499.097      17292.09       4419.5029      4365.5089      4557.3311      592.19452      904.28367      7484.1695     -5030.901      -470.51626      37565.952      33.491258      33.491258      33.491258      1.5300003      38876.977      40396.226      43837.482    
     39000   39000          873.23833      46059.949      53118.621      27951.407      10659.111      17292.296      4540.9542      4285.96        4327.7764      584.17226      1063.7724      7519.1933     -5029.5328     -471.77317      37465.868      33.461489      33.461489      33.461489      1.5340875      45889.568      46665.677      45624.603    
     40000   40000          850.68305      41110.854      50196.558      27730.672      10383.792      17346.88       4388.0083      4349.1148      4577.7734      608.1154       946.17752      7506.5167     -5028.8263     -471.71304      37470.644      33.462911      33.462911      33.462911      1.5338919      41230.502      42251.092      39850.97     
     41000   41000          843.05997      39814.461      49024.858      27135.825      10290.742      16845.083      4243.9302      4080.0126      4516.1864      569.40164      981.15522      7488.778      -5034.381      -468.87728      37697.265      33.530236      33.530236      33.530236      1.5246708      42258.63       37862.505      39322.248    
     42000   42000          858.77824      43417.433      51640.605      27854.178      10482.605      17371.573      4436.3539      4275.2767      4605.6297      613.60685      979.62535      7489.7621     -5028.682      -470.52193      37565.499      33.491124      33.491124      33.491124      1.5300188      42280.441      42998.883      44972.976    
     43000   43000          859.22323      46000.522      52819.976      27750.029      10488.037      17261.992      4304.7956      4418.173       4386.9729      629.12451      1053.2347      7500.7728     -5031.0813     -472.99251      37369.283      33.432711      33.432711      33.432711      1.5380525      44383.412      48215.144      45403.009    
     44000   44000          835.05525      43842.423      51272.688      27170.824      10193.033      16977.791      4244.4255      4329.0694      4420.9231      583.27867      926.61954      7506.4494     -5032.9742     -468.9093       37694.691      33.529473      33.529473      33.529473      1.5247749      46057.837      42229.144      43240.288    
     45000   45000          854.49593      40995.321      50098.991      27669.712      10430.334      17239.378      4436.5736      4256.6217      4466.2151      577.05065      1021.9327      7515.0895     -5034.105      -471.15512      37515.015      33.476114      33.476114      33.476114      1.5320777      39537.495      40722.238      42726.231    
     46000   46000          851.28853      42081.71       50623.313      27572.511      10391.183      17181.328      4289.7155      4304.6015      4589.1359      612.75079      930.14267      7487.6451     -5032.6637     -470.60036      37559.239      33.489263      33.489263      33.489263      1.5302738      41802.333      42243.028      42199.77     
     47000   47000          851.32198      42163.955      50889.403      27723.995      10391.591      17332.404      4389.9936      4377.8896      4537.918       619.80269      916.56716      7515.9558     -5025.723      -469.18736      37672.352      33.522848      33.522848      33.522848      1.5256791      42952.739      42375.984      41163.141    
     48000   48000          835.12072      43227.966      51201.128      27409.924      10193.832      17216.092      4492.2331      4214.7945      4522.2881      636.87995      887.81543      7491.345      -5029.2643     -468.37456      37737.727      33.542228      33.542228      33.542228      1.5230361      45710.598      38231.047      45742.252    
     49000   49000          844.68703      44467.584      51875.692      27581.345      10310.602      17270.743      4494.9391      4326.9959      4471.4853      550.53952      964.78963      7492.5729     -5030.5795     -471.82747      37461.556      33.460205      33.460205      33.460205      1.5342641      45362.651      43265.842      44774.259    
     50000   50000          865.61148      43547.323      51675.174      27708.158      10566.015      17142.143      4571.4997      4365.7446      4362.3901      590.81044      775.78509      7504.715      -5028.802      -468.37362      37737.802      33.542251      33.542251      33.542251      1.523033       45202.587      43411.038      42028.345    
     51000   51000          855.46         40751.399      50168.954      27813.832      10442.102      17371.731      4463.8751      4415.8773      4509.4192      590.31596      942.7548       7485.9274     -5036.4391     -469.90535      37614.79       33.505766      33.505766      33.505766      1.5280138      38724.012      40002.488      43527.696    
     52000   52000          834.95772      43053.029      51072.499      27308.48       10191.842      17116.638      4424.0151      4309.4274      4448.1048      583.55461      896.10839      7482.6107     -5027.1829     -467.01276      37847.769      33.5748        33.5748        33.5748        1.5186078      40818.689      44574.809      43765.588    
     53000   53000          853.94884      41420.918      50471.206      27702.312      10423.656      17278.657      4405.3283      4302.0694      4485.9983      640.96018      983.55772      7491.5187     -5030.776      -468.94587      37691.752      33.528602      33.528602      33.528602      1.5248938      46307.189      36056.437      41899.127    
     54000   54000          854.54078      42930.625      51071.833      27374.825      10430.881      16943.944      4384.6183      4245.2728      4428.602       552.89164      851.2917       7510.4411     -5029.1734     -467.00187      37848.652      33.575061      33.575061      33.575061      1.5185724      41511.978      45130.924      42148.973    
     55000   55000          851.18483      40085.491      49561.195      27446.168      10389.917      17056.251      4387.843       4373.4263      4442.1642      563.94424      818.62092      7502.4913     -5032.2392     -467.24498      37828.959      33.569236      33.569236      33.569236      1.519363       39837.738      41073.95       39344.784    
     56000   56000          860.41151      40521.655      50142.456      27794.831      10502.542      17292.289      4573.208       4340.763       4430.238       595.8411       877.38526      7503.769      -5028.9151     -467.41293      37815.366      33.565215      33.565215      33.565215      1.5199091      46465.427      35069.887      40029.652    
     57000   57000          847.01822      42068.234      50658.996      27494.644      10339.058      17155.586      4369.1895      4265.9471      4520.4506      592.04948      940.01823      7498.7244     -5030.7933     -468.14355      37756.349      33.547745      33.547745      33.547745      1.5222849      40281.822      46621.372      39301.509    
     58000   58000          861.18654      42575.491      51143.288      27646.949      10512.002      17134.946      4511.4516      4314.8636      4423.4803      592.45918      812.92899      7506.5923     -5026.8296     -467.09411      37841.178      33.57285       33.57285       33.57285       1.5188724      45039.604      39408.571      43278.298    
     59000   59000          846.983        41293.764      50204.051      27358.935      10338.628      17020.308      4449.8982      4307.1241      4426.5022      580.10145      797.69989      7489.5951     -5030.6133     -465.94648      37934.381      33.600391      33.600391      33.600391      1.5151406      41518.521      41816.479      40546.292    
     60000   60000          849.18263      38004.173      48545.052      27597.979      10365.477      17232.502      4584.5576      4243.8203      4511.4159      570.43632      872.70313      7480.7088     -5031.1401     -467.68438      37793.418      33.55872       33.55872       33.55872       1.5207918      39420.158      34431.926      40160.435    
     61000   61000          843.75412      35899.546      47267.835      27236.984      10299.215      16937.77       4297.6985      4285.0668      4581.2537      575.31478      737.02423      7488.7172     -5027.3056     -461.99204      38259.081      33.695987      33.695987      33.695987      1.5022817      38703.52       35345.081      33650.038    
     62000   62000          859.61248      39363.043      49609.535      27856.843      10492.789      17364.055      4545.9856      4364.4379      4447.2153      609.94571      913.42267      7513.6433     -5030.5959     -466.46664      37892.08       33.587897      33.587897      33.587897      1.516832       38596.403      39112.42       40380.307    
     63000   63000          849.35667      40154.343      49740.907      27351.063      10367.602      16983.461      4393.7608      4395.0233      4373           582.80853      740.6264       7517.595      -5019.3525     -462.30265      38233.376      33.688439      33.688439      33.688439      1.5032917      38629.01       42510.674      39323.346    
     64000   64000          832.80283      39388.332      49079.03       27269.453      10165.539      17103.914      4477.8514      4302.0116      4516.7605      574.75758      762.52636      7498.2132     -5028.2063     -465.54887      37966.779      33.609954      33.609954      33.609954      1.5138476      40677.692      39506.804      37980.5      
     65000   65000          859.84845      35831.831      47496.974      27576.014      10495.669      17080.345      4393.0353      4255.3544      4602.4521      597.70502      754.9104       7503.0016     -5026.1141     -463.6643       38121.096      33.655429      33.655429      33.655429      1.5077195      35392.359      36406.352      35696.78     
     66000   66000          854.37221      38650.892      48834.61       27456.486      10428.824      17027.663      4419.2936      4247.4526      4437.6455      587.84279      888.1281       7477.446      -5030.1457     -466.05252      37925.75       33.597843      33.597843      33.597843      1.5154854      38920.143      37497.516      39535.018    
     67000   67000          845.06289      37180.377      48069.316      27377.094      10315.19       17061.904      4311.4145      4463.1525      4518.137       571.22718      693.53804      7524.9589     -5020.5242     -463.18191      38160.798      33.667108      33.667108      33.667108      1.5061509      37584.11       38604.991      35352.028    
     68000   68000          859.34236      35172.909      47267.066      27734.998      10489.491      17245.506      4419.4741      4286.8393      4603.1425      627.12801      821.86286      7515.7349     -5028.6752     -464.19984      38077.116      33.642481      33.642481      33.642481      1.5094609      35030.576      37302.22       33185.931    
     69000   69000          856.74113      42474.901      50929.356      27445.996      10457.74       16988.257      4362.8148      4313.6359      4374.8166      594.54033      866.81768      7503.892      -5028.2606     -466.2481       37909.841      33.593144      33.593144      33.593144      1.5161213      45902.236      44278.142      37244.326    
     70000   70000          840.56713      41332.922      50309.302      27312.339      10260.313      17052.026      4370.0572      4474.7928      4390.8285      612.32409      739.73004      7493.7707     -5029.4772     -463.30881      38150.346      33.664034      33.664034      33.664034      1.5065635      46074.336      36269.419      41655.011    
     71000   71000          861.17823      40232.324      50044.162      27770.695      10511.901      17258.795      4316.158       4509.8599      4571.2959      576.66147      811.35415      7504.4524     -5030.9871     -465.62065      37960.927      33.608227      33.608227      33.608227      1.514081       39269.46       39992.74       41434.772    
     72000   72000          848.91593      40724.55       49915.725      27246.948      10362.222      16884.726      4483.6337      4300.7013      4363.5684      576.99915      686.68526      7504.6988     -5031.561      -463.09824      38167.693      33.669136      33.669136      33.669136      1.5058788      43287.395      41537.638      37348.619    
     73000   73000          867.79582      39401.455      49613.244      27667.528      10592.678      17074.85       4391.6576      4352.9623      4497.8414      568.96607      767.91687      7521.6787     -5026.1726     -462.81501      38191.05       33.676003      33.676003      33.676003      1.5049578      36939.721      39500.078      41764.565    
     74000   74000          850.45051      35956.764      47309.499      27158.765      10380.954      16777.811      4345.3057      4294.1314      4384.133       559.15974      722.124        7502.2007     -5029.2435     -459.97544      38426.815      33.745158      33.745158      33.745158      1.4957242      40114.682      33808.498      33947.112    
     75000   75000          869.83965      38206.264      48733.228      27507.621      10617.626      16889.995      4349.6528      4169.4234      4549.4016      593.01272      754.33479      7498.4218     -5024.2522     -464.00149      38093.393      33.647274      33.647274      33.647274      1.5088159      40970.164      40414.963      33233.667    
     76000   76000          847.30475      36502.073      47877.139      27481.446      10342.555      17138.891      4380.0986      4302.3384      4648.4749      624.93282      727.86097      7487.3136     -5032.1284     -461.34306      38312.902      33.71178       33.71178       33.71178       1.5001714      39103.528      36025.477      34377.213    
     77000   77000          831.57963      33329.466      45638.707      27002.048      10150.608      16851.44       4140.7091      4310.1936      4599.9387      602.36072      708.89667      7518.4601     -5029.1185     -461.00458      38341.032      33.720028      33.720028      33.720028      1.4990707      32191.906      37292.078      30504.415    
     78000   78000          855.64874      35467.295      47234.24       27385.043      10444.405      16940.638      4416.9935      4286.4933      4520.0018      608.06154      645.79254      7493.1727     -5029.8774     -460.60649      38374.169      33.72974       33.72974       33.72974       1.4977762      34474.081      35684.844      36242.959    
     79000   79000          859.30596      33128.577      45728.078      27250.114      10489.047      16761.067      4273.5566      4311.989       4467.3531      564.26461      665.90105      7500.4656     -5022.4631     -462.1613       38245.07       33.691873      33.691873      33.691873      1.5028321      31868.254      35305.305      32212.173    
     80000   80000          858.93315      36051.4        47734.97       27583.713      10484.496      17099.217      4406.2682      4408.4605      4438.7322      572.12541      782.60485      7511.3705     -5020.3448     -461.17411      38326.937      33.715896      33.715896      33.715896      1.499622       31272.249      37877.434      39004.516    
     81000   81000          831.22389      35876.068      47214.355      27088.632      10146.266      16942.367      4313.463       4359.4228      4492.7645      606.4868       701.37497      7497.1393     -5028.2846     -459.5135       38465.445      33.756462      33.756462      33.756462      1.4942221      34101.761      36289.389      37237.053    
     82000   82000          843.26016      34045.97       46492.066      27321.741      10293.185      17028.555      4512.6165      4331.3435      4472.327       583.7752       656.42885      7501.7798     -5029.7154     -457.80565      38608.941      33.798386      33.798386      33.798386      1.4886686      34732.956      31647.692      35757.263    
     83000   83000          829.07208      42227.311      50464.526      26866.696      10120          16746.696      4433.7824      4315.9378      4280.241       571.21723      679.2921       7493.2434     -5027.0181     -461.28176      38317.993      33.713273      33.713273      33.713273      1.499972       38939.739      46939.761      40802.433    
     84000   84000          856.51222      34102.911      46525.095      27500.583      10454.945      17045.638      4376.9725      4333.8585      4520.4556      584.97059      768.59821      7489.6607     -5028.8783     -462.08603      38251.299      33.693702      33.693702      33.693702      1.5025874      32422.981      35913.404      33972.347    
     85000   85000          852.37508      37541.058      48568.276      27437.549      10404.446      17033.104      4561.2213      4296.35        4479.2719      589.32612      635.7182       7499.1692     -5027.9532     -457.96998      38595.087      33.794343      33.794343      33.794343      1.489203       40193.326      34784.382      37645.467    
     86000   86000          848.76975      34552.25       46735.43       27373.486      10360.438      17013.048      4292.2224      4333.1216      4613.429       603.13485      695.20637      7502.2145     -5026.2808     -460.01532      38423.484      33.744183      33.744183      33.744183      1.4958539      33060.768      35258.109      35337.873    
     87000   87000          845.24153      37553.458      48421.946      27315.27       10317.371      16997.899      4562.5886      4288.0184      4425.3668      579.11398      680.37497      7496.9026     -5034.4662     -458.64326      38538.43       33.777798      33.777798      33.777798      1.4913923      33525.214      38278.974      40856.187    
     88000   88000          867.19668      38255.343      48979.602      27524.359      10585.364      16938.995      4347.6462      4468.2727      4437.1618      543.60021      663.84216      7505.8839     -5027.4122     -459.62495      38456.118      33.753733      33.753733      33.753733      1.4945845      37533.461      38134.284      39098.285    
     89000   89000          838.82099      33757.137      46217.007      27278.772      10238.999      17039.773      4439.2017      4461.4576      4454.5899      571.20637      648.91404      7495.1052     -5030.7019     -459.48467      38467.858      33.757168      33.757168      33.757168      1.4941284      39131.023      29765.837      32374.552    
     90000   90000          836.93535      33358.919      45776.25       27102.983      10215.982      16887.001      4286.7927      4321.2063      4531.317       575.87177      697.29988      7503.973      -5029.4596     -460.50738      38382.428      33.73216       33.73216       33.73216       1.497454       29462.875      34086.601      36527.282    
     91000   91000          868.22488      34112.853      46632.506      27434.895      10597.915      16836.98       4509.964       4273.437       4431.4573      586.21917      569.89094      7497.0703     -5031.0587     -458.05306      38588.087      33.7923        33.7923        33.7923        1.4894731      34040.283      35662.32       32635.956    
     92000   92000          837.11589      33097.3        45588.854      26984.151      10218.186      16765.966      4350.9252      4360.0603      4394.7839      568.22328      609.10625      7505.7105     -5022.8437     -458.57964      38543.777      33.77936       33.77936       33.77936       1.4911854      33469.031      35099.975      30722.893    
     93000   93000          844.04343      39477.9        49428.763      27184.179      10302.746      16881.433      4512.0195      4334.7382      4399.701       583.0087       569.15407      7509.2497     -5026.4384     -457.4827       38636.196      33.806337      33.806337      33.806337      1.4876185      39035.338      41994.992      37403.369    
     94000   94000          860.74563      35444.766      47424.304      27398.694      10506.62       16892.074      4347.0377      4482.876       4407.3664      565.51023      616.83385      7501.5401     -5029.0907     -456.25883      38739.834      33.836538      33.836538      33.836538      1.4836387      29880.691      38843.673      37609.934    
     95000   95000          841.96346      37649.979      48385.252      27181.665      10277.357      16904.308      4486.7658      4372.2311      4316.1271      579.45863      645.13168      7529.1401     -5024.5468     -457.72047      38616.126      33.800482      33.800482      33.800482      1.4883916      39385.321      38342.683      35221.934    
     96000   96000          847.11167      34299.887      46319.667      26974.718      10340.198      16634.52       4324.8906      4314.6096      4380.779       548.78475      594.12119      7501.984      -5030.6493     -457.05664      38672.212      33.816839      33.816839      33.816839      1.486233       35237.06       37794.894      29867.706    
     97000   97000          835.38582      36257.844      47635.305      27189.21       10197.068      16992.142      4346.3032      4446.6223      4537.5925      590.13696      592.56248      7505.985      -5027.0603     -457.12664      38666.29       33.815112      33.815112      33.815112      1.4864607      36329.782      38599.159      33844.592    
     98000   98000          846.60754      35841.737      47494.806      27196.158      10334.045      16862.113      4515.0062      4322.4892      4401.5102      571.00699      607.08764      7479.4385     -5034.4256     -455.16291      38833.11       33.863673      33.863673      33.863673      1.4800751      33249.003      40037.894      34238.312    
     99000   99000          835.11977      33524.934      45919.665      27008.201      10193.82       16814.381      4359.2735      4260.8452      4503.1665      588.54072      632.80013      7494.7076     -5024.9525     -456.97003      38679.541      33.818975      33.818975      33.818975      1.4859514      32233.283      33860.71       34480.81     
    100000   100000         864.33123      35368.146      47370.311      27378.838      10550.388      16828.45       4482.9963      4366.3631      4439.7673      550.10088      505.37716      7508.3503     -5024.5045     -456.04997      38757.576      33.841702      33.841702      33.841702      1.4829596      40283.368      38761.692      27059.379    
    101000   101000         848.87542      35901.634      47343.677      26939.174      10361.728      16577.447      4357.6335      4299.2         4263.9611      592.84985      595.45065      7498.1495     -5029.798      -453.55829      38970.495      33.90356       33.90356       33.90356       1.4748573      32569.57       37660.145      37475.186    
    102000   102000         839.57909      33381.449      46032.616      27180.564      10248.253      16932.311      4383.5375      4368.4863      4598.628       577.77434      527.40793      7506.3851     -5029.9082     -456.44816      38723.765      33.831859      33.831859      33.831859      1.4842544      29848.552      35575.366      34720.428    
    103000   103000         858.11494      33970.204      46438.513      27179.678      10474.509      16705.169      4359.0673      4307.4946      4413.5097      569.24626      553.42528      7524.0702     -5021.6447     -454.68755      38873.708      33.87547       33.87547       33.87547       1.4785293      33158.425      34268.342      34483.844    
    104000   104000         844.45257      34609.637      46591.911      26969.953      10307.74       16662.212      4327.9083      4377.3502      4443.8658      539.81564      509.20905      7498.5244     -5034.4611     -454.67348      38874.911      33.875819      33.875819      33.875819      1.4784836      30245.025      35069.341      38514.545    
    105000   105000         867.17821      30394.732      44709.306      27321.004      10585.139      16735.865      4424.2345      4292.7873      4473.98        578.50593      487.3583       7504.7141     -5025.7154     -450.59467      39226.809      33.977727      33.977727      33.977727      1.4652203      27816.657      30086.158      33281.38     
    106000   106000         849.90079      29041.682      43593.698      27006.071      10374.244      16631.827      4252.4711      4225.7012      4681.7621      602.9392       401.49895      7497.8922     -5030.4372     -451.31776      39163.961      33.959572      33.959572      33.959572      1.4675717      26785.393      31914.991      28424.662    
    107000   107000         851.26339      32227.501      45472.9        27135.696      10390.876      16744.82       4415.6646      4335.2991      4417.1961      584.90591      546.83766      7470.6028     -5025.6862     -453.04198      39014.908      33.916435      33.916435      33.916435      1.4731784      34576.91       32778.481      29327.114    
    108000   108000         860.25255      32471.406      45982.44       27450.014      10500.601      16949.413      4500.4487      4390.3909      4508.9611      566.75953      516.52061      7497.9159     -5031.5842     -451.66219      39134.095      33.950937      33.950937      33.950937      1.4686916      31189.018      34489.995      31735.203    
    109000   109000         866.88665      26924.462      42617.79       27269.267      10581.58       16687.687      4364.1868      4245.2996      4542.1048      607.14186      469.01178      7487.3873     -5027.445      -452.19459      39088.02       33.937608      33.937608      33.937608      1.4704229      23266.868      29883.112      27623.406    
    110000   110000         837.83548      25834.492      41504.006      26786.248      10226.969      16559.279      4237.9144      4322.4709      4605.9593      561.47731      370.14488      7491.1965     -5029.8846     -452.48395      39063.023      33.930372      33.930372      33.930372      1.4713638      27513.308      27292.069      22698.098    
    111000   111000         857.29926      30369.031      44449.026      27180.475      10464.552      16715.922      4412.4737      4215.5099      4504.4838      549.85871      592.57024      7471.4546     -5030.4287     -453.33574      38989.626      33.909107      33.909107      33.909107      1.4741336      29339.749      30813.72       30953.625    
    112000   112000         863.42558      33600.826      46339.629      27226.06       10539.333      16686.727      4384.6119      4188.4891      4514.9111      585.4128       561.65107      7484.3779     -5032.7271     -453.16157      39004.612      33.913451      33.913451      33.913451      1.4735672      33169.187      34936.943      32696.347    
    113000   113000         843.52021      36059.369      47500.506      27022.787      10296.36       16726.427      4489.5101      4248.5577      4436.9054      564.9768       533.44266      7481.6804     -5028.6455     -453.92225      38939.248      33.894497      33.894497      33.894497      1.4760408      41510.217      32787.194      33880.698    
    114000   114000         850.1771       30704.16       44524.97       27003.923      10377.616      16626.307      4379.744       4269.8174      4456.387       566.17058      494.23528      7488.5168     -5028.5641     -451.7333       39127.935      33.949156      33.949156      33.949156      1.4689229      30957.924      31709.378      29445.178    
    115000   115000         855.26457      30968.937      44899.822      27174.198      10439.716      16734.482      4499.4384      4248.2726      4479.465       576.59607      480.55848      7484.8105     -5034.6594     -450.37023      39246.358      33.983371      33.983371      33.983371      1.4644905      31851.887      35251.261      25803.662    
    116000   116000         867.31407      29650.508      43896.196      26914.218      10586.797      16327.421      4173.1078      4240.3397      4479.1328      561.41247      415.03374      7485.5296     -5027.1352     -450.07904      39271.75       33.990698      33.990698      33.990698      1.4635436      28523.409      29803.379      30624.735    
    117000   117000         840.9203       26698.5        42289.089      26998.264      10264.624      16733.64       4268.4151      4325.9423      4617.2051      573.07636      482.11353      7494.7206     -5027.8333     -450.09155      39270.657      33.990383      33.990383      33.990383      1.4635843      23531.881      29498.766      27064.852    
    118000   118000         843.2908       31979.177      45396.571      27108.604      10293.559      16815.045      4368.6029      4347.9267      4630.1051      604.42357      429.77808      7468.8637     -5034.6549     -450.76147      39212.294      33.973536      33.973536      33.973536      1.4657627      31703.23       32864.333      31369.969    
    119000   119000         849.75667      30481.774      44428.22       26986.736      10372.484      16614.252      4343.3382      4253.311       4565.5058      582.86603      414.49095      7484.3367     -5029.5967     -450.50721      39234.425      33.979926      33.979926      33.979926      1.4649359      30809.101      30802.046      29834.175    
    120000   120000         851.77092      27791.445      42901.879      27030.346      10397.071      16633.275      4320.9674      4141.2668      4621.2062      592.8079       481.38071      7502.6057     -5026.9599     -451.37466      39159.024      33.958145      33.958145      33.958145      1.4677567      28268.846      26836.223      28269.265    
    121000   121000         833.73403      29660.598      43817.97       26706.952      10176.905      16530.047      4308.4654      4252.4617      4498.6721      609.19182      411.25005      7477.2044     -5027.1984     -446.83686      39556.699      34.07271       34.07271       34.07271       1.4530009      30782.819      27139.587      31059.388    
    122000   122000         856.06911      29894.282      44253.545      27107.269      10449.537      16657.732      4331.4908      4299.7506      4491.276       573.87872      492.33076      7495.3482     -5026.3426     -449.43122      39328.357      34.007022      34.007022      34.007022      1.4614371      33252.493      28689.948      27740.405    
    123000   123000         836.88281      35685.559      47415.437      26958.48       10215.341      16743.139      4384.7811      4335.2941      4474.1979      597.2969       509.56743      7472.4017     -5030.4        -449.67256      39307.249      34.000937      34.000937      34.000937      1.4622219      34658.23       36506.809      35891.637    
    124000   124000         867.50003      27457.308      43278.846      27461.276      10589.067      16872.208      4520.6724      4255.506       4500.9745      576.75975      548.08972      7494.4409     -5024.2348     -447.46916      39500.804      34.056654      34.056654      34.056654      1.455057       29959.104      29911.304      22501.515    
    125000   125000         833.15227      30105.307      43849.223      26515.632      10169.804      16345.827      4136.1853      4259.0821      4509.6504      575.94876      397.00532      7495.0623     -5027.1069     -447.71271      39479.315      34.050477      34.050477      34.050477      1.4558489      27406.566      35639.414      27269.941    
    126000   126000         857.03401      33691.966      46461.045      27192.969      10461.315      16731.654      4404.7473      4327.6027      4412.6132      570.91944      555.98219      7487.6834     -5027.8941     -450.74709      39213.545      33.973897      33.973897      33.973897      1.465716       34118.464      34482.971      32474.464    
    127000   127000         848.18907      27071.883      42543.448      26939.895      10353.35       16586.545      4240.7268      4206.7307      4660.5739      587.03146      426.36027      7496.1121     -5030.9901     -447.23921      39521.113      34.06249       34.06249       34.06249       1.4543092      21628.086      31371.496      28216.067    
    128000   128000         848.91555      28269.638      43320.584      27032.016      10362.217      16669.798      4368.4561      4370.0353      4433.745       615.18593      431.88792      7480.534      -5030.0459     -447.38586      39508.158      34.058767      34.058767      34.058767      1.4547861      29954.312      28008.676      26845.925    
    129000   129000         870.70911      30118.554      44638.929      27373.797      10628.239      16745.558      4380.7154      4269.1877      4685.5579      591.39587      367.69053      7481.2791     -5030.2682     -449.68577      39306.094      34.000604      34.000604      34.000604      1.4622648      31964.127      31131.739      27259.796    
    130000   130000         836.08841      27486.002      42702.695      26836.529      10205.644      16630.886      4406.7867      4178.3854      4522.7247      597.1439       459.04306      7496.522      -5029.7202     -446.56484      39580.794      34.079627      34.079627      34.079627      1.4521164      27982.9        28061.516      26413.591    
    131000   131000         836.50494      27521.893      42467.506      26569.383      10210.728      16358.654      4481.0827      4113.0043      4435.2017      556.89062      310.79156      7487.4749     -5025.7916     -446.2491       39608.8        34.087663      34.087663      34.087663      1.4510896      29660.132      30171.572      22733.975    
    132000   132000         852.71988      24800.084      41414.312      27096.459      10408.655      16687.804      4482.0835      4173.9197      4610.8019      583.22437      394.3771       7475.1457     -5031.7479     -446.49868      39586.66       34.08131       34.08131       34.08131       1.4519012      22021.804      27695.59       24682.858    
    133000   133000         855.61613      25888.664      42157.212      27131.022      10444.007      16687.015      4358.8114      4316.9817      4620.7125      562.98172      364.47937      7486.2745     -5023.2264     -444.12549      39798.191      34.141907      34.141907      34.141907      1.4441842      28851.347      23300.791      25513.853    
    134000   134000         847.46884      29083.39       43629.244      26774.616      10344.558      16430.058      4337.132       4262.9309      4477.6901      579.31029      334.74603      7470.7585     -5032.5102     -444.80614      39737.291      34.124483      34.124483      34.124483      1.4463975      32177.237      26353.885      28719.048    
    135000   135000         837.51795      25669.127      41666.493      26800.919      10223.093      16577.826      4324.6156      4225.4794      4665.6725      594.22774      304.47445      7490.8159     -5027.4599     -445.11716      39709.525      34.116534      34.116534      34.116534      1.4474089      22638.97       28864.254      25504.158    
    136000   136000         866.60953      25821.179      41983.837      27013.559      10578.197      16435.362      4280.2798      4366.2875      4542.3353      556.95208      267.9078       7454.6738     -5033.0743     -444.62219      39753.731      34.129189      34.129189      34.129189      1.4457993      22881.991      28701.29       25880.256    
    137000   137000         856.79286      28084.613      43295.104      27013.478      10458.371      16555.107      4455.9116      4335.6619      4456.6377      592.37239      270.87167      7471.796      -5028.1445     -444.64724      39751.492      34.128548      34.128548      34.128548      1.4458808      27248.168      31214.364      25791.308    
    138000   138000         833.0576       28354.991      43070.214      26664.229      10168.649      16495.581      4399.7548      4174.2027      4581.262       558.59604      303.17948      7503.4109     -5024.825      -445.52506      39673.17       34.106119      34.106119      34.106119      1.4487352      28990.035      26750.82       29324.117    
    139000   139000         860.9552       27439.023      42999.357      27104.012      10509.178      16594.833      4282.9813      4325.6046      4610.3069      613.03954      302.74686      7488.5062     -5028.352      -444.98318      39721.481      34.119957      34.119957      34.119957      1.4469732      28339.569      30156.327      23821.173    
    140000   140000         850.83242      25887.57       41845.572      26742.261      10385.615      16356.646      4231.9585      4330.3242      4437.3359      570.67681      329.67238      7487.5278     -5030.8499     -441.83901      40004.144      34.2007        34.2007        34.2007        1.4367491      25050.811      25078.143      27533.755    
    141000   141000         858.03176      26172.935      42359.252      27195.448      10473.494      16721.954      4616.7331      4181.8679      4573.9633      548.64261      316.83707      7507.4766     -5023.5663     -444.92744      39726.458      34.121382      34.121382      34.121382      1.4467919      28187.3        25297.046      25034.461    
    142000   142000         851.1364       24277.689      41035.763      26985.495      10389.326      16596.169      4310.3462      4280.88        4717.3704      600.49683      233.25217      7480.5083     -5026.6847     -445.41791      39682.714      34.108853      34.108853      34.108853      1.4483868      22845.059      30015.693      19972.315    
    143000   143000         858.64706      20512.032      38683.391      26794.83       10481.004      16313.825      4141.6623      4349.7975      4532.4193      561.82745      283.77836      7476.4851     -5032.1447     -444.75853      39741.545      34.125701      34.125701      34.125701      1.4462427      17273.112      19746.481      24516.502    
    144000   144000         858.47086      28114.116      43513.966      27056.089      10478.853      16577.236      4493.0605      4246.2987      4422.5324      558.60992      401.48424      7479.3647     -5024.1149     -440.3475       40139.643      34.23927       34.23927       34.23927       1.4318991      24261.067      32197.406      27883.875    
    145000   145000         838.73355      27340.566      42723.694      26690.651      10237.932      16452.72       4391.2606      4285.733       4465.6137      572.08312      272.62852      7494.0334     -5028.6327     -439.57852      40209.861      34.259224      34.259224      34.259224      1.4293986      29669.315      29983.892      22368.491    
    146000   146000         851.71091      27506.099      43152.739      27124.002      10396.339      16727.663      4516.2128      4375.2463      4449.0852      594.58749      348.55959      7473.8687     -5029.8967     -442.35877      39957.14       34.1873        34.1873        34.1873        1.4384393      30153.338      28550.13       23814.83     
    147000   147000         849.23142      24150.314      41009.332      26953.867      10366.073      16587.794      4582.4779      4244.1047      4429.5759      527.03218      384.32122      7454.1984     -5033.9163     -442.91714      39906.767      34.172927      34.172927      34.172927      1.4402549      23827.446      26254.509      22368.987    
    148000   148000         836.81036      24299.162      40925.581      26675.685      10214.456      16461.229      4332.9211      4232.0315      4541.9339      615.81884      285.65493      7483.5548     -5030.6859     -439.56645      40210.965      34.259538      34.259538      34.259538      1.4293593      22383.455      26930.554      23583.476    
    149000   149000         849.24898      24741.1        41290.897      26795.685      10366.287      16429.397      4402.233       4270.548       4517.5072      591.87293      203.80814      7471.6615     -5028.2334     -439.98649      40172.577      34.248632      34.248632      34.248632      1.4307252      21257.319      28916.073      24049.908    
    150000   150000         851.91487      23963.512      40999.809      27042.455      10398.828      16643.627      4427.0947      4371.7628      4567.1543      573.40378      250.43273      7477.403      -5023.6243     -442.58054      39937.118      34.181588      34.181588      34.181588      1.4391604      20167.842      26869.081      24853.612    
    151000   151000         852.6528       25631.915      41766.301      26722.626      10407.836      16314.79       4273.9026      4385.3736      4435.1056      558.94193      226.85158      7468.8032     -5034.188      -439.20981      40243.616      34.268808      34.268808      34.268808      1.4281996      23384.769      27733.153      25777.822    
    152000   152000         835.17977      17891.903      37269.396      26722.968      10194.553      16528.415      4398.8958      4231.489       4669.2547      573.47356      199.84994      7482.6921     -5027.2402     -437.31671      40417.827      34.318186      34.318186      34.318186      1.4220437      18869.794      18986.385      15819.53     
    153000   153000         831.09994      22586.583      39832.961      26536.425      10144.753      16391.673      4365.0334      4294.8554      4467.5828      548.75892      257.80567      7486.7649     -5029.1284     -437.88187      40365.661      34.303415      34.303415      34.303415      1.4238815      24168.962      23171.238      20419.55     
    154000   154000         857.72281      26508.222      42449.785      26837.69       10469.722      16367.968      4302.3296      4317.2648      4498.9034      565.91176      257.18785      7459.8164     -5033.446      -437.68769      40383.569      34.308487      34.308487      34.308487      1.4232501      27348.422      25847.76       26328.484    
    155000   155000         845.75308      24395.337      40961.611      26714.296      10323.615      16390.681      4365.5898      4217.6356      4481.2026      576.8454       308.73124      7470.3288     -5029.6527     -441.38615      40045.188      34.212392      34.212392      34.212392      1.4352765      24616.086      25579.063      22990.861    
    156000   156000         860.73314      20703.535      38985.312      26829.736      10506.468      16323.269      4174.2738      4302.6017      4570.1693      624.13148      202.9495       7479.3772     -5030.2345     -439.04991      40258.273      34.272968      34.272968      34.272968      1.4276797      19260.666      19421.45       23428.488    
    157000   157000         861.39732      19610.131      38526.619      26938.473      10514.575      16423.898      4278.1457      4314.9983      4609.4587      593.71745      171.15313      7486.3533     -5029.9291     -436.22591      40518.894      34.346767      34.346767      34.346767      1.4184967      18022.583      21230.234      19577.576    
    158000   158000         852.70873      22319.06       39864.724      26636.159      10408.518      16227.64       4432.3426      4273.7048      4448.9244      539.97861      88.840029      7475.5093     -5031.6596     -434.91869      40640.68       34.381144      34.381144      34.381144      1.414246       21063.537      22371.083      23522.559    
    159000   159000         866.52717      24514.549      41365.453      26938.853      10577.192      16361.661      4343.9255      4207.8689      4488.7838      571.12635      307.94101      7470.3928     -5028.3777     -438.031        40351.919      34.299522      34.299522      34.299522      1.4243664      23514.434      24624.61       25404.602    
    160000   160000         849.28643      23844.561      40787.495      26737.954      10366.744      16371.21       4505.0441      4171.122       4450.9346      557.43009      242.1605       7473.6251     -5029.1065     -437.49404      40401.445      34.313549      34.313549      34.313549      1.4226204      25097.238      22594.468      23841.977    
    161000   161000         860.57272      20875.483      39535.156      27121.825      10504.51       16617.315      4422.4252      4431.2153      4567.2204      595.09892      118.95212      7505.7826     -5023.3796     -433.504        40773.306      34.418503      34.418503      34.418503      1.4096458      21323.961      21184.693      20117.795    
    162000   162000         861.79093      21529.066      39592.413      26806.585      10519.38       16287.205      4307.3734      4256.6694      4567.7461      556.66955      151.64216      7478.2752     -5031.1704     -434.0515       40721.876      34.404025      34.404025      34.404025      1.4114261      24467.018      19487.05       20633.129    
    163000   163000         853.53914      23155.718      40351.238      26692.712      10418.655      16274.057      4262.6177      4172.2641      4588.3686      585.88655      216.05733      7479.9736     -5031.1108     -437.01802      40445.451      34.326002      34.326002      34.326002      1.4210725      23232.727      21939.603      24294.825    
    164000   164000         843.5899       23236.472      40449.232      26721.591      10297.21       16424.381      4392.5531      4298.769       4486.4162      579.55222      214.64659      7478.995      -5026.5513     -436.33413      40508.844      34.343927      34.343927      34.343927      1.4188487      19973.391      26921.444      22814.58     
    165000   165000         835.00597      16950.065      36587.314      26507.615      10192.431      16315.184      4264.7216      4232.4844      4701.0611      573.38092      103.10264      7470.5053     -5030.0722     -433.47965      40775.596      34.419147      34.419147      34.419147      1.4095666      16640.527      21602.98       12606.69     
    166000   166000         869.55473      22164.499      40164.942      27020.297      10614.148      16406.149      4473.376       4313.6399      4492.4088      566.09871      98.094068      7490.9726     -5028.4412     -434.6643       40664.465      34.38785       34.38785       34.38785       1.4134188      24005.951      23060.344      19427.202    
    167000   167000         837.30381      23520.837      40554.589      26614.473      10220.48       16393.993      4462.7338      4276.0856      4410.6918      562.64243      226.20154      7487.2393     -5031.6017     -434.94193      40638.508      34.380532      34.380532      34.380532      1.4143216      24374.555      22324.37       23863.585    
[...]
    259000   259000         833.57609      8559.9996      31937.772      26269.525      10174.978      16094.548      4349.0076      4399.9974      4505.8472      563.81982     -199.48466      7498.8842     -5023.524      -389.28704      45404.52       35.675196      35.675196      35.675196      1.2658634      9925.5811      8109.4728      7644.945     
    260000   260000         857.70953      6677.2016      31040.062      26545.755      10469.56       16076.195      4478.2311      4255.2008      4530.0947      609.64861     -250.65083      7482.3258     -5028.6556     -382.98049      46152.197      35.869952      35.869952      35.869952      1.2453561      6459.2196      5711.989       7860.3964    
    261000   261000         853.28728      4375.4355      29683.39       26718.712      10415.58       16303.131      4469.2891      4359.3648      4603.6341      567.68728     -165.41997      7492.9017     -5024.3258     -380.44218      46460.125      35.94955       35.94955       35.94955       1.2371021      3837.685       3156.8154      6131.8063    
    262000   262000         860.0589       7196.5468      31311.713      26478.225      10498.238      15979.987      4358.6363      4380.9974      4399.3165      543.65143     -161.61514      7484.8594     -5025.8585     -383.80309      46053.28       35.844307      35.844307      35.844307      1.2480309      8112.4463      6353.6531      7123.5409    
    263000   263000         862.33845      7531.0361      31781.427      26669.535      10526.063      16143.472      4382.0289      4313.9203      4522.8905      581.89809     -112.89356      7482.9979     -5027.3699     -379.76763      46542.648      35.970822      35.970822      35.970822      1.2349087      5046.855       8945.5603      8600.6929    
    264000   264000         831.75601      5905.1373      30174.412      26108.879      10152.761      15956.118      4259.5414      4315.5086      4544.0436      568.1442      -190.70101      7485.865      -5026.2838     -374.41862      47207.564      36.141308      36.141308      36.141308      1.217515       4288.1056      7585.2938      5842.0125    
    265000   265000         853.0265       6827.6901      31043.678      26369.096      10412.397      15956.699      4324.4789      4292.8153      4419.7766      571.39551     -128.91505      7500.5691     -5023.4212     -376.50956      46945.398      36.07428       36.07428       36.07428       1.2243142      7231.9276      6138.8559      7112.2869    
    266000   266000         843.99381      2149.1371      27848.493      26370.496      10302.141      16068.355      4201.9253      4291.4333      4620.3729      570.78917     -94.910481      7503.2353     -5024.4902     -374.83101      47155.626      36.128049      36.128049      36.128049      1.218856       3774.6505      2240.8949      431.86601    
    267000   267000         857.3332       6997.1457      31581.987      26777.823      10464.967      16312.856      4416.3938      4410.26        4518.3878      552.96269     -47.640964      7489.7985     -5027.3054     -375.44646      47078.327      36.108297      36.108297      36.108297      1.2208573      5783.0734      7425.7805      7782.5831    
    268000   268000         860.54011      6657.6945      31274.402      26702.142      10504.112      16198.03       4415.493       4275.3733      4574.3847      587.19875     -123.68268      7489.7604     -5020.4971     -375.35129      47090.264      36.111349      36.111349      36.111349      1.2205478      3795.1941      7432.9659      8744.9235    
    269000   269000         839.97345      5570.2833      30400.73       26482.507      10253.066      16229.44       4383.909       4349.4003      4476.8595      578.54458     -60.966858      7520.5868     -5018.893      -366.4654       48232.087      36.400891      36.400891      36.400891      1.1916531      4404.0706      4786.1228      7520.6565    
    270000   270000         861.97359      4954.3266      30192.291      26783.614      10521.609      16262.005      4534.4793      4340.4504      4577.5283      542.2323      -197.68865      7492.3748     -5027.3718     -374.66545      47176.465      36.13337       36.13337       36.13337       1.2183176      4690.9228      5102.088       5069.9691    
    271000   271000         846.08963      5680.5663      30344.229      26432.36       10327.723      16104.637      4496.4375      4186.6528      4463.4826      553.01552     -71.342653      7495.7653     -5019.3742     -374.32792      47219.003      36.144227      36.144227      36.144227      1.2172201      7011.0569      5487.9127      4542.7293    
    272000   272000         843.7403       7693.6738      31806.69       26468.673      10299.046      16169.626      4443.3169      4387.1444      4412.7123      530.70889     -88.826858      7506.3018     -5021.7309     -371.53413      47574.072      36.234597      36.234597      36.234597      1.2081354      7170.4987      9489.9075      6420.6151    
    273000   273000         868.19024      2203.7533      28307.149      26769.335      10597.492      16171.843      4309.7232      4353.8232      4597.6262      544.86629     -125.30816      7511.7107     -5020.5987     -369.40619      47848.119      36.30404       36.30404       36.30404       1.2012158      165.75329      2384.7398      4060.7669    
    274000   274000         853.21357      3548.5992      29121.059      26644.034      10414.681      16229.354      4359.8969      4379.6132      4595.7006      588.18434     -148.75515      7478.439      -5023.7251     -369.29335      47862.739      36.307737      36.307737      36.307737      1.2008489      4181.9879      3425.4016      3038.4082    
    275000   275000         847.0664       3092.6017      28849.881      26687.426      10339.646      16347.781      4571.4764      4327.4754      4472.1411      560.13329     -64.026028      7508.2299     -5027.6494     -368.65656      47945.414      36.32863       36.32863       36.32863       1.1987782      5483.0837      572.05495      3222.6663    
    276000   276000         850.27937      2152.1657      28075.994      26569.097      10378.865      16190.233      4376.6565      4341.7606      4573.5086      578.49485     -156.43525      7497.5382     -5021.2909     -368.16044      48010.023      36.344941      36.344941      36.344941      1.197165       841.77371      2744.2557      2870.4677    
    277000   277000         828.42434      4030.6089      29016.833      26182.742      10112.093      16070.649      4265.4325      4186.5683      4662.0864      599.11105     -152.67796      7525.489      -5015.3599     -366.60795      48213.333      36.396173      36.396173      36.396173      1.1921167      3882.2521      3454.7832      4754.7914    
    278000   278000         842.21718      2143.1076      28006.625      26483.543      10280.454      16203.089      4317.9359      4387.0752      4583.5167      604.43066     -162.50169      7494.4216     -5021.7894     -362.71524      48730.766      36.525913      36.525913      36.525913      1.1794586      3034.5999      2504.0945      890.62841    
    279000   279000         846.63276      1829.1641      27725.814      26426.103      10334.353      16091.75       4246.6054      4480.5486      4408.3708      555.05356     -61.205741      7487.6641     -5025.2863     -362.78627      48721.224      36.523529      36.523529      36.523529      1.1796895      4598.1674     -220.40712      1109.7319    
    280000   280000         854.52503      4242.9281      29792.186      26773.042      10430.689      16342.353      4410.4022      4398.1661      4569.113       543.24049     -72.864623      7516.7811     -5022.4849     -362.2654       48791.276      36.541025      36.541025      36.541025      1.1779958      4314.9429      4323.0104      4090.831     
    281000   281000         848.03003      5236.5127      30422.705      26695.343      10351.408      16343.935      4377.7648      4421.346       4520.4503      575.19279     -53.577347      7524.7291     -5021.9709     -362.14752      48807.158      36.544989      36.544989      36.544989      1.1776125      9102.0589      2637.9067      3969.5726    
    282000   282000         843.10184      1062.3973      27281.187      26510.201      10291.253      16218.948      4434.4484      4346.2827      4477.3075      570.06565     -103.2817       7512.1412     -5018.0157     -355.21014      49760.38       36.781369      36.781369      36.781369      1.1550539      2788.1538     -2133.5843      2532.6225    
    283000   283000         846.26581      2618.8682      28519.001      26635.591      10329.873      16305.718      4452.0691      4406.2145      4504.0707      556.69463     -121.34413      7523.3833     -5015.3705     -358.43768      49312.313      36.670637      36.670637      36.670637      1.165549       3165.3723      1807.3968      2883.8354    
    284000   284000         870.66068      5600.4984      30979.142      26923.62       10627.647      16295.972      4340.1006      4363.3373      4549.1139      566.87344     -31.414714      7525.0617     -5017.0998     -355.97938      49652.852      36.754857      36.754857      36.754857      1.1575552      6425.4186      5176.0207      5200.0558    
    285000   285000         841.87817     -808.44668      25904.99       26495.785      10276.316      16219.469      4267.1556      4279.31        4703.2911      587.56199     -115.05415      7512.0609     -5014.8564     -352.74384      50108.291      36.866892      36.866892      36.866892      1.1470341     -1748.9641     -957.45861      281.0827     
    286000   286000         862.33572      3348.7842      29370.532      26925.842      10526.03       16399.812      4469.4523      4352.1553      4595.3127      567.79548     -63.886784      7497.8181     -5018.8351     -353.1085       50056.545      36.854197      36.854197      36.854197      1.1482199      4036.6384      6466.0155     -456.30133    
    287000   287000         860.08381     -3003.0167      24806.151      27027.86       10498.542      16529.318      4358.7869      4334.2227      4887.5887      618.16486     -139.24499      7490.333      -5020.5332     -348.43007      50728.662      37.018414      37.018414      37.018414      1.1330068     -5988.1675     -364.27372     -2656.6089    
    288000   288000         846.66963     -2113.521       25135.207      26705.773      10334.803      16370.97       4292.6918      4350.4989      4755.2643      578.62398     -94.689758      7509.9055     -5021.3249     -346.89294      50953.447      37.073011      37.073011      37.073011      1.1280084      4212.1164     -2047.5832     -8505.0961    
    289000   289000         863.0405       900.57027      27619.171      26948.622      10534.632      16413.99       4322.2282      4374.9508      4709.62        559.5536      -44.250386      7510.9981     -5019.1107     -346.20385      51054.866      37.097591      37.097591      37.097591      1.1257677      215.56178      1554.2495      931.89954    
    290000   290000         851.08391      68.714327      26670.578      26618.472      10388.685      16229.787      4427.3473      4220.2555      4493.2815      592.66832      18.706045      7498.9437     -5021.4152     -339.941        51995.468      37.324027      37.324027      37.324027      1.1054025     -2831.946       2701.2914      336.79758    
    291000   291000         850.22236      2293.7505      28628.597      26891.22       10378.169      16513.051      4400.5536      4360.2816      4643.4028      570.06095      33.162433      7521.7815     -5016.1918     -340.32755      51936.411      37.309891      37.309891      37.309891      1.1066594      4347.5509      1674.0412      859.65946    
    292000   292000         847.09941      2788.7952      28734.84       26630.212      10340.049      16290.163      4401.4609      4269.8562      4566.5182      580.91698     -3.3759909      7495.7213     -5020.9344     -341.5751       51746.721      37.264412      37.264412      37.264412      1.1107162      2926.9604      3747.0775      1692.3476    
    293000   293000         855.86965      3893.1884      30016.749      27017.336      10447.102      16570.234      4541.3932      4363.5375      4469.4842      552.90766      153.26281      7515.0666     -5025.4183     -334.59087      52826.878      37.521914      37.521914      37.521914      1.0880052      2144.853       3666.7795      5867.9327    
    294000   294000         850.2624       245.82662      26867.05       26679.799      10378.658      16301.142      4417.8754      4347.7345      4516.9784      542.11093      11.927902      7489.9779     -5025.4635     -338.41602      52229.771      37.380007      37.380007      37.380007      1.1004436     -1146.6497      941.98682      942.14273    
    295000   295000         842.02666      629.64988      27244.614      26751.774      10278.129      16473.646      4269.2862      4297.7045      4703.5322      598.09784      102.81385      7521.1911     -5018.9799     -329.33543      53669.874      37.720449      37.720449      37.720449      1.0709158      3847.7802     -1583.4769     -375.3537     
    296000   296000         858.25839      341.20337      27108.771      26842.868      10476.26       16366.608      4319.206       4240.8815      4624.4275      591.87162      111.4408       7500.0844     -5021.3037     -330.77688      53435.993      37.665577      37.665577      37.665577      1.0756031      1310.8606     -933.58855      646.33803    
    297000   297000         835.56386      1348.1835      27504.098      26433.493      10199.241      16234.252      4256.8392      4212.4528      4590.2617      523.40371      173.63357      7492.6357     -5014.9745     -324.61207      54450.814      37.902523      37.902523      37.902523      1.0555567     -1688.6146      3863.1183      1870.0467    
    298000   298000         858.90599      1026.902       27841.103      27028.63       10484.165      16544.465      4337.9985      4265.4723      4632.1454      582.67673      235.33767      7505.383      -5014.5484     -325.81031      54250.558      37.856001      37.856001      37.856001      1.059453       527.02261      799.96334      1753.7199    
    299000   299000         863.98664     -277.47291      26743.18       26967.594      10546.181      16421.412      4292.1976      4266.9652      4614.9041      590.33764      159.06345      7510.9443     -5012.9999     -318.72505      55456.549      38.134461      38.134461      38.134461      1.0364136      493.0848      -2141.3504      815.84683    
    300000   300000         853.23351      248.67795      27304.065      27104.344      10414.924      16689.42       4547.4945      4272.1866      4641.9554      570.4381       158.73839      7517.5021     -5018.8949     -320.96574      55069.402      38.045514      38.045514      38.045514      1.0436997     -762.64399      2715.6036     -1206.9258    
Loop time of 2116.95 on 3 procs for 300000 steps with 4096 atoms

Performance: 12.244 ns/day, 1.960 hours/ns, 141.714 timesteps/s, 580.459 katom-step/s
96.5% CPU use with 3 MPI tasks x 1 OpenMP threads

MPI task timing breakdown:
Section |  min time  |  avg time  |  max time  |%varavg| %total
---------------------------------------------------------------
Pair    | 194.76     | 197.94     | 199.68     |  16.0 |  9.35
Bond    | 594.61     | 604.92     | 618.41     |  40.6 | 28.58
Kspace  | 450.93     | 464.31     | 474.55     |  45.9 | 21.93
Neigh   | 516.86     | 520.52     | 524.35     |  13.4 | 24.59
Comm    | 53.027     | 53.395     | 53.58      |   3.6 |  2.52
Output  | 0.95585    | 0.97644    | 0.99262    |   1.6 |  0.05
Modify  | 243.69     | 255.46     | 267.68     |  61.3 | 12.07
Other   |            | 19.42      |            |       |  0.92

Nlocal:        1365.33 ave        1370 max        1360 min
Histogram: 1 0 0 0 0 0 1 0 0 1
Nghost:        8509.33 ave        8592 max        8428 min
Histogram: 1 0 0 0 1 0 0 0 0 1
Neighs:              0 ave           0 max           0 min
Histogram: 3 0 0 0 0 0 0 0 0 0
FullNghs:       646589 ave      649977 max      641877 min
Histogram: 1 0 0 0 0 0 0 1 0 1

Total # of neighbors = 1939768
Ave neighs/atom = 473.57617
Ave special neighs/atom = 5.6289062
Neighbor list builds = 24220
Dangerous builds = 0

# --- Cleanup ---
unfix npt_fix

undump dump_npt

# --- Write Output ---
write_dump all custom npt_pppm_last.dump id type mol x y z xu yu zu vx vy vz modify sort id
write_data /home/arz2/PolyJarvis/data/PEEK1/lammps/equil/npt_pppm/npt_pppm_out.data
System init for write_data ...
PPPM initialization ...
  using 12-bit tables for long-range coulomb
  G vector (1/distance) = 0.30925372
  grid = 30 30 30
  stencil order = 5
  estimated absolute RMS force accuracy = 0.00031961279
  estimated relative force accuracy = 9.6250443e-07
  using double precision KISS FFT
  3d grid and FFT values/proc = 23273 9000
Generated 21 of 21 mixed pair_coeff terms from sixthpower/sixthpower mixing rule

print "STAGE COMPLETE: NPT T=850.0->850.0K P=50000.0->1.0atm steps=300000"
STAGE COMPLETE: NPT T=850.0->850.0K P=50000.0->1.0atm steps=300000
quit
n ...
  using 12-bit tables for long-range coulomb
  G vector (1/distance) = 0.30925372
  grid = 30 30 30
  stencil order = 5
  estimated absolute RMS force accuracy = 0.00031961279
  estimated relative force accuracy = 9.6250443e-07
  using double precision KISS FFT
  3d grid and FFT values/proc = 23273 9000


---------------------------------------------------------------------
    Device Time Info (average) for kspace: 
---------------------------------------------------------------------
CPU Poisson:     452.5214 s.
CPU Data Cast:   1.0979 s.
CPU Idle Time:   0.8764 s.
Max Mem / Proc:  4.42 MB.
---------------------------------------------------------------------


--------------------------------------------------------------------------
- Using acceleration for pppm:
-  with 3 proc(s) per device.
-  with 1 thread(s) per proc.
-  Horizontal vector operations: ENABLED
-  Shared memory system: No
--------------------------------------------------------------------------
Device 0: Quadro RTX 6000, 72 CUs, 22/24 GB, 1.8 GHZ (Mixed Precision)
--------------------------------------------------------------------------

Initializing Device and compiling on process 0...Done.
Initializing Device 0 on core 0...Done.
Initializing Device 0 on core 1...Done.
Initializing Device 0 on core 2...Done.



---------------------------------------------------------------------
      Device Time Info (average): 
---------------------------------------------------------------------
CPU Cast/Pack:   2.7629 s.
CPU Driver_Time: 3.3561 s.
CPU Idle_Time:   0.9051 s.
Average split:   1.0000.
Max Mem / Proc:  5.88 MB.
Prefetch mode:   None.
Vector width:    32.
Lanes / atom:    8.
Pair block:      256.
Neigh block:     128.
Neigh mode:      Host.
---------------------------------------------------------------------


--------------------------------------------------------------------------
- Using acceleration for lj/class2/coul/long:
-  with 3 proc(s) per device.
-  with 1 thread(s) per proc.
-  Horizontal vector operations: ENABLED
-  Shared memory system: No
--------------------------------------------------------------------------
Device 0: Quadro RTX 6000, 72 CUs, 22/24 GB, 1.8 GHZ (Mixed Precision)
--------------------------------------------------------------------------

Initializing Device and compiling on process 0...Done.
Initializing Device 0 on core 0...Done.
Initializing Device 0 on core 1...Done.
Initializing Device 0 on core 2...Done.

Generated 21 of 21 mixed pair_coeff terms from sixthpower/sixthpower mixing rule
STAGE COMPLETE: NPT T=850.0->850.0K P=50000.0->1.0atm steps=300000
