LAMMPS data file via write_data, version 22 Jul 2025, timestep = 2500000, units = real

4840 atoms
2 atom types
4820 bonds
2 bond types
4800 angles
2 angle types
4780 dihedrals
2 dihedral types

2.396002346901689 53.38236970309222 xlo xhi
2.396002346901689 53.38236970309222 ylo yhi
2.396002346901689 53.38236970309222 zlo zhi

Masses

1 14.0268
2 15.0347

Pair Coeffs # lj/cut

1 0.09141 3.95
2 0.19475 3.75

Bond Coeffs # harmonic

1 260 1.54
2 260 1.54

Angle Coeffs # harmonic

1 62.1002 114
2 62.1002 114

Dihedral Coeffs # multi/harmonic

1 2.00702 -4.01203 0.27102 6.29006 0
2 2.00702 -4.01203 0.27102 6.29006 0

Atoms # full

752 4 1 0 7.9609575268725985 6.8845778357093375 9.949526226153958 0 0 1
2398 10 1 0 3.889192191007893 10.65361364046854 6.691430884962398 0 1 0
2396 10 1 0 4.404365201655039 8.040297407405207 6.141134879071674 0 1 0
2397 10 1 0 4.81292184694504 9.402904975887553 6.823471773331447 0 1 0
2395 10 1 0 5.5820116135836475 7.141733157293641 6.102213260343261 0 1 0
754 4 1 0 9.191327190083667 7.19335338169837 7.727405342028566 0 0 1
753 4 1 0 8.049185142048017 7.687846122404614 8.696468598453878 0 0 1
2394 10 1 0 5.372395556332601 5.836379000371964 5.511989177066443 0 1 0
4226 18 1 0 2.8031153602496923 3.6498491248505323 9.901911523298633 1 0 0
2393 10 1 0 6.39064900555595 4.770904730772015 5.683991734943256 0 1 0
2399 10 1 0 2.6188226030839448 10.605170587361682 7.605479080223721 0 1 0
755 4 1 0 9.347514507398435 8.165320336249067 6.52273686089036 0 0 1
4338 18 1 0 2.4195204668221124 18.661944368320608 23.53331425885804 1 0 0
2538 11 1 0 18.459642027253235 27.065894510998934 10.842237292774474 0 0 0
562 3 1 0 3.3054080762312585 17.880965411575602 6.200491058497411 0 1 1
756 4 1 0 10.417045111764814 9.279543901725358 6.600219567892282 0 0 1
1085 5 1 0 2.7479964502224488 12.11847612728105 25.895085959219745 1 1 1
4229 18 1 0 5.940973367158772 3.0826864329037447 10.871084795122124 1 0 0
3830 16 1 0 4.929422359845279 19.761423408034982 27.792046693285727 0 1 -1
2235 10 1 0 2.5183280972176973 22.135090156590397 13.01198583152911 0 0 0
3747 16 1 0 11.919020297570535 5.138149595440251 5.183878220016775 0 1 0
3746 16 1 0 12.346044315261826 4.4206451662462145 6.44393228667441 0 1 0
3748 16 1 0 12.999704402374933 5.9118304114797 4.511780236072591 0 1 0
3745 16 1 0 12.876178091299 5.219470560842714 7.591644813115144 0 1 0
3744 16 1 0 13.097675205111592 4.482956008270648 8.86859210978107 0 1 0
3742 16 1 0 12.827415407975417 6.7363841675620275 10.13057371830459 0 1 0
3743 16 1 0 13.62934481882667 5.4143773827816695 9.987154060004915 0 1 0
757 4 1 0 11.8698719143805 8.893740469431965 6.248652148556982 0 0 1
758 4 1 0 12.842134265028331 10.06948433357163 6.288178330625013 0 0 1
759 4 1 0 14.148125125359538 9.528883431846683 5.626036784306138 0 0 1
4090 17 1 0 18.445960309974474 5.585940664698864 6.282277136772734 1 0 0
3728 16 1 0 18.648189156991734 9.088469825240246 9.244099907367278 0 1 0
4091 17 1 0 17.58311309820583 4.6886090398630555 5.37751487121667 1 0 0
4092 17 1 0 16.623660827478655 3.8339869925215284 6.113635361454865 1 0 0
3727 16 1 0 17.667841306000653 7.918412260947889 9.423993271211582 0 1 0
3729 16 1 0 18.39681965517729 10.027737743520813 8.005970178584217 0 1 0
760 4 1 0 15.01660889474089 10.616921949738206 4.905292482099712 0 0 1
3749 16 1 0 12.639651285639157 6.221230482482005 3.128961325884332 0 1 0
761 4 1 0 16.209824055788747 9.882592665229737 4.31013469188852 0 0 1
762 4 1 0 16.603764638614948 10.599113036033476 3.047279110779625 0 0 1
3723 16 1 0 18.658154498647782 3.7148859101285576 10.770780818605473 0 1 0
3726 16 1 0 18.073279233767416 6.826520624307179 10.49485195269566 0 1 0
3725 16 1 0 17.083010815722623 5.773265101489422 10.928988144227674 0 1 0
3475 15 1 0 26.94537673260778 27.863839259328078 15.556980788575142 1 0 1
141 1 1 0 2.5993477374432676 27.49196247883195 8.199211687669974 1 0 0
413 2 1 0 2.899607175967642 12.280607297549015 19.35237107919062 1 0 -1
4089 17 1 0 19.37058027895658 4.833750022411463 7.31183291981488 1 0 0
4088 17 1 0 20.69193440260356 4.292792496397971 6.69786316163206 1 0 0
4087 17 1 0 21.93489787383056 5.05649713070545 7.125623873173084 1 0 0
4086 17 1 0 23.260047200872066 4.8491679062098605 6.324039316603111 1 0 0
4085 17 1 0 23.749414517948892 3.434795811725855 6.057002629603268 1 0 0
4084 17 1 0 24.904692563412755 3.382493954737157 4.961049629046952 1 0 0
4728 20 1 0 20.977797623744102 8.716858413192849 5.164209327684811 0 1 1
4729 20 1 0 22.257855684251496 9.337539370930996 5.838161340842483 0 1 1
4726 20 1 0 21.078710327105824 10.504393561871854 3.302387101944481 0 1 1
4727 20 1 0 20.68578389481432 9.043641787594499 3.656366674707587 0 1 1
1755 8 1 0 25.937894669983375 8.442922538376791 3.9980220720205004 0 0 1
4730 20 1 0 22.51348354011784 8.868373578612955 7.28080211662325 0 1 1
4731 20 1 0 23.647860872259294 9.608652775848837 8.01216053511428 0 1 1
1754 8 1 0 25.09647680966413 7.532380825707775 2.9674845149321514 0 0 1
690 3 1 0 22.894892790886743 3.1242259218047805 18.943252057775688 -1 1 0
4083 17 1 0 26.23340429839971 3.4535310529463374 5.632650437476597 1 0 0
4732 20 1 0 23.8586616151321 8.864739481040658 9.34337459849972 0 1 1
4460 19 1 0 23.505836130799622 2.8881356693204348 24.024461831321787 0 1 0
954 4 1 0 23.699467427594797 26.790253902146993 27.25694747068614 1 1 1
3107 13 1 0 25.78151122246545 5.123211276503369 9.595283134045022 0 2 0
3106 13 1 0 24.40107897512369 5.550407999523003 10.134354011077525 0 2 0
4733 20 1 0 24.997280688011816 9.544177792669776 10.030450335189139 0 1 1
265 2 1 0 23.82891384801217 27.247531774012884 23.33612000348996 0 0 1
569 3 1 0 8.17873639615058 11.594001558514789 3.946673510372192 0 1 1
985 5 1 0 7.855824306961594 11.583361458743619 9.573563356625087 1 1 0
568 3 1 0 7.022147142934246 12.592984756089267 4.034926791878369 0 1 1
567 3 1 0 7.330180970274112 13.566584976409697 5.275695303065662 0 1 1
566 3 1 0 6.2600491562476925 14.611034782871274 5.643504908212654 0 1 1
3163 14 1 0 8.60510002901341 19.672593599418093 5.5409634032522455 1 0 0
983 5 1 0 10.096144251221704 13.018346838670345 9.419826928029366 1 1 0
982 5 1 0 9.911606102020912 13.550754384186183 7.98697593071746 1 1 0
565 3 1 0 4.775528551114439 14.226133797359134 5.992213026552594 0 1 1
984 5 1 0 8.766118506735484 12.681376957324087 10.14336527374955 1 1 0
692 3 1 0 24.948925836712604 3.8852339198497914 17.578077708209097 -1 1 0
981 5 1 0 11.107892217435447 13.834804077760808 7.180906033622817 1 1 0
980 5 1 0 10.895003656472667 14.067703760858242 5.642110522534065 1 1 0
3162 14 1 0 9.787668855511896 19.294960766741568 4.575584098450346 1 0 0
987 5 1 0 5.664737748801034 12.649790628448047 10.000197802143754 1 1 0
428 2 1 0 5.81324600385822 17.941713342090885 10.900908951637318 1 0 -1
986 5 1 0 6.579994462710225 11.544926660916474 10.371599882243688 1 1 0
989 5 1 0 3.2881635636514757 13.71346394267389 10.328863983570603 1 1 0
267 2 1 0 23.564956840133995 24.72017942919551 23.332027553032184 0 0 1
563 3 1 0 3.864021000852187 16.58062193475116 5.616390052177959 0 1 1
3739 16 1 0 12.713845068118104 10.011208582468651 10.237775152619271 0 1 0
4093 17 1 0 15.854571243211087 2.8613033982133445 5.243749893212086 1 0 0
976 5 1 0 14.692332921190422 14.07362961608736 3.150228106720573 1 1 0
4227 18 1 0 3.692419570006911 2.4171866749813518 9.720142981778817 1 0 0
3738 16 1 0 14.035555695475283 10.814562175352433 10.122991594106232 0 1 0
3736 16 1 0 15.218647690172062 12.494932563208936 8.838216513998285 0 1 0
289 2 1 0 12.24129597268082 17.115665653281138 9.15488475410972 0 0 1
3732 16 1 0 18.155447825895372 12.795678219232093 6.437386730089332 0 1 0
290 2 1 0 13.55789388109609 17.354330669260015 8.449373503389353 0 0 1
291 2 1 0 13.45197274397868 17.97768908552925 7.045235926762004 0 0 1
292 2 1 0 14.750808071735927 18.02267638580492 6.180862950454362 0 0 1
3735 16 1 0 15.337085993305902 13.358690537004524 7.621771657066005 0 1 0
3734 16 1 0 16.526384354308405 14.361360313383457 7.717041574685344 0 1 0
293 2 1 0 14.527378191391064 18.640907244593212 4.7808434266298825 0 0 1
3733 16 1 0 17.883457992881016 13.610945443226539 7.646004628504302 0 1 0
295 2 1 0 16.861417004682167 19.60067804892075 4.689750725571697 0 0 1
979 5 1 0 12.174419435156123 14.449817835451615 4.8748428312236864 1 1 0
3737 16 1 0 13.90714783055097 11.788942570444595 8.952445283038887 0 1 0
288 2 1 0 12.428189849694467 16.124835773735448 10.322765804636663 0 0 1
294 2 1 0 15.72199413419161 19.038796261606787 3.9440377392915664 0 0 1
3136 13 1 0 19.013378433185988 17.94942325637784 8.844438080001156 0 2 0
978 5 1 0 12.08857730621104 14.2783605825334 3.33536389339455 1 1 0
287 2 1 0 13.794535767854311 16.317361405741437 11.012796911169499 0 0 1
296 2 1 0 18.23117915026095 19.24714202001747 4.005822028098954 0 0 1
3730 16 1 0 19.387897287344725 11.138704408966515 7.899508085786305 0 1 0
974 5 1 0 17.256387117097304 14.324242089982745 3.0344313404403507 1 1 0
4174 18 1 0 8.72634602695388 22.20837597849825 27.357372140554798 1 0 0
1209 5 2 0 24.130807869125608 17.888624584736128 3.507638678117141 1 1 0
3731 16 1 0 19.42037685686459 11.932961216455706 6.59117330712835 0 1 0
2524 11 1 0 25.943762268955755 16.668328097268443 8.032056539012089 0 0 0
3135 13 1 0 20.064668912810376 16.811240945943126 9.065290575140494 0 2 0
3134 13 1 0 20.889475009297538 16.3655834729761 7.855289423057107 0 2 0
3133 13 1 0 21.99834736491146 15.353663672623624 8.121335922512834 0 2 0
3132 13 1 0 22.510008470019528 14.604680767840662 6.888663266601865 0 2 0
3131 13 1 0 23.6038453552899 13.661806418749828 7.278684598791297 0 2 0
3130 13 1 0 24.000377201012252 12.685861775155233 6.154175798431215 0 2 0
3129 13 1 0 24.789478381948626 13.19338151765062 4.9252338701730345 0 2 0
2525 11 1 0 25.631927264431802 17.8661631771215 7.082356220872245 0 0 0
3128 13 1 0 25.352597659237592 12.029283924800497 3.9876908734108 0 2 0
3127 13 1 0 26.024783574183274 12.538084412499924 2.610646684749545 0 2 0
2526 11 1 0 26.38113202208309 19.151602779782948 7.400969993799954 0 0 0
4329 18 1 0 3.1021538832034796 14.825223931617563 15.088827315989617 1 0 0
970 5 1 0 21.887862816314165 16.557497481610653 3.5558044304508867 1 1 0
2523 11 1 0 27.220014160443167 15.833906937469477 7.647043511700868 0 0 0
972 5 1 0 19.594036816895134 15.288931022514568 3.3547214710276525 1 1 0
3512 15 1 0 23.018408893558274 27.51307851511678 19.495785377599628 1 0 1
969 5 1 0 23.05092762777542 17.10309564432775 2.709267207914905 1 1 0
971 5 1 0 20.7303415697331 16.043488695766104 2.6413408769090685 1 1 0
3164 14 1 0 8.762650207778712 21.019684295017115 6.231617383069274 1 0 0
3165 14 1 0 7.748526789007022 21.324511671027924 7.410446686227049 1 0 0
3166 14 1 0 6.231752009110492 21.549302976786617 7.082754606902796 1 0 0
3167 14 1 0 5.196993459757556 21.66895193534112 8.284077857913168 1 0 0
3168 14 1 0 3.692633465781508 21.889642149711378 7.817696758010591 1 0 0
1673 7 1 0 5.327401209245897 25.809239666790916 3.1981895949355725 1 -2 1
1893 8 1 0 13.10823409415274 2.663257150426144 27.75201365334256 1 0 0
3357 14 1 0 27.805541370948777 6.221936029710156 25.22186996576849 1 1 0
144 1 1 0 4.9328002101986 25.64621486895749 8.8558605722091 1 0 0
3169 14 1 0 3.5666855636088037 22.85253921645507 6.644911874540406 1 0 0
150 1 1 0 10.285953427627042 24.63173056081871 4.821342680899881 1 0 0
149 1 1 0 10.810103478330287 25.463727458010602 6.051590975752012 1 0 0
147 1 1 0 8.354066714341226 25.665591097926978 6.884207323143241 1 0 0
148 1 1 0 9.846721161231462 25.545363198909453 7.266643384549466 1 0 0
145 1 1 0 5.894896532794698 25.874210460325664 7.67657973284472 1 0 0
146 1 1 0 7.366768920523058 25.84674540871723 8.091351857475894 1 0 0
1675 7 1 0 6.400734241427517 23.50232984404061 3.4143145655005247 1 -2 1
151 1 1 0 11.245405362016026 24.715370473994184 3.5816579906657013 1 0 0
3161 14 1 0 9.934078569272444 20.089241489065575 3.2644362015937674 1 0 0
1536 7 1 0 8.344991542856805 27.50628398148584 25.031323855001435 1 -1 0
297 2 1 0 18.4210663806309 20.10690098756485 2.8018285082017425 0 0 1
3137 13 1 0 18.34962573438274 18.635768950390208 9.976274845227845 0 2 0
3458 15 1 0 15.284476930342594 27.389507642075994 18.884652362642726 1 0 1
1676 7 1 0 6.636737651535004 22.138804980741412 2.6295677441473355 1 -2 1
185 1 1 0 10.735267840267158 22.33562516830701 10.296641268578396 1 0 0
3138 13 1 0 17.348065921871907 19.749381591823855 9.571755224995066 0 2 0
3139 13 1 0 16.651284232499826 20.5597025681532 10.706425497253964 0 2 0
184 1 1 0 11.85702202830098 21.496691834994795 9.542574389345125 1 0 0
3831 16 1 0 3.8489287956499267 20.886499494246447 27.74695496119926 0 1 -1
183 1 1 0 12.281565480164947 22.17459167897393 8.195319786172785 1 0 0
1954 9 1 0 14.177113572350205 27.028639928596668 7.126089809858418 1 0 0
1956 9 1 0 13.264878017179148 26.37775808570801 9.589424038730812 1 0 0
180 1 1 0 15.329235473214029 22.803656112155053 5.714504621680307 1 0 0
182 1 1 0 13.572793281628 21.900153276946156 7.524694223832686 1 0 0
181 1 1 0 14.016148282464345 22.925862903071334 6.432588913202626 1 0 0
1955 9 1 0 14.220243924227626 27.248595952763914 8.696987953137938 1 0 0
2192 10 1 0 2.822075812769128 6.109040872783622 20.522925243929915 0 0 0
2535 11 1 0 18.816957927322886 23.875547828850408 8.696195402513052 0 0 0
2536 11 1 0 18.59137290484885 25.370668893479472 8.88588579028319 0 0 0
2537 11 1 0 18.44025411730861 25.608489039502636 10.40641139085943 0 0 0
179 1 1 0 15.62114360628793 23.93282683330464 4.69926093705856 1 0 0
2534 11 1 0 18.82646971466856 23.462359174232986 7.1912339268648005 0 0 0
3513 15 1 0 21.66589561899102 27.14729633923024 18.846449803308875 1 0 1
186 1 1 0 10.076852130525591 21.702122265941995 11.57167937586763 1 0 0
194 1 1 0 2.874341631184109 27.777799556713692 12.983446878394396 1 0 0
2533 11 1 0 20.204024010972315 23.664740436921086 6.504314547035776 0 0 0
2532 11 1 0 20.177332537102632 23.029958634383853 5.0961868426272385 0 0 0
2527 11 1 0 25.991720557427897 20.387583609201755 6.677429178651927 0 0 0
2528 11 1 0 24.471343056312325 20.692104248120415 6.637910311952997 0 0 0
2531 11 1 0 21.578108145222412 22.76825987769163 4.703349438593159 0 0 0
2529 11 1 0 23.842667367456862 21.535424317386788 5.465072258316988 0 0 0
4761 20 1 0 24.538203054537195 25.92573760513727 3.9923536690224535 0 1 1
2530 11 1 0 22.232998275892506 21.631015813851025 5.525258111051007 0 0 0
2465 11 1 0 24.82964736679087 26.908145156595815 8.90266041832843 0 0 0
4762 20 1 0 25.457542975066783 26.50219232781753 5.050361010884655 0 1 1
1921 8 1 0 22.439898078752275 21.912520719703263 10.096224888068047 1 0 0
1919 8 1 0 23.199558336098104 19.471753929445345 10.496967733210358 1 0 0
1922 8 1 0 21.67413394964675 23.074895026095145 10.761807683639939 1 0 0
2467 11 1 0 26.280482465254266 24.61099515575418 8.572504169971454 0 0 0
2466 11 1 0 24.849246094715586 25.282734258622217 8.738392910612781 0 0 0
2468 11 1 0 27.16950355405021 24.86253130322248 9.80686543353714 0 0 0
4693 20 1 0 26.880218673956755 23.071319312455635 25.71194212729778 0 1 0
2463 11 1 0 22.565977207468624 27.512507160732657 7.679257146746301 0 0 0
1084 5 1 0 3.6266168892419155 13.157473347248185 25.287311906035256 1 1 1
3514 15 1 0 20.89326496738924 26.05545595655237 19.59975021495571 1 0 1
1821 8 1 0 4.870362707193954 2.544788509056989 20.346306077091313 1 0 1
4676 20 1 0 22.12925302988913 6.127352988165953 27.250185221842862 0 1 0
2464 11 1 0 23.34405721652303 27.325085608238513 8.947513306631809 0 0 0
4694 20 1 0 26.61948193667584 23.649783044503504 27.083006150451975 0 1 0
751 4 1 0 7.002538055775293 7.532175917704131 10.954299834039226 0 0 1
750 4 1 0 6.843148578523528 6.931952371178692 12.361864308749896 0 0 1
178 1 1 0 16.66113675933417 23.428548615915247 3.7026072513521058 1 0 0
2191 10 1 0 3.3621071489638386 7.6348974446534585 20.61918923115372 0 0 0
749 4 1 0 8.19723988195895 6.778497965161313 13.038854651681895 0 0 1
4231 18 1 0 5.936854512068919 3.1988849172203535 13.448810750742346 1 0 0
1066 5 1 0 2.926172362170326 7.845631766188913 11.587293872000142 1 1 1
748 4 1 0 8.823527234005669 8.149199382360168 13.38767833056743 0 0 1
570 3 1 0 8.144335279426311 10.834858275627212 2.5952322306292173 0 1 1
1068 5 1 0 3.039189806403014 6.010655632838591 13.298516562786421 1 1 1
1071 5 1 0 4.765984338266424 6.702070555734743 16.73082978284775 1 1 1
1069 5 1 0 3.3841199605536936 6.792249707888036 14.58684917752061 1 1 1
1070 5 1 0 4.540907207619449 6.112442679650519 15.29602280785195 1 1 1
1072 5 1 0 6.061659774638342 6.054718795322743 17.382558105015633 1 1 1
1073 5 1 0 6.4932369383456745 6.691885364517835 18.73420346405154 1 1 1
1074 5 1 0 7.278271654811875 7.99405014136357 18.62220611758378 1 1 1
4082 17 1 0 27.403545901985964 3.520515200045187 4.7020314868080515 1 0 0
2257 10 1 0 18.75649800158188 27.361771212949943 23.746920681374842 0 0 0
1819 8 1 0 7.271101476738102 3.26583767731691 20.838536372935916 1 0 1
805 4 1 0 27.85162181580564 24.645440321841974 21.707214670135414 0 0 0
1820 8 1 0 6.272285253343427 2.911036460100005 19.78321867089546 1 0 1
747 4 1 0 9.8372277337929 8.051067274233663 14.491375011797997 0 0 1
746 4 1 0 10.68670834461127 9.310431857387824 14.590658237568999 0 0 1
745 4 1 0 11.679127772325863 9.242509740096324 15.79578761052812 0 0 1
744 4 1 0 11.168338578605095 9.348379554855889 17.186839120686162 0 0 1
3740 16 1 0 12.725367652680353 8.981422916152017 11.42184509321512 0 1 0
3741 16 1 0 13.49764803993264 7.658468099565536 11.133074951041534 0 1 0
1539 7 1 0 11.506193780192715 26.42138046251385 27.28661816215512 1 -1 0
3537 15 1 0 14.541815075181109 2.9195220718256483 14.198341734906021 1 0 1
3534 15 1 0 14.522604922225673 5.864970043222145 15.377816934650713 1 0 1
3535 15 1 0 13.318920748211577 5.040433032462593 14.974249699110095 1 0 1
3533 15 1 0 15.071036338810671 6.573003135958004 14.164813157439195 1 0 1
3532 15 1 0 15.960787567255917 7.773813353109304 14.559212329364124 1 0 1
3536 15 1 0 13.566837289105822 4.0495199393721 13.904185842782935 1 0 1
1905 8 1 0 17.683302910369477 9.806918013981718 18.56793221449625 1 0 0
3724 16 1 0 17.738134375416934 4.625781941452223 11.712384723808734 0 1 0
3098 13 1 0 18.231181730922852 5.607429637649109 18.37201186990753 0 2 0
1906 8 1 0 18.396636056653684 9.986254141290274 17.22649034498331 1 0 0
1904 8 1 0 16.20018454174138 10.320276052185207 18.578966123719425 1 0 0
2378 10 1 0 11.90889672697951 2.8653651885118836 18.653879133532033 0 1 0
3531 15 1 0 16.46762756062114 8.76576583706207 13.482159078518011 1 0 1
2376 10 1 0 11.563408453657802 2.9305501424188947 21.18921825047999 0 1 0
2377 10 1 0 12.142435470682118 3.6642978744825054 19.94996620692476 0 1 0
3096 13 1 0 17.00002162191639 3.421108367860383 17.965935924466834 0 2 0
3097 13 1 0 17.028631369960223 4.915219190376337 17.687481536074444 0 2 0
564 3 1 0 3.8909773413204736 15.372025194915443 6.475383470239802 0 1 1
3099 13 1 0 19.657853400048424 5.15487999162648 17.8623662567459 0 2 0
3722 16 1 0 19.9159274601832 3.04748423143874 11.310050732522646 0 1 0
3108 13 1 0 26.81605759567089 5.334254389139581 10.746453414905377 0 2 0
3100 13 1 0 19.85871086747134 5.323518132783642 16.337039522803348 0 2 0
4734 20 1 0 25.255474253892004 8.984250184062098 11.44449843123677 0 1 1
1907 8 1 0 19.430744749138118 8.962458699868375 16.924352031451974 1 0 0
3101 13 1 0 21.229472532365733 4.976170464413054 15.732149404282177 0 2 0
3103 13 1 0 22.739311691982053 5.056844140838919 13.691837557779055 0 2 0
1908 8 1 0 19.768918883821204 9.089676142972765 15.42897798226555 1 0 0
1388 6 1 0 23.731417227421797 7.611431854907978 17.205980545399342 0 0 -1
3104 13 1 0 22.87160197531313 5.4143233720685995 12.145891918070438 0 2 0
3105 13 1 0 24.227592461663882 5.140971646804568 11.571324364173103 0 2 0
3102 13 1 0 21.3348851921933 5.412746279397892 14.284905606483845 0 2 0
1389 6 1 0 24.512537062120913 8.964687848490009 17.12082858652198 0 0 -1
1390 6 1 0 24.45426937924522 9.55409053952518 15.638189526344389 0 0 -1
694 3 1 0 27.21530023493657 4.359737357856325 16.406868603301884 -1 1 0
688 3 1 0 20.769131580268873 2.579304273140759 20.252459428195948 -1 1 0
1387 6 1 0 23.531015680386187 6.986186020507043 18.637284138835145 0 0 -1
1909 8 1 0 20.296479803013852 10.479845613428221 15.015081275904649 1 0 0
1910 8 1 0 20.626192005500236 10.528199527665668 13.492705872472161 1 0 0
1391 6 1 0 24.99128837444706 10.97273055184379 15.43768314137307 0 0 -1
1392 6 1 0 26.340583936467482 11.178160688218982 16.115867776294095 0 0 -1
1386 6 1 0 24.926982206308345 6.702382235328077 19.316985282138877 0 0 -1
427 2 1 0 6.745963327796247 16.82865870822421 10.456757031915176 1 0 -1
988 5 1 0 4.3512146085675685 12.730019924793565 10.856838468629226 1 1 0
418 2 1 0 5.856481331026012 10.788034781328795 15.281711323599064 1 0 -1
417 2 1 0 4.3850622566558455 11.000482772684018 14.756304969464784 1 0 -1
4330 18 1 0 3.9774543096804367 15.9933738086263 14.605139728338996 1 0 0
420 2 1 0 8.086031920966679 12.047859157443394 15.260744095992058 1 0 -1
419 2 1 0 6.7758629262691885 11.830368983777097 14.521465041306657 1 0 -1
426 2 1 0 8.07136203322641 16.77027371511948 11.242682424856982 1 0 -1
425 2 1 0 7.903742401963915 16.576988806760156 12.76620010275751 1 0 -1
424 2 1 0 9.273087368389046 16.02292849986309 13.307005452328369 1 0 -1
423 2 1 0 9.258530425803482 15.783753519698678 14.790983584789519 1 0 -1
422 2 1 0 8.329583538457126 14.62660283032547 15.187463131815067 1 0 -1
421 2 1 0 8.95188873578789 13.216840551989188 14.746319664526009 1 0 -1
4332 18 1 0 5.231450310511194 15.867428905926594 16.871563582945313 1 0 0
4331 18 1 0 4.603903767567569 16.731623778767702 15.812138868588269 1 0 0
486 3 1 0 11.968474153937914 18.182475627279157 19.964988985080133 0 1 0
485 3 1 0 11.483461247006986 17.28647777094202 18.755682853277957 0 1 0
415 2 1 0 3.6835924421467343 11.65107274402613 17.065470885347622 1 0 -1
416 2 1 0 3.3849990480132464 10.688546099738314 15.859926524340606 1 0 -1
725 3 2 0 9.982847882770372 17.00807214887965 18.693888671712667 0 1 0
2242 10 1 0 10.203248105216616 19.080021278630703 15.102841947674593 0 0 0
2240 10 1 0 7.616801704692847 19.39819776804433 15.51191357867979 0 0 0
4333 18 1 0 5.588846236234909 16.596879773495914 18.23443967042138 1 0 0
743 4 1 0 12.252273759068789 9.066989116460242 18.24974404433063 0 0 1
3530 15 1 0 16.771759301825398 10.175945507330397 13.908525255746138 1 0 1
3529 15 1 0 16.92803444943139 11.231362892370772 12.794072868329533 1 0 1
3528 15 1 0 17.70111456277826 12.54403209215243 13.102124053722191 1 0 1
286 2 1 0 14.040453012935835 15.104850320515473 11.905111388259149 0 0 1
284 2 1 0 12.92897453132014 14.529671324899434 14.094639569656003 0 0 1
285 2 1 0 12.735163800081468 14.813413689479487 12.579526445437075 0 0 1
282 2 1 0 13.996757015299893 13.119183615506985 15.910194604700026 0 0 1
283 2 1 0 13.906688361891957 13.382339565493796 14.406678750740223 0 0 1
3527 15 1 0 17.544161983400706 13.520848349562744 11.939751465040233 1 0 1
281 2 1 0 14.498752116102342 14.272197980860332 16.86780243164634 0 0 1
280 2 1 0 15.067862477683873 13.819152584405046 18.213329739623035 0 0 1
279 2 1 0 15.945041361472954 14.879658079533025 18.894976462584264 0 0 1
278 2 1 0 17.168101741728837 15.417572999479317 18.035472498656546 0 0 1
277 2 1 0 17.748946093850584 16.700015383456993 18.671741063702942 0 0 1
3525 15 1 0 18.66866520811714 15.563256867788475 13.142667020812807 1 0 1
276 2 1 0 18.88420877174154 17.379105290063023 17.89736808588934 0 0 1
3526 15 1 0 18.510823682157632 14.732727307191103 11.875211746755099 1 0 1
2244 10 1 0 12.544122589703472 18.515918949025863 14.239075472071496 0 0 0
2245 10 1 0 13.832119148149363 19.050826012874648 13.64444773311329 0 0 0
2243 10 1 0 11.478659480479182 19.59210390452688 14.44181314478249 0 0 0
2247 10 1 0 15.094532572023123 19.6551357184991 15.894058571044397 0 0 0
1917 8 1 0 23.85069179692026 17.114537409167788 11.415194975724122 1 0 0
1918 8 1 0 22.751288885553844 18.09470480245163 11.030794114957473 1 0 0
268 2 1 0 22.62528405465415 23.581308182014087 23.135209341882124 0 0 1
3524 15 1 0 19.69361021329948 16.745981601954078 13.014835703263397 1 0 1
275 2 1 0 19.793839099879776 18.46749294480887 18.523057889890104 0 0 1
1913 8 1 0 22.783193904015615 13.016758651114465 11.399255414491941 1 0 0
1915 8 1 0 24.369611519987846 14.67274304378921 12.120936212492497 1 0 0
1393 6 1 0 26.80047446957441 12.699954432762908 16.048152911653823 0 0 -1
1916 8 1 0 23.30609606961054 15.682590340047106 11.616470268884058 1 0 0
1914 8 1 0 23.542388937704825 13.488691233516835 12.59857315107257 1 0 0
1912 8 1 0 21.930628967673858 11.735284285909803 11.691854152089103 1 0 0
1911 8 1 0 21.20811948414334 11.840336926593 13.005092115321348 1 0 0
794 4 1 0 22.164381706609138 14.500151977520364 16.56189866045932 0 0 0
793 4 1 0 21.0452906985575 13.987730421079654 17.493792407897068 0 0 0
795 4 1 0 22.80610202580886 15.802157017604658 17.12497466212466 0 0 0
796 4 1 0 23.818732517692684 16.419636428565365 16.12458481749414 0 0 0
797 4 1 0 24.633229053292066 17.544113678575442 16.805426302806666 0 0 0
792 4 1 0 21.51923004799349 13.87404365394549 18.920212675304366 0 0 0
798 4 1 0 26.055669316883563 17.93972518170938 16.27662258633422 0 0 0
799 4 1 0 26.972112671177037 18.82765019368516 17.17652964523703 0 0 0
274 2 1 0 20.727500419639863 17.895120704138918 19.61655508979815 0 0 1
977 5 1 0 13.37234048928268 14.72222250687685 2.651163271961179 1 1 0
1970 9 1 0 7.916688426691582 26.93767549875944 18.439726890710997 1 0 0
4695 20 1 0 25.204981541898206 23.370877696618425 27.58955006212387 0 1 0
1679 7 1 0 5.985074206749852 18.849692764705615 2.4857650814060634 1 -2 1
188 1 1 0 7.980886632441642 23.200882673170522 11.253903641266705 1 0 0
187 1 1 0 9.024303201990783 22.53944152700463 12.197210479524609 1 0 0
2239 10 1 0 6.3012877094959725 20.1192111475598 15.476209668963524 0 0 0
2241 10 1 0 8.9477230525697 20.04029955377598 14.833593378792134 0 0 0
190 1 1 0 7.1319431226184085 24.745076373196415 13.168714138993494 1 0 0
191 1 1 0 5.899912312402683 25.34723548847414 13.969574231682868 1 0 0
189 1 1 0 6.809093350399116 23.901241320882214 11.968834994034447 1 0 0
193 1 1 0 3.668453285737589 26.80945412894417 13.864348480876147 1 0 0
2238 10 1 0 5.8433454256016475 20.282739233041617 14.030034777807389 0 0 0
192 1 1 0 4.921342584712575 26.29809520689321 13.155065663199256 1 0 0
2237 10 1 0 4.3807999331412795 20.712732090188545 14.085028315286594 0 0 0
2236 10 1 0 3.9618592946813376 21.601412515394358 12.921776191320022 0 0 0
1241 6 1 0 4.582800393260701 24.52014867391431 18.731061901277346 1 0 -1
1242 6 1 0 5.538100121181363 23.797218971113413 17.756060737405935 1 0 -1
1243 6 1 0 6.708140637596209 23.41838698408147 18.611791703821474 1 0 -1
1244 6 1 0 7.622295083808461 22.482499205307164 17.86633327851522 1 0 -1
1245 6 1 0 8.489732012078328 21.759170377197893 18.941960582756757 1 0 -1
1952 9 1 0 15.512807931974775 27.604086653274358 4.948505824587183 1 0 0
3140 13 1 0 17.567248724302264 20.896214097467148 11.89156570160594 0 2 0
1957 9 1 0 14.104707170122634 26.0638566298807 10.802382842207777 1 0 0
3141 13 1 0 17.16628335381471 22.238764211701536 12.479361336208395 0 2 0
1958 9 1 0 13.242407491271422 25.221293863881677 11.761967096816813 1 0 0
2190 10 1 0 3.5354320903837833 7.942825617095319 22.088350235765883 0 0 0
1962 9 1 0 11.943082597397481 23.29784573811003 16.335940376969326 1 0 0
3142 13 1 0 18.242235334786997 22.74455071548215 13.529863625058615 0 2 0
1963 9 1 0 12.168562869208728 23.08727359832397 17.861983883285088 1 0 0
2246 10 1 0 14.459736244907916 20.17178915979537 14.538198638712014 0 0 0
2248 10 1 0 15.667642634763311 20.82755410902297 16.77662808673718 0 0 0
1959 9 1 0 13.665685261031417 25.135336813655055 13.337312388705161 1 0 0
1960 9 1 0 12.592758208576138 24.456438954562792 14.163588072415903 1 0 0
1961 9 1 0 12.927323719491477 24.229565586853408 15.645263988226956 1 0 0
3143 13 1 0 17.45618039231945 23.78377263383788 14.342126874752685 0 2 0
3144 13 1 0 18.362285884085065 24.56557677929296 15.305790825293668 0 2 0
3146 13 2 0 17.56645225941955 25.55166796553278 16.23013411018801 0 2 0
2249 10 1 0 16.773948978040256 20.440314242924657 17.723948735004274 0 0 0
1964 9 1 0 12.09999716035898 24.428138300757897 18.57318153050414 1 0 0
2250 10 1 0 16.78887460983548 21.24937998543466 19.045797997036168 0 0 0
2193 10 1 0 2.437302276942326 5.727857398456617 19.124834508956635 0 0 0
1756 8 1 0 26.63679329786821 7.61140471075064 4.993318610460186 0 0 1
414 2 1 0 2.6758867833100832 11.277371634404666 18.192228619561636 1 0 -1
3483 15 1 0 27.389852127036704 19.90780282681535 11.682940925606877 1 0 1
1920 8 1 0 22.1467666293734 20.496376256520556 10.62127752504595 1 0 0
3523 15 1 0 19.71075467405193 17.845224219954872 14.179094586566794 1 0 1
4225 18 1 0 2.5554249094629142 4.374803609220528 8.575581711999828 1 0 0
3522 15 1 0 20.78908156767196 18.90188410533505 13.914650199958396 1 0 1
3478 15 1 0 25.802555884898727 24.633662041237255 15.239199820303027 1 0 1
801 4 1 0 27.067969776109337 20.731664560982903 18.734703934899702 0 0 0
3482 15 1 0 26.959470348569674 21.324053715042865 12.280774078522597 1 0 1
3521 15 1 0 21.369685510242157 19.50350552838866 15.153222310466603 1 0 1
3520 15 1 0 22.47692010592437 20.479115505889023 14.868614207278094 1 0 1
3515 15 1 0 21.632924256041914 24.718530534952265 19.568174233712117 1 0 1
3481 15 1 0 25.766546987176966 21.29641136210447 13.190509829644718 1 0 1
3480 15 1 0 25.360826015520637 22.67599960095689 13.645574175373259 1 0 1
1925 8 1 0 22.264518680840098 25.406579258121333 13.759464344940188 1 0 0
1923 8 1 0 22.29565451030784 23.58175437087874 12.079745805476353 1 0 0
3518 15 1 0 21.952103144651996 22.02986786935322 16.894442247400484 1 0 1
1924 8 1 0 21.745509364417444 24.965275056491592 12.357430681779855 1 0 0
3519 15 1 0 22.954465809095822 21.166165686753622 16.139685470243315 1 0 1
3517 15 1 0 22.565188548560474 22.896973562910567 18.023096061274853 1 0 1