units real
atom_style full
boundary p p p

# --- Force Field Styles ---
pair_style lj/class2/coul/long 9.5 9.5
kspace_style pppm 1e-6
dielectric 1.000000
bond_style class2
angle_style class2
dihedral_style class2
improper_style class2
special_bonds lj/coul 0 0 1
pair_modify mix sixthpower tail yes
neighbor 2.0 bin
neigh_modify delay 0 every 1 check yes
neigh_modify one 4000
# KOKKOS: package loaded via -pk kokkos on the command line

read_data /home/alexzhao/PolyJarvis/data/PEEK4/lammps/equil/npt_compress/npt_compress_out.data
Reading data file ...
  orthogonal box = (7.1375991 7.1375991 7.1375991) to (49.917929 49.917929 49.917929)
  1 by 1 by 1 MPI processor grid
WARNING: Pair style lj/class2/coul/cut/kk in data file differs from currently defined pair style lj/class2/coul/long/kk (src/read_data.cpp:811)
  reading atoms ...
  8720 atoms
  reading velocities ...
  8720 velocities
  scanning bonds ...
  3 = max bonds/atom
  scanning angles ...
  9 = max angles/atom
  scanning dihedrals ...
  18 = max dihedrals/atom
  scanning impropers ...
  4 = max impropers/atom
  orthogonal box = (7.1375991 7.1375991 7.1375991) to (49.917929 49.917929 49.917929)
  1 by 1 by 1 MPI processor grid
  reading bonds ...
  9480 bonds
  reading angles ...
  15104 angles
  reading dihedrals ...
  22512 dihedrals
  reading impropers ...
  4864 impropers
Finding 1-2 1-3 1-4 neighbors ...
  special bond factors lj:    0        0        1       
  special bond factors coul:  0        0        1       
     3 = max # of 1-2 neighbors
     6 = max # of 1-3 neighbors
     9 = max # of special neighbors
  special bonds CPU = 0.005 seconds
  read_data CPU = 0.338 seconds
include /home/alexzhao/PolyJarvis/data/PEEK4/lammps/equil/emc_build.params
# LAMMPS parameters created by EMC v9.4.4, build Jul 31 2025 20:33:44

# Variables

variable	seed		index	734812
variable	ntotal		index	8720
variable	fshape		index	1
variable	output		index	emc_build
variable	field		index	pcff/pcff
variable	location1	index	~/emc/field/
variable	nav		index	0.6022141179
variable	temperature	index	300
variable	radius		index	5
variable	nrelax		index	100
variable	weight_nonbond	index	0.0001
variable	weight_bond	index	0.0001
variable	weight_focus	index	1
variable	cutoff		index	9.5
variable	charge_cutoff	index	9.5
variable	kappa		index	4
variable	density1	index	0.66
variable	lprevious	index	0
variable	lphase		index	57.0555285531
variable	f_poly		index	8
variable	chem_repeat	index	*Oc1ccc(Oc2ccc(C(=O)c3ccc(cc3)*)cc2)cc1
variable	chem_cap	index	*[H]
variable	lg_repeat	index	34
variable	lg_cap		index	1
variable	norm_poly	index	100
variable	l_poly		index	1090
variable	mg_repeat	index	260.29514
variable	mg_cap		index	0
variable	m_poly		index	8329.44448
variable	n_poly		index	8
variable	mtotal		index	73822.38416
variable	nphase1		index	8720
variable	mphase1		index	73822.38416
variable	vphase1		index	185734.764243
variable	lbox		index	57.0555285531
variable	lphase1		index	57.0555285531
variable	lxx		index	57.0555285531
variable	lyy		index	57.0555285531
variable	lzz		index	57.0555285531
variable	lzy		index	0
variable	lzx		index	0
variable	lyx		index	0
variable	vtotal		index	185734.764243
variable	nl_poly		index	8

# Types

variable	type_c_0	index	1
variable	type_cp		index	2
variable	type_hc		index	3
variable	type_ho		index	4
variable	type_o_1	index	5
variable	type_oc		index	6
variable	type_oh		index	7

variable	type_bond_c_0_cp index	1
variable	type_bond_c_0_o_1 index	2
variable	type_bond_cp_cp	index	3
variable	type_bond_cp_hc	index	4
variable	type_bond_cp_oc	index	5
variable	type_bond_cp_oh	index	6
variable	type_bond_ho_oh	index	7

variable	type_angle_c_0_cp_cp index	1
variable	type_angle_cp_c_0_cp index	2
variable	type_angle_cp_c_0_o_1 index	3
variable	type_angle_cp_cp_cp index	4
variable	type_angle_cp_cp_hc index	5
variable	type_angle_cp_cp_oc index	6
variable	type_angle_cp_cp_oh index	7
variable	type_angle_cp_oc_cp index	8
variable	type_angle_cp_oh_ho index	9

# Clusters

variable	n0_poly		index	1
variable	n1_poly		index	8
variable	nl_poly		index	8

# Flags

variable	flag_charged	index	1

# Masses

mass		1    12.01115  # c_0
mass		2    12.01115  # cp
mass		3     1.00797  # hc
mass		4     1.00797  # ho
mass		5    15.99940  # o_1
mass		6    15.99940  # oc
mass		7    15.99940  # oh

# Potentials

pair_modify	mix sixthpower tail yes
special_bonds	lj/coul 0 0 1

# Pair Coeffs

pair_coeff	 1  1    0.12000    3.30800  # c_0,c_0
pair_coeff	 2  2    0.06400    4.01000  # cp,cp
pair_coeff	 3  3    0.02000    2.99500  # hc,hc
pair_coeff	 4  4    0.01300    1.09800  # ho,ho
pair_coeff	 5  5    0.26700    3.30000  # o_1,o_1
pair_coeff	 6  6    0.24000    3.53500  # oc,oc
pair_coeff	 7  7    0.24000    3.53500  # oh,oh

# Bond Coeffs

bond_coeff	1    1.48900  339.35740 -655.72360  670.23620  # c_0,cp
bond_coeff	2    1.21600  823.79480 -1878.79400 2303.53110  # c_0,o_1
bond_coeff	3    1.41700  470.83610 -627.61790 1327.63450  # cp,cp
bond_coeff	4    1.09820  372.82510 -803.45260  894.31730  # cp,hc
bond_coeff	5    1.37680  428.87980 -738.23510 1114.96550  # cp,oc
bond_coeff	6    1.37680  428.87980 -738.23510 1114.96550  # cp,oh
bond_coeff	7    0.96500  532.50620 -1282.90500 2004.76580  # ho,oh

# Angle Coeffs

angle_coeff	1  108.40000   43.95940   -8.39240   -9.33790  # c_0,cp,cp
angle_coeff	2  110.58840   34.62140   -7.09390   -7.40320  # cp,c_0,cp
angle_coeff	3  119.30000   65.10160  -17.97660    0.00000  # cp,c_0,o_1
angle_coeff	4  118.90000   61.02260  -34.99310    0.00000  # cp,cp,cp
angle_coeff	5  117.94000   35.15580  -12.46820    0.00000  # cp,cp,hc
angle_coeff	6  123.42000   73.67810  -21.67870    0.00000  # cp,cp,oc
angle_coeff	7  123.42000   73.67810  -21.67870    0.00000  # cp,cp,oh
angle_coeff	8  109.50000   60.00000    0.00000    0.00000  # cp,oc,cp
angle_coeff	9  108.19000   53.12500   -8.50160    0.00000  # cp,oh,ho

# BondBond Coeffs

angle_coeff	1 bb    0.00000    1.48900    1.41700  # c_0,cp,cp
angle_coeff	2 bb    0.00000    1.48900    1.48900  # cp,c_0,cp
angle_coeff	3 bb    0.00000    1.48900    1.21600  # cp,c_0,o_1
angle_coeff	4 bb   68.28560    1.41700    1.41700  # cp,cp,cp
angle_coeff	5 bb    1.07950    1.41700    1.09820  # cp,cp,hc
angle_coeff	6 bb   48.47540    1.41700    1.37680  # cp,cp,oc
angle_coeff	7 bb   48.47540    1.41700    1.37680  # cp,cp,oh
angle_coeff	8 bb    0.00000    1.37680    1.37680  # cp,oc,cp
angle_coeff	9 bb   20.65770    1.37680    0.96500  # cp,oh,ho

# BondAngle Coeffs

angle_coeff	1 ba    0.00000    0.00000    1.48900    1.41700  # c_0,cp,cp
angle_coeff	2 ba    0.00000    0.00000    1.48900    1.48900  # cp,c_0,cp
angle_coeff	3 ba    0.00000    0.00000    1.48900    1.21600  # cp,c_0,o_1
angle_coeff	4 ba   28.87080   28.87080    1.41700    1.41700  # cp,cp,cp
angle_coeff	5 ba   20.00330   24.21830    1.41700    1.09820  # cp,cp,hc
angle_coeff	6 ba   58.47900  107.68060    1.41700    1.37680  # cp,cp,oc
angle_coeff	7 ba   58.47900  107.68060    1.41700    1.37680  # cp,cp,oh
angle_coeff	8 ba    0.00000    0.00000    1.37680    1.37680  # cp,oc,cp
angle_coeff	9 ba   53.86140   23.92240    1.37680    0.96500  # cp,oh,ho

# Dihedral Coeffs

dihedral_coeff	 1    0.00000    0.00000    4.62820    0.00000    0.00000    0.00000  # c_0,cp,cp,cp
dihedral_coeff	 2    0.00000    0.00000    2.16700    0.00000    0.00000    0.00000  # c_0,cp,cp,hc
dihedral_coeff	 3    0.00000    0.00000    2.50000    0.00000    0.00000    0.00000  # cp,c_0,cp,cp
dihedral_coeff	 4    0.00000    0.00000    0.90630    0.00000    0.00000    0.00000  # cp,cp,c_0,o_1
dihedral_coeff	 5    8.36670    0.00000    1.19320    0.00000    0.00000    0.00000  # cp,cp,cp,cp
dihedral_coeff	 6    0.00000    0.00000    3.96610    0.00000    0.00000    0.00000  # cp,cp,cp,hc
dihedral_coeff	 7    0.00000    0.00000    4.84980    0.00000    0.00000    0.00000  # cp,cp,cp,oc
dihedral_coeff	 8    0.00000    0.00000    4.84980    0.00000    0.00000    0.00000  # cp,cp,cp,oh
dihedral_coeff	 9    0.00000    0.00000    1.80000    0.00000    0.00000    0.00000  # cp,cp,oc,cp
dihedral_coeff	10   -0.69000    0.00000    0.50970    0.00000    0.00950    0.00000  # cp,cp,oh,ho
dihedral_coeff	11    0.00000    0.00000    1.87690    0.00000    0.00000    0.00000  # hc,cp,cp,hc
dihedral_coeff	12    0.00000    0.00000    1.72340    0.00000    0.00000    0.00000  # hc,cp,cp,oc
dihedral_coeff	13    0.00000    0.00000    1.72340    0.00000    0.00000    0.00000  # hc,cp,cp,oh

# MiddleBondTorsion Coeffs

dihedral_coeff	 1 mbt    0.00000    0.00000    0.00000    1.41700  # c_0,cp,cp,cp
dihedral_coeff	 2 mbt    0.00000    0.00000    0.00000    1.41700  # c_0,cp,cp,hc
dihedral_coeff	 3 mbt    0.00000    0.00000    0.00000    1.48900  # cp,c_0,cp,cp
dihedral_coeff	 4 mbt    0.00000    0.00000    0.00000    1.48900  # cp,cp,c_0,o_1
dihedral_coeff	 5 mbt   27.59890   -2.31200    0.00000    1.41700  # cp,cp,cp,cp
dihedral_coeff	 6 mbt    0.00000   -1.15210    0.00000    1.41700  # cp,cp,cp,hc
dihedral_coeff	 7 mbt    0.00000    4.82550    0.00000    1.41700  # cp,cp,cp,oc
dihedral_coeff	 8 mbt    0.00000    4.82550    0.00000    1.41700  # cp,cp,cp,oh
dihedral_coeff	 9 mbt    0.00000    0.00000    0.00000    1.37680  # cp,cp,oc,cp
dihedral_coeff	10 mbt    1.15800    3.26970    3.51320    1.37680  # cp,cp,oh,ho
dihedral_coeff	11 mbt    0.00000    4.82280    0.00000    1.41700  # hc,cp,cp,hc
dihedral_coeff	12 mbt    0.00000    5.54320    0.00000    1.41700  # hc,cp,cp,oc
dihedral_coeff	13 mbt    0.00000    5.54320    0.00000    1.41700  # hc,cp,cp,oh

# EndBondTorsion Coeffs

dihedral_coeff	 1 ebt    0.00000    0.00000    0.00000    0.00000    0.00000    0.00000    1.48900    1.41700  # c_0,cp,cp,cp
dihedral_coeff	 2 ebt    0.00000    0.00000    0.00000    0.00000    0.00000    0.00000    1.48900    1.09820  # c_0,cp,cp,hc
dihedral_coeff	 3 ebt    0.00000    0.00000    0.00000    0.00000    0.00000    0.00000    1.48900    1.41700  # cp,c_0,cp,cp
dihedral_coeff	 4 ebt    0.00000    0.00000    0.00000    0.00000    0.00000    0.00000    1.41700    1.21600  # cp,cp,c_0,o_1
dihedral_coeff	 5 ebt   -0.11850    6.32040    0.00000   -0.11850    6.32040    0.00000    1.41700    1.41700  # cp,cp,cp,cp
dihedral_coeff	 6 ebt    0.00000   -6.89580    0.00000    0.00000   -0.46690    0.00000    1.41700    1.09820  # cp,cp,cp,hc
dihedral_coeff	 7 ebt    0.00000    0.26550    0.00000    0.00000    4.89050    0.00000    1.41700    1.37680  # cp,cp,cp,oc
dihedral_coeff	 8 ebt    0.00000    0.26550    0.00000    0.00000    4.89050    0.00000    1.41700    1.37680  # cp,cp,cp,oh
dihedral_coeff	 9 ebt    0.00000    0.00000    0.00000    0.00000    0.00000    0.00000    1.41700    1.37680  # cp,cp,oc,cp
dihedral_coeff	10 ebt    0.90000   -1.34560    1.19000    3.41320    0.58730   -0.13230    1.41700    0.96500  # cp,cp,oh,ho
dihedral_coeff	11 ebt    0.00000   -0.68900    0.00000    0.00000   -0.68900    0.00000    1.09820    1.09820  # hc,cp,cp,hc
dihedral_coeff	12 ebt    0.00000   -1.58670    0.00000    0.00000    4.26410    0.00000    1.09820    1.37680  # hc,cp,cp,oc
dihedral_coeff	13 ebt    0.00000   -1.58670    0.00000    0.00000    4.26410    0.00000    1.09820    1.37680  # hc,cp,cp,oh

# AngleTorsion Coeffs

dihedral_coeff	 1 at    0.00000    0.00000    0.00000    0.00000    0.00000    0.00000  108.40000  118.90000  # c_0,cp,cp,cp
dihedral_coeff	 2 at    0.00000    0.00000    0.00000    0.00000    0.00000    0.00000  108.40000  117.94000  # c_0,cp,cp,hc
dihedral_coeff	 3 at    0.00000    0.00000    0.00000    0.00000    0.00000    0.00000  110.58840  108.40000  # cp,c_0,cp,cp
dihedral_coeff	 4 at    0.00000    0.00000    0.00000    0.00000    0.00000    0.00000  108.40000  119.30000  # cp,cp,c_0,o_1
dihedral_coeff	 5 at    1.97670    1.02390    0.00000    1.97670    1.02390    0.00000  118.90000  118.90000  # cp,cp,cp,cp
dihedral_coeff	 6 at    0.00000    2.50140    0.00000    0.00000    2.71470    0.00000  118.90000  117.94000  # cp,cp,cp,hc
dihedral_coeff	 7 at    0.00000   10.01550    0.00000    0.00000    1.74040    0.00000  118.90000  123.42000  # cp,cp,cp,oc
dihedral_coeff	 8 at    0.00000   10.01550    0.00000    0.00000    1.74040    0.00000  118.90000  123.42000  # cp,cp,cp,oh
dihedral_coeff	 9 at    0.00000    0.00000    0.00000    0.00000    0.00000    0.00000  123.42000  109.50000  # cp,cp,oc,cp
dihedral_coeff	10 at   -5.13600   -1.01220    0.00000    4.68520    0.02300   -0.59800  123.42000  108.19000  # cp,cp,oh,ho
dihedral_coeff	11 at    0.00000    2.45010    0.00000    0.00000    2.45010    0.00000  117.94000  117.94000  # hc,cp,cp,hc
dihedral_coeff	12 at    0.00000    1.87290    0.00000    0.00000    2.57060    0.00000  117.94000  123.42000  # hc,cp,cp,oc
dihedral_coeff	13 at    0.00000    1.87290    0.00000    0.00000    2.57060    0.00000  117.94000  123.42000  # hc,cp,cp,oh

# AngleAngleTorsion Coeffs

dihedral_coeff	 1 aat    0.00000  108.40000  118.90000  # c_0,cp,cp,cp
dihedral_coeff	 2 aat    0.00000  108.40000  117.94000  # c_0,cp,cp,hc
dihedral_coeff	 3 aat    0.00000  110.58840  108.40000  # cp,c_0,cp,cp
dihedral_coeff	 4 aat    0.00000  108.40000  119.30000  # cp,cp,c_0,o_1
dihedral_coeff	 5 aat    0.00000  118.90000  118.90000  # cp,cp,cp,cp
dihedral_coeff	 6 aat   -4.81410  118.90000  117.94000  # cp,cp,cp,hc
dihedral_coeff	 7 aat  -21.02470  118.90000  123.42000  # cp,cp,cp,oc
dihedral_coeff	 8 aat  -21.02470  118.90000  123.42000  # cp,cp,cp,oh
dihedral_coeff	 9 aat    0.00000  123.42000  109.50000  # cp,cp,oc,cp
dihedral_coeff	10 aat   -4.60720  123.42000  108.19000  # cp,cp,oh,ho
dihedral_coeff	11 aat    0.35980  117.94000  117.94000  # hc,cp,cp,hc
dihedral_coeff	12 aat    4.22960  117.94000  123.42000  # hc,cp,cp,oc
dihedral_coeff	13 aat    4.22960  117.94000  123.42000  # hc,cp,cp,oh

# BondBond13 Coeffs

dihedral_coeff	 1 bb13    0.00000    1.48900    1.41700  # c_0,cp,cp,cp
dihedral_coeff	 2 bb13    0.00000    1.48900    1.09820  # c_0,cp,cp,hc
dihedral_coeff	 3 bb13    0.00000    1.48900    1.41700  # cp,c_0,cp,cp
dihedral_coeff	 4 bb13    0.00000    1.41700    1.21600  # cp,cp,c_0,o_1
dihedral_coeff	 5 bb13   53.00000    1.41700    1.41700  # cp,cp,cp,cp
dihedral_coeff	 6 bb13   -6.27410    1.41700    1.09820  # cp,cp,cp,hc
dihedral_coeff	 7 bb13   -2.24360    1.41700    1.37680  # cp,cp,cp,oc
dihedral_coeff	 8 bb13   -2.24360    1.41700    1.37680  # cp,cp,cp,oh
dihedral_coeff	 9 bb13    0.00000    1.41700    1.37680  # cp,cp,oc,cp
dihedral_coeff	10 bb13    1.15900    1.41700    0.96500  # cp,cp,oh,ho
dihedral_coeff	11 bb13   -1.70770    1.09820    1.09820  # hc,cp,cp,hc
dihedral_coeff	12 bb13    2.05170    1.09820    1.37680  # hc,cp,cp,oc
dihedral_coeff	13 bb13    2.05170    1.09820    1.37680  # hc,cp,cp,oh

# Improper Coeffs

improper_coeff	1   38.79490    0.00000  # c_0,cp,cp,o_1
improper_coeff	2    0.00000    0.00000  # cp,c_0,cp,cp
improper_coeff	3    4.89120    0.00000  # cp,cp,cp,hc
improper_coeff	4   13.04210    0.00000  # cp,cp,cp,oc
improper_coeff	5   13.04210    0.00000  # cp,cp,cp,oh

# AngleAngle Coeffs

improper_coeff	1 aa    0.00000    0.00000    0.00000  110.58840  119.30000  119.30000  # c_0,cp,cp,o_1
improper_coeff	2 aa    0.00000    0.00000    0.00000  108.40000  108.40000  118.90000  # cp,c_0,cp,cp
improper_coeff	3 aa    0.00000    0.00000    0.00000  118.90000  117.94000  117.94000  # cp,cp,cp,hc
improper_coeff	4 aa    0.00000    0.00000    0.00000  118.90000  123.42000  123.42000  # cp,cp,cp,oc
improper_coeff	5 aa    0.00000    0.00000    0.00000  118.90000  123.42000  123.42000  # cp,cp,cp,oh


# --- Thermo Output ---
thermo_style custom step time temp press enthalpy etotal ke pe ebond eangle edihed eimp evdwl ecoul elong etail vol lx ly lz density pxx pyy pzz
thermo_modify flush yes
thermo 1000

# --- Trajectory ---
dump dump_npt all custom 1000 npt_pppm.dump id type mol x y z ix iy iz vx vy vz

# --- Restart Checkpointing ---
restart 10000 npt_1.rst npt_2.rst

# --- Initial Velocities (optional) ---
# Velocities read from data file

# --- SHAKE Constraints ---
# SHAKE disabled

# --- NPT Thermostat + Barostat (Nose-Hoover) ---
# T_damp = 100.0 fs  (heat bath coupling)
# P_damp = 1000.0 fs  (pressure bath coupling, ~10x T_damp typical)
# Ramp: T=850.0->850.0K  P=50000.0->1.0atm
timestep 1.0
fix npt_fix all npt temp 850.0 850.0 100.0 iso 50000.0 1.0 1000.0

run 500000
PPPM Kokkos initialization ...
  using 12-bit tables for long-range coulomb
  G vector (1/distance) = 0.31443998
  grid = 36 36 36
  stencil order = 5
  estimated absolute RMS force accuracy = 0.00028667451
  estimated relative force accuracy = 8.6331176e-07
  using double precision cuFFT
  3d grid and FFT values/proc = 79507 46656
Generated 21 of 21 mixed pair_coeff terms from sixthpower/sixthpower mixing rule
Neighbor list info ...
  update: every = 1 steps, delay = 0 steps, check = yes
  max neighbors/atom: 4000, page size: 100000
  master list distance cutoff = 11.5
  ghost atom cutoff = 11.5
  binsize = 11.5, bins = 4 4 4
  1 neighbor lists, perpetual/occasional/extra = 1 0 0
  (1) pair lj/class2/coul/long/kk, perpetual
      attributes: full, newton off, kokkos_device
      pair build: full/bin/kk/device
      stencil: full/bin/3d
      bin: kk/device
Per MPI rank memory allocation (min/avg/max) = 39.34 | 39.34 | 39.34 Mbytes
   Step          Time           Temp          Press         Enthalpy        TotEng         KinEng         PotEng         E_bond        E_angle        E_dihed        E_impro         E_vdwl         E_coul         E_long         E_tail         Volume           Lx             Ly             Lz          Density          Pxx            Pyy            Pzz      
         0   0              850.62399      50255.116      117208.8       59825.098      22107.448      37717.651      9144.7105      9441.1851      9769.1961      1253.3803      2698.4906      16029.814     -10619.126     -1026.7362      78294.707      42.78033       42.78033       42.78033       1.5656862      48752.936      50749.876      51262.536    
      1000   1000           847.86393      49919.119      117103.15      60007.707      22035.715      37971.992      9484.2808      9486.8759      9462.773       1260.609       2886.7203      16011.014     -10620.281     -1025.0208      78425.741      42.804183      42.804183      42.804183      1.5630703      48711.41       50815.065      50230.882    
      2000   2000           851.60653      51239.283      118145.16      59655.232      22132.984      37522.248      9134.8275      9233.9863      9529.5994      1259.1016      2960.4142      16026.403     -10622.084     -1027.0442      78271.231      42.776054      42.776054      42.776054      1.5661558      49951.205      51941.222      51825.422    
      3000   3000           858.43572      52355.957      119796.42      59786.88       22310.472      37476.408      9343.294       9353.9886      9429.5426      1242.4081      2690.897       16028.437     -10612.159     -1022.8524      78591.995      42.834408      42.834408      42.834408      1.5597637      52058.655      52737.313      52271.903    
      4000   4000           846.88053      47944.024      114668.79      59902.215      22010.156      37892.058      9392.9454      9418.4543      9701.8082      1271.61        2650.8812      16066.523     -10610.164     -1026.3277      78325.872      42.786006      42.786006      42.786006      1.5650632      45318.768      51302.959      47210.344    
      5000   5000           860.50295      48052.793      115326.82      60070.514      22364.199      37706.315      9428.343       9436.4113      9583.1621      1286.3207      2530.5245      16054.736     -10613.183     -1019.5392      78847.397      42.880758      42.880758      42.880758      1.5547113      47805.432      45790.353      50562.595    
      6000   6000           852.88628      49182.179      115950.17      59635.164      22166.244      37468.92       9456.1148      9368.7697      9382.4982      1257.5378      2594.8591      16029.842     -10620.702     -1023.8842      78512.797      42.820015      42.820015      42.820015      1.5613371      48387.831      50598.811      48559.895    
      7000   7000           848.34225      49124.945      116504.9       60026.942      22048.146      37978.796      9501.9434      9589.7117      9577.6468      1251.8473      2623.3052      16044.23      -10609.888     -1019.7419      78831.722      42.877916      42.877916      42.877916      1.5550205      48071.621      49381.114      49922.099    
      8000   8000           842.39995      49939.207      117130.44      59934.425      21893.708      38040.717      9504.2541      9485.7564      9618.62        1272.9027      2730.9354      16040.249     -10612.001     -1023.63        78532.291      42.823559      42.823559      42.823559      1.5609495      46643.223      53508.529      49665.871    
      9000   9000           850.17474      48686.963      115570.04      59639.405      22095.772      37543.633      9459.4061      9427.2341      9520.7336      1259.3551      2447.7418      16039.621     -10610.459     -1020.5401      78770.064      42.866734      42.866734      42.866734      1.5562377      47541.989      49268.389      49250.513    
     10000   10000          847.09061      49509.455      116563.67      59634.312      22015.616      37618.696      9471.5601      9407.4804      9608.5636      1258.2286      2443.2991      16040.193     -10610.629     -1019.5746      78844.659      42.880262      42.880262      42.880262      1.5547653      48969.105      51542.17       48017.09     
     11000   11000          851.70953      47204.528      113883.08      59759.81       22135.661      37624.149      9363.4025      9301.7021      9650.6235      1261.0984      2633.2848      16026.363     -10612.325     -1022.5082      78618.451      42.839214      42.839214      42.839214      1.5592388      46126.427      46700.292      48786.865    
     12000   12000          839.30438      48023.103      115157.5       60193.441      21813.255      38380.187      9668.0471      9470.988       9805.0825      1294.0707      2725.2814      16030.907     -10614.191     -1024.327       78478.855      42.813844      42.813844      42.813844      1.5620124      46174.807      50059.886      47834.615    
     13000   13000          854.19391      48946.787      115951.87      59810.904      22200.229      37610.676      9521.0672      9211.0764      9639.8068      1250.5517      2558.0452      16048.859     -10618.73      -1022.1426      78646.572      42.844321      42.844321      42.844321      1.5586813      49114.156      46971.327      50754.88     
     14000   14000          855.26862      48059.53       114654.33      59546.544      22228.16       37318.383      9691.7759      9063.0126      9451.076       1239.2522      2450.9976      16034.18      -10611.911     -1022.4305      78624.431      42.8403        42.8403        42.8403        1.5591202      50195.695      47347.432      46635.464    
     15000   15000          848.16318      46455.975      112742.01      59454.53       22043.492      37411.037      9278.5412      9280.3404      9616.5704      1256.4472      2544.6276      16044.349     -10609.839     -1022.077       78651.621      42.845238      42.845238      42.845238      1.5585813      44665.388      46130.644      48571.895    
     16000   16000          849.80347      50632.066      117886.43      59780.486      22086.123      37694.363      9524.7786      9277.5258      9642.1874      1270.0579      2536.5835      16054.755     -10611.525     -1021.5797      78689.906      42.852189      42.852189      42.852189      1.557823       48506.321      52602.381      50787.497    
     17000   17000          842.08545      45686.948      111728.94      59218.486      21885.534      37332.952      9234.2057      9404.3218      9605.641       1261.1037      2388.4129      16054.065     -10614.798     -1020.0314      78809.355      42.87386       42.87386       42.87386       1.5554618      45876.622      45934.535      45249.686    
     18000   18000          852.75198      46571.019      113240.21      59789.051      22162.753      37626.298      9243.0304      9222.0123      9840.6818      1288.968       2599.8728      16048.558     -10616.826     -1021.4705      78698.32       42.853716      42.853716      42.853716      1.5576564      48801.629      41927.623      48983.805    
     19000   19000          850.51327      49921.785      117047.37      59700.817      22104.57       37596.247      9466.0173      9412.34        9528.2927      1241.8208      2508.4116      16058.158     -10618.794     -1020.5868      78766.461      42.866081      42.866081      42.866081      1.5563089      50328.327      48127.566      51309.461    
     20000   20000          841.79392      43939.237      110034.93      59306.652      21877.957      37428.695      9355.0926      9268.742       9716.0004      1305.6259      2366.247       16029.18      -10612.192     -1015.4758      79162.901      42.937877      42.937877      42.937877      1.548515       43278.872      43462.11       45076.728    
     21000   21000          860.45989      44930.389      111793.15      60287.055      22363.08       37923.975      9436.9506      9315.3993      9874.7483      1279.7642      2584.8721      16043.882     -10611.641     -1022.7012      78603.616      42.836519      42.836519      42.836519      1.5595331      46178.746      41810.706      46801.716    
     22000   22000          858.15228      48832.629      116062.49      59953.389      22303.105      37650.283      9401.5614      9351.4991      9670.1395      1274.8317      2517.2058      16046.526     -10611.48      -1020.3378      78785.682      42.869567      42.869567      42.869567      1.5559292      48258.306      48989.425      49250.157    
     23000   23000          856.14837      46890.523      113604.32      59656.153      22251.025      37405.128      9421.2469      9341.3391      9566.7568      1264.7435      2357.5977      16060.462     -10607.018     -1019.0033      78888.868      42.888275      42.888275      42.888275      1.5538941      48250.94       47502.472      44918.158    
     24000   24000          842.1691       48889.287      115734.24      59429.046      21887.708      37541.338      9262.3512      9581.6443      9475.3082      1241.5765      2556.9213      16046.021     -10622.484     -1017.964       78969.408      42.902865      42.902865      42.902865      1.5523092      50170.495      49398.68       47098.687    
     25000   25000          859.73389      48436.671      115624.67      59979.461      22344.211      37635.25       9498.7209      9386.2752      9723.1434      1265.7599      2319.5448      16053.935     -10612.129     -1020.5016      78773.042      42.867274      42.867274      42.867274      1.5561789      47831.886      49109.227      48368.899    
     26000   26000          840.92111      49431.875      116053.87      59300.508      21855.273      37445.235      9239.5969      9328.3205      9706.9681      1281.1705      2455.9669      16045.169     -10611.956     -1021.1338      78724.267      42.858425      42.858425      42.858425      1.557143       49529.777      50211.707      48554.139    
     27000   27000          860.63468      45658.145      112138.79      59386.284      22367.622      37018.661      9341.5738      9227.2821      9357.2691      1256.6422      2391.7376      16059.533     -10615.376     -1014.7109      79222.579      42.948664      42.948664      42.948664      1.5473486      46566.847      45410.495      44997.092    
     28000   28000          851.88292      47184.109      113924.6       59716.105      22140.167      37575.938      9430.2311      9409.4271      9534.4725      1271.867       2531.8122      16019.898     -10621.77      -1020.4591      78776.322      42.867869      42.867869      42.867869      1.5561141      46965.202      46716.805      47870.32     
     29000   29000          834.8836       51253.7        118265.91      59191.821      21698.36       37493.461      9492.5197      9452.3372      9515.2319      1243.6915      2377.4601      16026.213     -10613.993     -1017.1742      79030.721      42.913965      42.913965      42.913965      1.5511049      49655.549      52796.879      51308.671    
     30000   30000          858.79892      48226.841      115364.69      59815.282      22319.912      37495.371      9556.226       9540.1465      9401.8389      1174.4125      2388.9767      16047.988     -10614.218     -1017.833       78979.568      42.904705      42.904705      42.904705      1.5521096      49288.517      50184.266      45207.741    
     31000   31000          852.88999      48534.195      115775.57      59901.926      22166.34       37735.586      9312.4208      9536.6666      9572.8912      1267.952       2597.5058      16066.028     -10617.878     -1018.3757      78937.48       42.897082      42.897082      42.897082      1.5529371      48471.236      46823.797      50307.551    
     32000   32000          859.48135      45521.201      112101.14      59724.136      22337.648      37386.489      9443.2045      9272.5617      9551.5923      1264.1704      2470.9128      16003.406     -10619.359     -1018.9205      78895.279      42.889436      42.889436      42.889436      1.5537678      46056.858      48547.497      41959.246    
     33000   33000          841.68816      44732.614      111035.73      59430.642      21875.208      37555.433      9417.8288      9206.1384      9765.4353      1265.4318      2469.0655      16043.266     -10611.732     -1016.2462      79102.891      42.927024      42.927024      42.927024      1.5496898      44291.227      45703.399      44203.217    
     34000   34000          850.74332      47762.502      115303.28      60342.74       22110.549      38232.191      9355.1654      9603.1677      9947.2539      1248.4043      2656.8346      16036.344     -10614.979     -1018.8337      78902          42.890654      42.890654      42.890654      1.5536354      49702.907      47434.459      46150.14     
     35000   35000          863.10574      48007.808      115142.92      59697.715      22431.844      37265.871      9548.3058      9344.6813      9462.3718      1265.0217      2222.1026      16044.945     -10621.557     -1015.1146      79191.07       42.942969      42.942969      42.942969      1.5479642      48723.695      48374.538      46925.191    
     36000   36000          853.58495      46357.052      112730.45      59311.443      22184.402      37127.041      9327.373       9494.2648      9398.7652      1216.3206      2289.3944      16023.218     -10622.295     -1017.3894      79014.01       42.910941      42.910941      42.910941      1.551433       46702.435      46159.729      46208.992    
     37000   37000          858.87551      45750.672      112573.77      59683.856      22321.902      37361.954      9395.9861      9459.0178      9579.2756      1271.2706      2267.0514      16006.781     -10617.429     -1014.1257      79268.291      42.956923      42.956923      42.956923      1.5464562      47614.701      43365.637      46271.678    
     38000   38000          853.75843      45631.982      112332.33      59726.766      22188.911      37537.855      9500.1964      9370.0678      9628.4971      1255.1345      2356.5905      16038.361     -10610.992     -1016.9623      79047.193      42.916947      42.916947      42.916947      1.5507817      44741.933      46034.96       46119.052    
     39000   39000          846.84678      46288.188      112848.83      59397.829      22009.279      37388.55       9342.3773      9352.3134      9635.4896      1322.3108      2324.6829      16029.061     -10617.684     -1015.2699      79178.962      42.940781      42.940781      42.940781      1.5482009      46176.285      45415.949      47272.332    
     40000   40000          850.38574      47820.336      114624.43      59328.432      22101.256      37227.176      9328.93        9426.5938      9479.8026      1260.8651      2286.2203      16062.298     -10617.533     -1013.8789      79287.59       42.960409      42.960409      42.960409      1.5460798      50379.352      45665.789      47415.866    
     41000   41000          862.09174      43265.155      109841.27      59707.844      22405.491      37302.353      9347.5687      9375.9342      9703.0204      1236.9406      2208.2568      16044.829     -10614.196     -1011.7614      79453.53       42.990358      42.990358      42.990358      1.5428508      42464.214      43635.524      43695.728    
     42000   42000          839.11698      45513.814      111882.59      59474.49       21808.384      37666.106      9440.5679      9214.8075      9817.0484      1294.8455      2495.5632      16020.506     -10617.232     -1018.1506      78954.931      42.900243      42.900243      42.900243      1.5525939      45821.667      44926.794      45792.981    
     43000   43000          848.0906       44603.681      110974.17      59420.1        22041.606      37378.494      9326.9284      9361.4511      9700.0409      1261.7159      2315.3585      16031.927     -10618.928     -1014.3198      79253.122      42.954183      42.954183      42.954183      1.5467522      43973.449      45693.671      44143.923    
     44000   44000          848.22663      45913.297      112367.65      59240.386      22045.141      37195.246      9569.9248      9363.4248      9455.8527      1211.7396      2169.6829      16038.823     -10614.202     -1013.1837      79341.993      42.970232      42.970232      42.970232      1.5450197      47963.647      47529.905      42246.34     
     45000   45000          843.2316       45904.232      112589.35      59500.843      21915.322      37585.521      9343.949       9468.3249      9786.4581      1297.9477      2275.3381      16025.342     -10611.839     -1013.7232      79299.766      42.962608      42.962608      42.962608      1.5458424      49098.255      45749.778      42864.665    
     46000   46000          840.56925      42461.514      108714.48      59503.538      21846.128      37657.41       9463.5213      9559.3745      9875.5553      1270.7173      2102.7366      16006.916     -10621.411     -1011.5818      79467.637      42.992903      42.992903      42.992903      1.5425769      41443.672      42746.221      43194.65     
     47000   47000          847.15065      47404.886      113832.08      59092.44       22017.177      37075.264      9440.1265      9329.8908      9500.7103      1214.1807      2197.1523      16011.782     -10618.579     -1015.2859      79177.708      42.940554      42.940554      42.940554      1.5482254      45385.143      49038.827      47790.687    
     48000   48000          851.97078      43368.057      109923.94      59517.713      22142.45       37375.262      9395.1262      9475.81        9629.0764      1315.0599      2158.2017      16017.782     -10615.794     -1008.6789      79696.337      43.034106      43.034106      43.034106      1.5381503      45459.13       43300.473      41344.568    
     49000   49000          848.58958      46183.35       112804.22      59382.925      22054.574      37328.351      9482.9554      9156.743       9798.225       1254.8928      2210.0582      16043.358     -10617.881     -1013.5337      79314.592      42.965285      42.965285      42.965285      1.5455535      45137.138      46487.987      46924.924    
     50000   50000          851.09386      45819.652      112157.47      59069.319      22119.659      36949.66       9702.8866      9165.3329      9552.3125      1247.362       1872.2639      16035.457     -10625.954     -1011.8623      79445.607      42.988929      42.988929      42.988929      1.5430047      45401.797      46933.413      45123.747    
     51000   51000          847.50671      46412.914      113161.63      59444.147      22026.431      37417.716      9659.2122      9316.1981      9568.2281      1257.5191      2225.1352      16012.431     -10621.008     -1012.9554      79359.871      42.97346       42.97346       42.97346       1.5446716      45273.692      45666.082      48298.967    
     52000   52000          857.9789       46184.291      113317.51      59959.293      22298.599      37660.693      9525.1424      9579.5593      9573.6779      1298.1274      2253.8732      16043.674     -10613.361     -1014.7526      79219.326      42.948076      42.948076      42.948076      1.5474121      42475.768      49748.386      46328.719    
     53000   53000          860.23652      43799.032      110285.44      59409.241      22357.274      37051.966      9306.8405      9321.3513      9658.8432      1283.391       2081.5252      16019.49      -10619.475     -1009.2926      79647.879      43.025382      43.025382      43.025382      1.5390861      44469.884      44738.013      42189.199    
     54000   54000          840.05121      44141.617      110110.68      58926.399      21832.665      37093.734      9543.7142      9233.4418      9575.4781      1221.1717      2117.9834      16020.398     -10618.453     -1011.0644      79508.299      43.000234      43.000234      43.000234      1.541788       45844.111      42581.072      43999.669    
     55000   55000          854.81862      47017.003      113967.77      59702.273      22216.465      37485.809      9491.9473      9466.7069      9628.4687      1265.6149      2229.9335      16021.447     -10618.309     -1015.7769      79139.438      42.933634      42.933634      42.933634      1.5489741      47267.737      44868.347      48914.924    
     56000   56000          836.75892      46018.902      112508.7       58998.542      21747.099      37251.443      9558.516       9357.6842      9464.9606      1270.2975      2163.8884      16043.894     -10607.798     -1008.2476      79730.425      43.040241      43.040241      43.040241      1.5374927      45026.339      46615.011      46415.356    
     57000   57000          849.62664      42804.065      108820.31      59216.434      22081.527      37134.907      9233.6465      9364.7769      9729.0697      1262.0784      2090.5983      16068.994     -10614.256     -1011.6646      79461.128      42.991729      42.991729      42.991729      1.5427033      42708.707      44115.379      41588.109    
     58000   58000          847.42008      40616.566      106537.75      59255.822      22024.179      37231.643      9391.3948      9405.5811      9730.9527      1302.7708      2015.3343      16002.359     -10616.75      -1007.1061      79820.795      43.056496      43.056496      43.056496      1.535752       42231.346      38744.664      40873.688    
     59000   59000          862.40938      43853.361      110902.28      59818.692      22413.746      37404.945      9418.4101      9416.6191      9658.8317      1297.1056      2174.6838      16054.58      -10615.285     -1006.4418      79873.482      43.065967      43.065967      43.065967      1.5347389      41178.642      46506.473      43874.966    
     60000   60000          844.77915      42727.529      108593.43      58988.223      21955.542      37032.681      9233.4132      9355.4623      9657.2933      1237.7885      2123.9846      16038.521     -10613.783     -1009.8286      79605.598      43.017768      43.017768      43.017768      1.5399035      43347.161      42891.3        41944.126    
     61000   61000          855.79226      41732.271      107798.34      59312.412      22241.769      37070.643      9331.7543      9372.0683      9720.0843      1262.3162      1958.0551      16045.847     -10619.482     -1009.0751      79665.046      43.028473      43.028473      43.028473      1.5387544      43449.451      42519.153      39228.21     
     62000   62000          869.4185       43504.139      110311.47      59755.885      22595.911      37159.974      9597.4108      9371.2613      9436.9445      1248.9461      2107.5113      16021.804     -10623.903     -1008.8547      79682.445      43.031606      43.031606      43.031606      1.5384184      43902.742      45426.645      41183.029    
     63000   63000          848.33194      43300.906      109520.38      59178.254      22047.878      37130.376      9355.4694      9481.3088      9547.7344      1260.0238      2087.4274      16012.453     -10614.041     -1008.3996      79718.413      43.038079      43.038079      43.038079      1.5377243      46424.088      41525.726      41952.905    
     64000   64000          841.17455      44378.169      110592.03      59018.915      21861.86       37157.055      9423.9194      9373.5045      9643.7354      1240.8327      2020.4626      16069.921     -10615.32      -1008.8189      79685.274      43.032115      43.032115      43.032115      1.5383638      45898.721      43443.697      43792.088    
     65000   65000          850.54048      44981.614      111303.94      58914.454      22105.277      36809.177      9336.743       9249.3931      9475.7841      1264.8905      2065.3673      16037.198     -10620.199     -1006.6027      79860.719      43.063673      43.063673      43.063673      1.5349842      44999.792      44367.059      45577.99     
     66000   66000          851.39198      45729.713      112624.73      59542.399      22127.408      37414.992      9450.7639      9450.2675      9636.0217      1271.6463      2177.4399      16048.301     -10619.449     -1009.9867      79593.144      43.015524      43.015524      43.015524      1.5401445      46987.913      44935.17       45266.056    
     67000   67000          857.28216      43758.149      110282.73      59387.427      22280.491      37106.935      9423.0079      9382.9601      9640.2744      1253.7045      1990.7735      16034.095     -10617.88      -1007.9719      79752.24       43.044166      43.044166      43.044166      1.5370721      45707.541      42520.557      43046.349    
     68000   68000          850.42871      40986.019      106772.38      59110.921      22102.372      37008.549      9234.7901      9465.5306      9681.6962      1294.3903      1912.5364      16039.901     -10620.296     -1008.1741      79736.239      43.041287      43.041287      43.041287      1.5373805      41707.311      41585.776      39664.971    
     69000   69000          840.15778      43242.437      109188.86      58873.863      21835.434      37038.429      9426.5846      9338.5237      9442.3789      1247.1901      2137.7186      16057.189     -10611.156     -1007.5808      79783.191      43.049734      43.049734      43.049734      1.5364758      43170.215      45570.772      40986.324    
     70000   70000          856.35036      47616.283      115160.26      59781.456      22256.274      37525.182      9565.1264      9416.3391      9554.4856      1285.2444      2301.7481      16019.707     -10617.468     -1008.0431      79746.604      43.043152      43.043152      43.043152      1.5371807      46568.41       50426.378      45854.06     
     71000   71000          855.32721      43669.232      109991.88      59072.387      22229.683      36842.704      9321.1247      9449.6764      9436.5987      1220.5966      1997.2557      16039.17      -10621.719     -1005.4457      79952.613      43.080184      43.080184      43.080184      1.53322        43897.735      43395.481      43714.479    
     72000   72000          856.07494      42421.7        108876.37      59508.164      22249.116      37259.048      9525.5763      9413.3304      9811.0118      1230.3049      1843.2715      16052.379     -10616.825     -1007.4138      79796.416      43.052112      43.052112      43.052112      1.5362211      42014.902      42483.034      42767.165    
     73000   73000          858.37157      39982.131      106151.48      59511.095      22308.805      37202.29       9357.6777      9506.2473      9662.4393      1288.5607      1964.7991      16038.925     -10616.359     -1005.0114      79987.166      43.086389      43.086389      43.086389      1.5325576      39737.494      40787.266      39421.634    
     74000   74000          847.39695      41916.521      108025.81      59156.008      22023.578      37132.43       9509.5799      9308.9016      9621.062       1284.3172      1977.7377      16042.11      -10611.279     -1005.569       79942.813      43.078424      43.078424      43.078424      1.5334079      45903.829      38919.461      40926.274    
     75000   75000          843.32117      45249.705      111558.14      58801.464      21917.65       36883.815      9483.188       9192.1416      9487.2049      1247.7567      2042.822       16046.97      -10616.269     -1005.5543      79943.979      43.078634      43.078634      43.078634      1.5333856      45352.421      43049.664      47347.03     
     76000   76000          857.1046       44505.29       111261.93      59430.954      22275.877      37155.077      9422.7443      9435.0472      9683.9736      1282.0846      1905.4872      16040.848     -10615.108     -1006.6753      79854.958      43.062638      43.062638      43.062638      1.5350949      45312.067      41046.974      47156.829    
     77000   77000          852.38496      40049.165      106035.96      59283.681      22153.215      37130.467      9346.7498      9449.8169      9790.2608      1269.4704      1842.4654      16048.157     -10616.453     -1004.287       80044.864      43.096747      43.096747      43.096747      1.5314529      42173.476      39378.501      38595.518    
     78000   78000          839.16915      42057.996      108108.95      58762.426      21809.74       36952.686      9450.1149      9516.1497      9535.5319      1282.5304      1736.8141      16043.229     -10611.684     -999.21567      80451.113      43.169533      43.169533      43.169533      1.5237196      43312.01       41392.074      41469.903    
     79000   79000          840.37822      41789.948      107586.93      58735.317      21841.163      36894.154      9419.4363      9413.8665      9564.921       1260.3014      1826.2175      16029.092     -10619.681     -1002.9057      80155.103      43.116522      43.116522      43.116522      1.5293467      40662.961      42649.924      42056.958    
     80000   80000          838.10057      44067.765      110640.66      59198.879      21781.968      37416.911      9384.739       9453.2485      9793.5043      1292.0383      2028.8897      16070.471     -10605.98      -1004.3202      80042.218      43.096272      43.096272      43.096272      1.5315036      45328.253      42785.556      44089.485    
     81000   81000          835.73574      43442.424      109433.16      58753.215      21720.507      37032.709      9448.2779      9334.8611      9597.3671      1208.4637      1995.1266      16062.779     -10614.167     -1004.9515      79991.936      43.087246      43.087246      43.087246      1.5324662      47521.444      41116.013      41689.815    
     82000   82000          846.67892      39575.348      105108.64      58859.394      22004.917      36854.477      9082.7643      9478.5045      9710.3698      1274.3806      1903.4433      16030.632     -10625.618     -1003.1993      80131.645      43.112316      43.112316      43.112316      1.5297944      41228.293      35860.757      41636.993    
     83000   83000          846.3604       42576.408      108900.69      59119.041      21996.638      37122.403      9324.4693      9417.2154      9696.053       1269.2502      1964.7816      16062.649     -10612.015     -1002.6905      80172.313      43.119608      43.119608      43.119608      1.5290184      43951.357      41501.612      42276.254    
     84000   84000          842.71157      38633.868      103893.87      58654.031      21901.806      36752.225      9226.6341      9297.8164      9807.9307      1251.7271      1748.8879      16034.227     -10614.999     -1001.185       80292.862      43.141209      43.141209      43.141209      1.5267228      38623.912      36984.821      40292.87     
     85000   85000          855.13266      41521.38       107673.23      58954.871      22224.627      36730.244      9414.0358      9286.5733      9569.492       1184.4715      1842.3679      16049.994     -10616.69      -999.18599      80453.503      43.169961      43.169961      43.169961      1.5236744      40756.43       41484.937      42322.775    
     86000   86000          847.52896      42438.436      108744.15      59048.415      22027.009      37021.407      9445.5152      9453.35        9559.5909      1230.4989      1897.3699      16046.41      -10611.328     -1001.1691      80294.14       43.141438      43.141438      43.141438      1.5266985      42593.597      40034.499      44687.211    
     87000   87000          850.33583      40984.169      107049.73      58994.204      22099.959      36894.245      9256.5629      9371.2889      9617.0127      1311.7287      1919.9509      16030.622     -10612.921     -999.86177      80399.127      43.160233      43.160233      43.160233      1.5247049      42688.149      40912.633      39351.726    
     88000   88000          846.60584      40702.232      106441.15      59024.318      22003.017      37021.3        9451.7073      9235.7664      9673.2087      1214.6985      2029.0015      16038.426     -10621.508     -1006.3588      79880.075      43.067152      43.067152      43.067152      1.5346123      42445.993      39144.073      40516.629    
     89000   89000          864.33805      41732.275      108024.22      59245.647      22463.872      36781.775      9172.7186      9436.6846      9688.4939      1240.5546      1852.6174      16014.173     -10623.467     -1003.0212      80145.875      43.114868      43.114868      43.114868      1.5295228      40824.137      41827.405      42545.283    
     90000   90000          860.27199      36804.622      102152.69      58850.799      22358.196      36492.603      9259.6348      9312.3489      9714.6143      1226.7653      1573.0067      16024.878     -10618.645     -996.46635      80673.084      43.209199      43.209199      43.209199      1.5195272      35582.953      37699.081      37131.833    
     91000   91000          861.04577      40828.139      106847.43      59104.297      22378.306      36725.99       9367.5965      9354.8651      9544.7692      1223.0443      1807.0162      16040.624     -10611.925     -1002.5727      80181.729      43.121296      43.121296      43.121296      1.5288389      37822.251      41181.371      43480.795    
     92000   92000          844.09084      41668.442      107856.55      59060.007      21937.653      37122.354      9539.484       9708.5724      9397.9824      1223.3944      1826.6893      16038.838     -10612.607     -1001.1183      80298.215      43.142168      43.142168      43.142168      1.526621       43982.557      40899.805      40122.965    
     93000   93000          846.06648      40039.581      105609.13      58657.459      21988.999      36668.459      9264.1672      9304.2591      9604.5216      1267.1948      1815.864       16032.99      -10620.538     -999.78275      80405.481      43.16137       43.16137       43.16137       1.5245844      41535.502      39626.477      38956.764    
     94000   94000          848.91302      42426.685      108814.2       59168.069      22062.98       37105.089      9549.2474      9271.2507      9850.0073      1264.0162      1773.4952      16021.446     -10624.374     -1001.8919      80236.215      43.131061      43.131061      43.131061      1.5278007      42713.883      43303.624      41262.548    
     95000   95000          858.3344       41727.077      107558         58610.231      22307.839      36302.393      9469.0655      9305.9208      9235.4353      1209.8397      1652.1198      16045.474     -10615.463     -999.42973      80433.882      43.166451      43.166451      43.166451      1.5240461      42553.23       42799.093      39828.907    
     96000   96000          840.35574      41473.385      107563         59021.921      21840.579      37181.342      9761.7499      9279.3903      9574.9506      1250.965       1893.3267      16035.421     -10614.462     -1001.6759      80253.515      43.134161      43.134161      43.134161      1.5274713      42446.617      41183.36       40790.178    
     97000   97000          861.28454      39234.816      105316.72      59125.331      22384.512      36740.819      9194.8216      9266.0459      9895.5766      1307.575       1647.1509      16041.015     -10611.367     -995.81305      80726.009      43.218646      43.218646      43.218646      1.5185309      42566.98       37057.559      38079.908    
     98000   98000          852.1769       41832.174      107870.55      58977.566      22147.807      36829.759      9286.9696      9284.6009      9729.548       1245.5176      1849.7379      16046.016     -10612.631     -1003.0696      80142.007      43.114174      43.114174      43.114174      1.5295966      41155.357      42642.39       41698.776    
     99000   99000          857.25542      38598.163      104484.02      59152.249      22279.796      36872.453      9162.6592      9461.7342      9927.2918      1203.3265      1692.8931      16041.132     -10616.584     -998.23119      80530.456      43.18372       43.18372       43.18372       1.5222184      39110.243      37131.199      39553.046    
    100000   100000         847.30696      41906.17       107940.87      58850.896      22021.239      36829.657      9419.5682      9380.7343      9590.7515      1314.3533      1717.8009      16023.802     -10617.354     -1000.8116      80322.825      43.146575      43.146575      43.146575      1.5261533      45470.512      40638.729      39609.269    
    101000   101000         858.95681      37715.399      103532.58      59179.601      22324.015      36855.586      9379.214       9312.4974      9738.3198      1310.3062      1696.8331      16034.354     -10615.938     -996.9265       80635.847      43.20255       43.20255       43.20255       1.5202289      38200.744      38830.409      36115.044    
    102000   102000         848.84919      37696.002      102938.5       58495.096      22061.321      36433.775      9216.6927      9417.7809      9650.8818      1251.0006      1475.1448      16031.227     -10608.953     -994.38641      80841.826      43.239305      43.239305      43.239305      1.5163554      35871.485      38178.878      39037.643    
    103000   103000         853.47087      40358.432      106786.69      59531.976      22181.437      37350.539      9554.3596      9418.1296      9728.5006      1289.7383      1947.9525      16032.807     -10620.949     -1001.2817      80285.108      43.13982       43.13982       43.13982       1.5268702      39278.104      40822.844      40974.348    
    104000   104000         844.65445      39241.916      105019.68      58883.995      21952.301      36931.694      9459.1747      9501.6652      9559.5805      1282.3092      1698.8177      16038.341     -10608.194     -997.19575      80614.075      43.198662      43.198662      43.198662      1.5206394      39305.071      40592.04       37828.636    
    105000   105000         850.65317      39839.925      105450.58      58636.217      22108.206      36528.011      9357.2976      9298.8521      9578.956       1221.4178      1661.6747      16022.796     -10612.984     -997.71511      80572.112      43.191165      43.191165      43.191165      1.5214314      43134.663      38581.185      37803.928    
    106000   106000         848.42373      40931.355      107046.26      58901.838      22050.264      36851.574      9235.3512      9431.048       9724.2991      1257.4416      1766.5046      16051.6       -10614.67      -996.72963      80651.774      43.205394      43.205394      43.205394      1.5199287      40779.789      38606.695      43407.582    
    107000   107000         846.40561      36249.326      101045.88      58248.76       21997.813      36250.947      9111.4993      9273.0436      9716.2403      1287.9266      1447.7443      16025.727     -10611.234     -993.00757      80954.079      43.259309      43.259309      43.259309      1.5142528      37101.636      35371.905      36274.437    
    108000   108000         854.09166      39100.896      104693.08      58824.547      22197.571      36626.976      9295.4438      8949.3275      9804.1151      1268.7059      1898.517       16030.39      -10619.524     -999.39932      80436.329      43.166889      43.166889      43.166889      1.5239997      39042.132      38115.968      40144.588    
    109000   109000         848.40198      38095.992      103902.71      58925.593      22049.698      36875.894      9356.7238      9464.7508      9760.8963      1260.0235      1613.6533      16032.821     -10612.974     -993.0129       80953.645      43.259232      43.259232      43.259232      1.5142609      37827.096      37807.326      38653.555    
    110000   110000         850.62048      39790.171      105623.75      58862.594      22107.356      36755.237      9401.6739      9320.9674      9707.8262      1239.1927      1651.3677      16048.802     -10614.592     -997.6031       80581.158      43.192781      43.192781      43.192781      1.5212606      39918.537      40270.669      39181.308    
    111000   111000         856.1222       37144.054      102555.58      58738.474      22250.345      36488.13       9387.0239      9289.5942      9578.5108      1220.1079      1619.2592      16014.341     -10620.707     -993.83158      80886.957      43.24735       43.24735       43.24735       1.5155094      36138.021      40230.29       35063.851    
    112000   112000         840.60693      37344.16       102500.75      58375.001      21847.108      36527.893      9333.4752      9533.2266      9454.0196      1198.7373      1598.2779      16024.652     -10614.495     -992.19668      81020.24       43.271091      43.271091      43.271091      1.5130163      37099.822      37399.105      37533.554    
    113000   113000         858.97072      38387.118      104297.84      59147.998      22324.377      36823.621      9481.4515      9398.1429      9667.3344      1288.8068      1576.427       16035.064     -10623.606     -996.77346      80648.228      43.204761      43.204761      43.204761      1.5199955      39173.842      38227.844      37759.67     
    114000   114000         869.25941      40044.149      106229.71      59070.451      22591.776      36478.675      9162.3718      9340.9806      9619.4473      1275.4421      1661.3534      16033.077     -10613.998     -995.49553      80751.757      43.223241      43.223241      43.223241      1.5180468      41382.636      39031.997      39717.813    
    115000   115000         860.28717      38121.632      103796.91      58730.701      22358.591      36372.11       9175.3605      9459.7568      9479.1445      1228.5115      1598.7087      16042.095     -10611.467     -991.71662      81059.459      43.278072      43.278072      43.278072      1.5122842      37810.283      38984.559      37570.054    
    116000   116000         848.15352      37411.192      103079.4       59017.255      22043.241      36974.014      9338.6724      9309.8121      9853.1887      1337.2019      1718.3037      16029.028     -10612.193     -995.41259      80758.486      43.224441      43.224441      43.224441      1.5179203      36935.741      35610.36       39687.477    
    117000   117000         862.11233      39333.396      105317.55      58868.336      22406.026      36462.31       9205.6713      9238.2017      9728.8372      1284.2568      1597.243       16027.406     -10619.306     -992.77365      80973.153      43.262706      43.262706      43.262706      1.5138961      38522.477      40124.612      39353.097    
    118000   118000         841.8324       37516.554      102700.25      58421.934      21878.957      36542.977      9459.8727      9387.7118      9491.9347      1234.6377      1527.4707      16055.663     -10614.314     -993.34263      80926.773      43.254445      43.254445      43.254445      1.5147638      36191.926      36783.643      39574.093    
    119000   119000         843.79056      37974.815      103532.04      58831.847      21929.849      36901.998      9150.3505      9591.4111      9687.0963      1234.6803      1792.964       16056.923     -10611.427     -995.9864       80711.959      43.216139      43.216139      43.216139      1.5187953      35963.058      40166.171      37795.216    
    120000   120000         851.00662      39351.459      105661.42      59081.934      22117.392      36964.542      9647.3539      9515.7358      9358.875       1273.7898      1718.2957      16055.436     -10604.944     -990.45172      81162.98       43.296487      43.296487      43.296487      1.5103554      39372.348      39578.53       39103.5      
    121000   121000         851.6649       38428.084      104069.28      58593.94       22134.501      36459.439      9361.0504      9275.4172      9556.8134      1258.5761      1586.6068      16035.486     -10614.51      -990.69504      81143.045      43.292942      43.292942      43.292942      1.5107264      40232.443      36210.943      38840.866    
    122000   122000         845.72815      40321.469      105848.62      58331.168      21980.206      36350.962      9226.6628      9364.0048      9344.4572      1271.1534      1756.1411      16007.079     -10618.536     -994.83344      80805.5        43.232827      43.232827      43.232827      1.5170371      38710.719      39313.765      42939.924    
    123000   123000         853.34981      37566.121      103207.06      58748.681      22178.291      36570.39       9393.5162      9242.185       9877.4684      1263.4674      1381.0515      16029.289     -10616.588     -990.62637      81148.671      43.293943      43.293943      43.293943      1.5106217      37848.359      37520.787      37329.217    
    124000   124000         847.81138      38935.806      104553.07      58546.199      22034.349      36511.851      9326.1148      9318.9574      9657.7027      1195.7847      1603.4465      16018.221     -10608.376     -992.18724      81021.011      43.271228      43.271228      43.271228      1.5130019      37564.012      37838.169      41405.235    
    125000   125000         847.85124      36867.354      102285.89      58539.809      22035.385      36504.424      9476.0726      9342.1626      9615.7796      1246.5417      1417.0803      16025.255     -10618.468     -988.02959      81361.949      43.331838      43.331838      43.331838      1.5066618      34563.33       37870.825      38167.906    
    126000   126000         854.48328      38525.716      104544.45      58772.254      22207.749      36564.504      9495.248       9480.7797      9451.8867      1277.3753      1429.6391      16046.017     -10616.441     -986.7704       81465.773      43.350262      43.350262      43.350262      1.5047417      39094.814      38020.517      38461.816    
    127000   127000         848.28985      38778.474      104735.13      58794.313      22046.784      36747.529      9469.8765      9332.0402      9692.1914      1235.5632      1618.0917      16020.832     -10621.066     -989.59886      81232.928      43.308921      43.308921      43.308921      1.5090548      38592.444      40494.804      37248.174    
    128000   128000         840.6167       36359.364      101666.85      58416.018      21847.361      36568.656      9496.2488      9347.1607      9718.0075      1232.0795      1363.5302      16021.236     -10609.606     -985.57345      81564.71       43.367804      43.367804      43.367804      1.5029164      38078.282      35426.782      35573.028    
    129000   129000         866.88187      38777.149      104948.12      58942.361      22529.985      36412.376      9389.0061      9261.0466      9549.9946      1206.0767      1585.7245      16032.833     -10612.305     -988.16821      81350.536      43.329812      43.329812      43.329812      1.5068732      39274.947      37494.905      39561.593    
    130000   130000         846.32634      35550.404      100940.35      58658.62       21995.753      36662.867      9490.2221      9484.1581      9516.1841      1252.1428      1501.0153      16036.701     -10617.557     -985.73238      81551.56       43.365473      43.365473      43.365473      1.5031588      34184.246      36752.435      35714.532    
    131000   131000         832.24091      36431.759      101403.17      58237.39       21629.677      36607.713      9358.8221      9171.3915      9878.5116      1216.5976      1556.1666      16046.602     -10620.378     -989.48163      81242.552      43.310632      43.310632      43.310632      1.5088761      37875.286      35641.551      35778.441    
    132000   132000         843.8212       36737.84       102141.52      58401.296      21930.645      36470.651      9438.8379      9431.9456      9536.2793      1221.6192      1446.2926      16010.003     -10614.328     -984.69065      81637.835      43.38076       43.38076       43.38076       1.5015702      37389.935      36664.111      36159.474    
    133000   133000         841.43671      36685.833      102213.99      58605.068      21868.673      36736.394      9506.3003      9432.6451      9526.8241      1259.3294      1589.8277      16033.291     -10611.824     -986.25721      81508.162      43.35778       43.35778       43.35778       1.5039591      35959.671      38230.074      35867.754    
    134000   134000         854.2703       35732.335      101075.2       58627.587      22202.214      36425.372      9352.3262      9330.7794      9595.4816      1276.6636      1417.0932      16058.685     -10605.657     -986.90481      81454.677      43.348294      43.348294      43.348294      1.5049466      35758.008      35932.246      35506.752    
    135000   135000         845.34624      36499.266      101905.59      58384.484      21970.281      36414.204      9415.7852      9464.2176      9555.9793      1258.7997      1297.975       16030.924     -10609.477     -983.22159      81759.812      43.402355      43.402355      43.402355      1.49933        34935.894      37832.473      36729.431    
    136000   136000         857.37064      37823.273      103589.35      58664.177      22282.791      36381.386      9516.1409      9026.5669      9674.9381      1222.4978      1550.0571      16009.324     -10618.138     -987.04409      81443.184      43.346255      43.346255      43.346255      1.505159       34826.999      39920.799      38722.021    
    137000   137000         866.24296      38574.6        104796.06      58885.063      22513.38       36371.683      9491.8612      9272.6431      9469.6022      1239.9329      1488.3189      16023.862     -10614.538     -985.03557      81609.249      43.375696      43.375696      43.375696      1.5020962      40568.934      38867.977      36286.89     
    138000   138000         849.89988      35528.806      100762.27      58617.24       22088.628      36528.612      9371.5383      9336.295       9639.9432      1258.7182      1529.0273      16008.391     -10615.301     -988.32877      81337.319      43.327465      43.327465      43.327465      1.5071181      38996.652      32111.398      35478.368    
    139000   139000         852.79401      35465.519      100866.75      58756.489      22163.846      36592.643      9493.8402      9244.0336      9678.0292      1208.6729      1569.2257      16019.423     -10620.581     -987.38286      81415.24       43.341297      43.341297      43.341297      1.5056756      36556.541      35531.147      34308.869    
    140000   140000         848.84759      33567.095      98591.71       58464.965      22061.28       36403.686      9287.5079      9494.5961      9499.7781      1243.1791      1474.7583      16012.845     -10608.978     -980.72447      81967.99       43.439161      43.439161      43.439161      1.4955221      31487.754      34084.399      35129.131    
    141000   141000         854.18797      35011.032      100477.96      58791.876      22200.074      36591.802      9260.2382      9433.1835      9676.4673      1267.6563      1553.1528      16018.942     -10617.838     -984.64809      81641.364      43.381385      43.381385      43.381385      1.5015053      35943.71       32066.409      37022.978    
    142000   142000         835.398        35648.284      100548.35      58066.032      21711.729      36354.303      9368.6688      9385.2564      9502.1082      1250.8572      1458.8384      16005.886     -10617.312     -983.77919      81713.472      43.394154      43.394154      43.394154      1.5001803      33919.608      38032.394      34992.85     
    143000   143000         852.57458      35873.416      101416.88      58571.522      22158.143      36413.379      9424.9457      9535.5236      9473.9481      1253.5575      1325.762       16013.591     -10613.949     -981.60348      81894.588      43.426191      43.426191      43.426191      1.4968625      35872.413      38772.651      32975.183    
    144000   144000         863.36156      37277.504      103169.73      59018.616      22438.493      36580.123      9318.046       9449.1647      9635.4254      1282.8135      1482.4477      16026.566     -10614.34      -989.85686      81211.756      43.305159      43.305159      43.305159      1.5094482      39319.723      34925.679      37587.111    
    145000   145000         850.04947      33232.626      97951.226      58126.986      22092.516      36034.47       9330.7169      9085.3686      9702.8636      1221.5335      1267.9426      16039.268     -10613.223     -978.32768      82168.802      43.474606      43.474606      43.474606      1.4918672      34303.555      31816.993      33577.329    
    146000   146000         849.83455      31687.582      96161.397      58417.653      22086.93       36330.722      9227.5478      9227.1145      9768.5317      1317.2477      1343.4087      16060.254     -10613.382     -984.26332      81673.279      43.387038      43.387038      43.387038      1.5009186      34848.593      30394.156      29819.995    
    147000   147000         855.39709      34655.506      100064.83      58744.448      22231.499      36512.949      9358.5075      9366.3315      9774.0405      1318.3553      1284.0008      16032.261     -10620.548     -983.27521      81755.354      43.401566      43.401566      43.401566      1.4994118      35204.641      34646.093      34115.786    
    148000   148000         858.91068      35030.828      100438.29      58660.784      22322.816      36337.968      9271.548       9431.8992      9696.3141      1256.8993      1275.3779      16021.092     -10615.163     -983.0488       81774.183      43.404898      43.404898      43.404898      1.4990665      32669.2        35547.705      36875.578    
    149000   149000         853.42015      36095.434      101650.47      58579.85       22180.119      36399.731      9231.4235      9463.6942      9712.2784      1282.7233      1323.2819      16007.8       -10621.47      -982.51301      81818.778      43.412786      43.412786      43.412786      1.4982495      35193.415      36687.691      36405.196    
    150000   150000         854.31206      37742.15       103817.55      58747.948      22203.3        36544.649      9341.1987      9517.2368      9591.8549      1256.0633      1425.4317      16025.212     -10612.349     -981.77075      81880.636      43.423724      43.423724      43.423724      1.4971176      39012.781      35474.743      38738.928    
    151000   151000         838.91724      33606.612      98231.607      58160.106      21803.193      36356.913      9172.2143      9387.7694      9693.775       1217.7948      1477.4894      16026.663     -10618.793     -983.23267      81758.891      43.402192      43.402192      43.402192      1.4993469      35060.485      32974.824      32784.528    
    152000   152000         846.36096      35778.584      100808         58226.962      21996.653      36230.309      9436.0801      9438.4572      9451.4446      1202.4168      1304.5775      16012.02      -10614.687     -985.0858       81605.088      43.374959      43.374959      43.374959      1.5021728      34948.593      37704.102      34683.057    
    153000   153000         849.34572      36419.904      102146.37      58518.818      22074.226      36444.593      9427.6835      9393.6905      9572.5159      1315.1946      1304.0451      16044.995     -10613.532     -978.68988      82138.392      43.469242      43.469242      43.469242      1.4924196      37049.75       36370.805      35839.157    
    154000   154000         859.1301       33249.799      98438.983      58481.585      22328.519      36153.066      9176.522       9462.3517      9655.9212      1231.4224      1205.6677      16035.119     -10613.939     -975.57127      82400.964      43.515512      43.515512      43.515512      1.4876639      35107.069      31914.275      32728.053    
    155000   155000         853.84188      34808.474      100070.27      58491.434      22191.08       36300.355      9410.1801      9506.4027      9444.796       1240.5171      1287.5585      16027.227     -10616.327     -981.47628      81905.202      43.428067      43.428067      43.428067      1.4966686      33634.414      34256.137      36534.869    
    156000   156000         841.08599      31580.967      96036.612      58108.837      21859.558      36249.279      9325.83        9253.5635      9731.8768      1264.0887      1246.4743      16043.531     -10616.085     -976.19196      82348.571      43.506287      43.506287      43.506287      1.4886104      32221.242      32132.79       30388.868    
    157000   157000         854.41683      34574.95       99883.947      58560.076      22206.022      36354.053      9419.6796      9495.4489      9363.2068      1207.3819      1448.316       16027.437     -10607.417     -980.9068       81952.753      43.436469      43.436469      43.436469      1.4958002      36449.405      34358.105      32917.341    
    158000   158000         846.17089      36449.895      102020.88      58177.772      21991.713      36186.059      9479.4514      9273.8653      9463.2111      1267.111       1279.6258      16032.976     -10610.182     -974.68017      82476.299      43.528769      43.528769      43.528769      1.4863051      36817.687      37501.247      35030.749    
    159000   159000         844.05885      32822.155      97455.665      58169.817      21936.822      36232.995      9186.5683      9460.6753      9654.9098      1255.8246      1278.0528      16014.358     -10617.394     -979.48578      82071.649      43.457465      43.457465      43.457465      1.4936332      32227.498      34551.883      31687.084    
    160000   160000         850.13444      35555.152      100989.63      58480.454      22094.725      36385.729      9312.5111      9365.9645      9628.4329      1251.7587      1430.9104      16014.539     -10618.388     -980.58909      81979.306      43.44116       43.44116       43.44116       1.4953157      34670.724      33656.057      38338.676    
    161000   161000         855.59786      32280.963      96999.19       58203.874      22236.717      35967.157      9237.3513      9204.1017      9683.5455      1211.6578      1247.5798      16001.146     -10618.225     -975.51594      82405.637      43.516335      43.516335      43.516335      1.4875796      33111.135      29517.693      34214.062    
    162000   162000         847.54244      32983.353      98033.626      58396.363      22027.359      36369.004      9533.8242      9291.0705      9691.5012      1241.7268      1207.1044      16018.157     -10614.381     -975.56974      82401.093      43.515535      43.515535      43.515535      1.4876616      32066.851      31763.888      35119.32     
    163000   163000         849.34024      34869.177      100528.34      58501.754      22074.084      36427.67       9576.0485      9326.5095      9557.0012      1255.4464      1280.0186      16047.209     -10614.563     -972.71302      82643.093      43.558093      43.558093      43.558093      1.4833053      37606.904      33095.227      33905.4      
    164000   164000         851.08387      34989.867      100038.87      58039.114      22119.4        35919.714      9287.6963      9330.9179      9428.669       1286.4284      1169.9795      16029         -10612.977     -976.7035       82305.442      43.498691      43.498691      43.498691      1.4893905      34839.711      35146.105      34983.786    
    165000   165000         846.15241      32828.036      97826.553      58312.742      21991.233      36321.51       9509.2064      9453.6432      9452.0939      1253.0243      1218.8558      16049.199     -10614.513     -974.00945      82533.094      43.538759      43.538759      43.538759      1.4852823      32423.647      34650.386      31410.073    
    166000   166000         845.53571      30968.723      95535.425      58387.03       21975.205      36411.825      9327.7493      9255.3921      9904.6629      1282.9632      1273.3398      15984.667     -10616.95      -977.3507       82250.94       43.489087      43.489087      43.489087      1.4903774      31248.618      31600.783      30056.769    
    167000   167000         844.48747      33692.569      98323.864      57734.87       21947.962      35786.909      9123.3443      9484.9172      9471.2302      1229.44        1089.3016      16007.968     -10619.292     -973.17967      82603.465      43.551129      43.551129      43.551129      1.4840169      32861.575      33571.928      34644.203    
    168000   168000         861.62384      33146.553      98828.06       59026.177      22393.33       36632.846      9579.1065      9465.1591      9701.9151      1227.7708      1245.4425      16027.671     -10614.218     -976.34193      82335.922      43.50406       43.50406       43.50406       1.4888391      33717.864      33439.843      32281.952    
    169000   169000         849.68925      30985.499      95472.534      58158.784      22083.154      36075.629      9331.4841      9186.2267      9873.5538      1282.7792      1018.25        16000.791     -10617.455     -973.54669      82572.324      43.545656      43.545656      43.545656      1.4845766      27474.702      34199.086      31282.71     
    170000   170000         841.80365      31443.69       95653.172      57789.376      21878.21       35911.166      9145.6361      9307.0494      9666.9902      1189.654       1201.2852      16012.223     -10611.673     -973.59097      82568.569      43.544996      43.544996      43.544996      1.4846441      34277.013      32128.688      27925.371    
    171000   171000         846.58944      33472.666      98571.712      58221.134      22002.591      36218.543      9639.8088      9378.7088      9403.6628      1217.8508      1163.2892      16031.599     -10616.375     -972.54059      82657.746      43.560667      43.560667      43.560667      1.4830424      33239.928      33774.83       33403.241    
    172000   172000         859.15721      33503.107      98984.475      58700.003      22329.223      36370.779      9424.4919      9536.267       9396.5212      1199.7118      1417.9378      16007.977     -10612.127     -975.02241      82447.349      43.523676      43.523676      43.523676      1.486827       33654.819      34452.086      32402.418    
    173000   173000         849.58995      32739.992      97773.867      58470.33       22080.573      36389.756      9227.8443      9402.4858      9834.4269      1299.5842      1199.3605      16036.609     -10610.555     -976.59412      82314.66       43.500314      43.500314      43.500314      1.4892237      33855.222      32044.298      32320.456    
[...]
    455000   455000         855.26865      3670.8966      62660.772      57191.032      22228.161      34962.871      9163.9881      9405.7341      9978.2581      1254.5749     -259.55296      16024.036     -10604.167     -786.81491      102168.9       46.749062      46.749062      46.749062      1.1998264      6357.0905      1060.1133      3595.4861    
    456000   456000         847.58608      4186.0464      62985.484      56775.582      22028.493      34747.089      9352.1867      9312.4306      9802.8335      1236.3463     -369.34397      16024.954     -10612.318     -790.29005      101719.63      46.680438      46.680438      46.680438      1.2051257      6741.4882      501.30931      5315.3418    
    457000   457000         840.42421      3157.0918      61467.992      56785.305      21842.359      34942.946      9302.5512      9299.2706      10016.212      1247.5686     -386.4766       16061.057     -10597.236     -790.42233      101702.61      46.677834      46.677834      46.677834      1.2053274      2978.6554      3017.0283      3475.5917    
    458000   458000         860.18525      2072.7889      60477.779      57368.542      22355.942      35012.6        9576.852       9323.4274      9689.2153      1211.9157     -161.62734      15982.539     -10609.722     -781.57096      102854.4       46.853384      46.853384      46.853384      1.1918298     -143.34541      4167.3091      2194.403     
    459000   459000         850.16813      4092.727       62772.257      56699.174      22095.6        34603.574      9421.2516      9184.5028      9758.1745      1251.7834     -431.63522      16023.004     -10603.507     -790.07941      101746.75      46.684587      46.684587      46.684587      1.2048045      4365.218       3745.6391      4167.324     
    460000   460000         846.12644      4112.5501      62982.667      56845.638      21990.558      34855.08       9360.1805      9313.3581      9838.6303      1243.094      -297.05958      16010.246     -10613.369     -785.63382      102322.5       46.772478      46.772478      46.772478      1.1980253      5777.6294      1343.8336      5216.1874    
    461000   461000         851.26672      3626.1395      62214.511      56756.384      22124.152      34632.232      9325.216       9285.5634      9767.8787      1199.4155     -343.58628      16007.478     -10609.733     -778.87553      103210.35      46.907369      46.907369      46.907369      1.1877195      3357.6737      3975.3907      3545.3541    
    462000   462000         858.82696      6302.9349      66647.168      57126.05       22320.64       34805.41       9408.4134      9069.5582      9799.5552      1275.0253     -157.06891      16015.194     -10605.267     -776.10786      103578.4       46.963062      46.963062      46.963062      1.1834991      6614.0378      8098.3044      4196.4624    
    463000   463000         863.36464      3982.2868      63035.256      57044.2        22438.573      34605.627      9189.1109      9270.3951      9802.5939      1220.8876     -251.61616      15996.975     -10622.719     -779.28501      103156.11      46.899152      46.899152      46.899152      1.1883439      2805.3966      4869.021       4272.4429    
    464000   464000         844.60405      4063.2811      62666.143      56527.664      21950.991      34576.673      9176.3959      9247.087       9844.6183      1215.5649     -292.41033      16006.91      -10621.493     -776.03854      103587.66      46.96446       46.96446       46.96446       1.1833933      5171.5318      2391.78        4626.5315    
    465000   465000         859.39277      3331.4781      62088.614      57030.052      22335.345      34694.707      9189.4824      9245.4612      9846.8455      1260.298      -240.78359      16004.548     -10611.144     -772.10638      104115.2       47.044052      47.044052      47.044052      1.1773971      1440.7295      5560.5264      2993.1784    
    466000   466000         857.27588      2826.5325      61027.393      56719.436      22280.328      34439.108      9011.7615      9125.7384      9877.3404      1172.0354     -168.09326      16027.428     -10607.102     -769.21862      104506.07      47.102848      47.102848      47.102848      1.1729935      1344.4701      1843.4958      5291.6316    
    467000   467000         855.28988      2488.4612      60754.848      56975.863      22228.713      34747.151      9234.0557      9211.3525      9984.2837      1220.5202     -299.45752      16013.514     -10617.119     -772.0099       104128.22      47.046011      47.046011      47.046011      1.17725        329.99324      3053.4056      4081.9849    
    468000   468000         848.94926      5824.5513      65648.497      56685.688      22063.922      34621.766      9409.6063      9112.1101      9619.1717      1190.7677     -146.00453      16039.342     -10603.228     -761.87808      105512.96      47.25364       47.25364       47.25364       1.1617998      6441.265       5023.527       6008.8618    
    469000   469000         851.24784      2847.2585      61113.08       56756.596      22123.661      34632.934      9197.4554      9390.3249      9577.6893      1197.227      -144.56949      16027.851     -10613.043     -766.22789      104913.97      47.164052      47.164052      47.164052      1.1684329      5226.2132      1268.7396      2046.8226    
    470000   470000         845.17344      884.9862       58503.789      57143.401      21965.79       35177.611      9404.3084      9257.754       10159.871      1268.912      -340.09601      16030.109     -10603.247     -762.67749      105402.37      47.237125      47.237125      47.237125      1.1630189      3280.7236     -2740.8333      2115.0683    
    471000   471000         852.70627      2258.6687      60057.301      56543.241      22161.565      34381.676      9122.1857      9196.5692      9633.1516      1193.9963     -162.68263      16009.884     -10611.428     -753.54746      106679.43      47.427135      47.427135      47.427135      1.1490963      2514.9334      1480.6491      2780.4236    
    472000   472000         850.8665       1134.1011      58470.889      56723.141      22113.75       34609.391      9221.8661      9209.9689      9807.8352      1181.7365     -202.98535      15999.32      -10608.351     -760.74699      105669.84      47.277048      47.277048      47.277048      1.160075       1193.424       2981.1408     -772.26154    
    473000   473000         855.96354      2400.1009      60954.838      57255.755      22246.221      35009.534      9413.1211      9179.0377      9860.016       1204.6387     -50.027592      16006.867     -10604.119     -760.68105      105679         47.278414      47.278414      47.278414      1.1599745      2424.5469      2086.8845      2688.8712    
    474000   474000         856.43298      467.48221      57629.554      56904.664      22258.421      34646.243      9165.0198      9241.7844      9887.9837      1237.7641     -290.89847      16014.563     -10609.974     -756.06736      106323.88      47.374387      47.374387      47.374387      1.152939       949.41052      554.05066     -101.01455    
    475000   475000         861.29641      4812.7751      64831.831      57366.803      22384.821      34981.983      9474.9014      9494.8708      9538.2222      1191.2473     -128.72304      16016.437     -10604.973     -755.84253      106355.5       47.379084      47.379084      47.379084      1.1525961      5801.3031      3064.5888      5572.4334    
    476000   476000         847.52067      2781.0938      61113.272      56764.329      22026.793      34737.535      9392.3472      9128.2841      9734.1819      1264.023      -172.8193       15998.88      -10607.361     -749.71999      107224.05      47.507707      47.507707      47.507707      1.1432598      3355.2698      2879.336       2108.6756    
    477000   477000         847.34855      944.22297      58544.391      57065.002      22022.32       35042.682      9408.1445      9135.927       9927.5826      1249.225      -71.823279      16003.131     -10609.504     -748.27171      107431.58      47.538338      47.538338      47.538338      1.1410513     -85.694955      1776.7432      1141.6207    
    478000   478000         853.51863      646.99403      58099.747      57077.436      22182.679      34894.757      9411.3828      9320.8066      9667.5034      1229.8847     -157.55145      16022.676     -10599.945     -741.96694      108344.47      47.672608      47.672608      47.672608      1.131437      -380.76967      1843.3331      478.41869    
    479000   479000         859.55859      1420.404       59809.127      57580.185      22339.655      35240.53       9308.8188      9261.3294      10157.428      1217.9515     -134.99544      16028.691     -10598.693     -747.10272      107599.68      47.563119      47.563119      47.563119      1.1392687      1303.3632      2069.6248      888.22402    
    480000   480000         846.89158      194.69526      57388.688      57081.401      22010.444      35070.958      9148.95        9431.0857      9905.1306      1245.0226     -70.845561      16009.116     -10597.501     -742.81196      108221.22      47.654524      47.654524      47.654524      1.1327256     -293.85071      171.62402      706.31247    
    481000   481000         853.16891      1039.0248      58862.814      57202.691      22173.589      35029.101      9302.4577      9463.6001      9738.8972      1199.4188     -100.18754      16025.744     -10600.829     -733.75767      109556.62      47.849736      47.849736      47.849736      1.1189186      709.48658      1239.0049      1168.5831    
    482000   482000         849.72087      3580.7052      62926.873      57253.56       22083.976      35169.584      9381.8445      9099.9507      9789.6344      1216.2289      210.86379      16057.156     -10586.094     -739.9443       108640.63      47.716007      47.716007      47.716007      1.1283527      4215.7981      2712.1951      3814.1224    
    483000   483000         837.73256      1947.0752      60460.714      57322.458      21772.403      35550.055      9540.5364      9279.4736      10017.862      1257.3591      35.899505      16016.352     -10597.428     -727.38047      110517.15      47.989168      47.989168      47.989168      1.1091939      2964.7469      1975.2636      901.21513    
    484000   484000         854.65237      263.68925      57614.908      57194.847      22212.144      34982.703      9255.15        9200.1098      10040.164      1174.7198     -135.08952      16045.684     -10598.035     -735.94839      109230.5       47.80221       47.80221       47.80221       1.1222592      2115.6927     -2032.7214      708.09649    
    485000   485000         859.85278     -830.63391      56036.002      57366.377      22347.301      35019.076      9157.2964      9288.5778      10031.921      1224.8097     -134.57202      16050.192     -10599.149     -731.98566      109821.84      47.888317      47.888317      47.888317      1.1162164     -816.62535     -1429.9926     -245.28376    
    486000   486000         853.13489      2732.861       61355.922      56944.324      22172.705      34771.619      9005.3907      9239.5189      9715.474       1231.6645      112.39736      16059.618     -10592.445     -726.25444      110688.5       48.013957      48.013957      48.013957      1.1074768      4270.5051      3234.639       693.43886    
    487000   487000         844.90182      707.54561      58563.473      57416.56       21958.73       35457.83       9464.0569      9207.5706      10071.95       1219.4121      26.612102      16062.225     -10593.997     -723.25482      111147.57      48.080243      48.080243      48.080243      1.1029026     -0.68975924     3001.7261     -878.39955    
    488000   488000         849.43897      2734.1891      61462.511      57038.84       22076.649      34962.191      9365.5697      9165.5529      9638.2463      1256.5733      49.375561      16071.214     -10584.341     -724.62438      110937.49      48.049933      48.049933      48.049933      1.1049911      3255.9737      3487.6554      1458.9381    
    489000   489000         837.22697      98.013893      57448.972      57289.698      21759.263      35530.435      9523.8756      9405.5121      9881.8459      1245.8956      42.62227       16020.531     -10589.848     -721.457        111424.54      48.120147      48.120147      48.120147      1.1001611      1378.4189     -904.5294      -179.84778    
    490000   490000         854.5444       778.92008      58801.518      57531.734      22209.338      35322.396      9562.0435      9427.6925      9750.9105      1203.0079     -89.639176      16054.63      -10586.25      -719.16758      111779.25      48.171156      48.171156      48.171156      1.0966699      1018.5325      1863.8883     -545.66054    
    491000   491000         848.44616     -570.16026      56037.751      56966.309      22050.847      34915.463      9025.7362      9220.1441      9993.4894      1238.3882      18.639901      16014.396     -10595.331     -719.87149      111669.95      48.155449      48.155449      48.155449      1.0977433     -423.15173      826.32279     -2113.6518    
    492000   492000         850.96266      2134.1985      60829.717      57337.449      22116.25       35221.199      9311.0349      9274.4694      9836.1781      1243.1584      122.11491      16031.345     -10597.102     -716.46411      112201.03      48.231668      48.231668      48.231668      1.0925474      1769.6199      3929.2022      703.77355    
    493000   493000         851.36985      2715.6041      61800.852      57347.054      22126.832      35220.222      9676.5439      9204.4576      9577.9863      1219.1127      118.7984       16030.726     -10607.403     -714.83061      112457.43      48.268379      48.268379      48.268379      1.0900564      3901.9899      3786.2704      458.55213    
    494000   494000         840.55827     -310.66443      56410.632      56927.06       21845.843      35081.217      9281.9804      9317.8744      9603.4058      1243.2857      179.97936      16053.373     -10598.682     -705.25936      113983.62      48.485753      48.485753      48.485753      1.0754611     -635.3318      -1307.9845      1011.323     
    495000   495000         846.68042      618.38293      58507.148      57475.172      22004.956      35470.217      9413.9288      9506.6667      9748.1312      1168.069       197.84689      16036.482     -10600.908     -702.51456      114428.96      48.548817      48.548817      48.548817      1.0712755      560.24623      808.65814      486.24441    
    496000   496000         853.22348      1120.4862      59498.964      57617.125      22175.008      35442.117      9532.1125      9260.544       9658.7451      1204.2022      375.0887       16014.771     -10603.346     -698.0576       115159.57      48.651923      48.651923      48.651923      1.064479       985.82635      259.57141      2116.0608    
    497000   497000         840.32428      1748.0662      60184.132      57257.618      21839.762      35417.856      9376.17        9397.2789      9674.2317      1213.23        292.96617      16054.022     -10590.043     -700.28436      114793.39      48.600301      48.600301      48.600301      1.0678746      2178.0831      1529.2797      1536.8359    
    498000   498000         856.12911     -337.57114      56909.188      57483.842      22250.524      35233.318      9347.3642      9304.3399      9639.8525      1200.6383      309.93949      16025.22      -10594.037     -688.69326      116725.42      48.871442      48.871442      48.871442      1.0501992     -1356.539       363.35496     -19.529428    
    499000   499000         848.64324     -851.40204      56299.537      57760.988      22055.969      35705.02       9196.0593      9364.9806      10116.474      1200.3224      389.38371      16031.041     -10593.241     -682.99505      117699.26      49.006977      49.006977      49.006977      1.0415099     -945.29392     -1820.9959      212.0837     
    500000   500000         841.13451     -830.15993      55947.031      57386.524      21860.819      35525.704      9548.4477      9256.1821      9730.6241      1179.5467      339.93552      16057.217     -10586.249     -676.1133       118897.25      49.172687      49.172687      49.172687      1.0310158     -1767.0926     -647.75507     -75.632118    
Loop time of 1307.75 on 1 procs for 500000 steps with 8720 atoms

Performance: 33.034 ns/day, 0.727 hours/ns, 382.335 timesteps/s, 3.334 Matom-step/s
100.0% CPU use with 1 MPI tasks x 1 OpenMP threads

MPI task timing breakdown:
Section |  min time  |  avg time  |  max time  |%varavg| %total
---------------------------------------------------------------
Pair    | 166.37     | 166.37     | 166.37     |   0.0 | 12.72
Bond    | 142.25     | 142.25     | 142.25     |   0.0 | 10.88
Kspace  | 515.16     | 515.16     | 515.16     |   0.0 | 39.39
Neigh   | 250.74     | 250.74     | 250.74     |   0.0 | 19.17
Comm    | 38.92      | 38.92      | 38.92      |   0.0 |  2.98
Output  | 7.3379     | 7.3379     | 7.3379     |   0.0 |  0.56
Modify  | 164.78     | 164.78     | 164.78     |   0.0 | 12.60
Other   |            | 22.2       |            |       |  1.70

Nlocal:           8720 ave        8720 max        8720 min
Histogram: 1 0 0 0 0 0 0 0 0 0
Nghost:          18849 ave       18849 max       18849 min
Histogram: 1 0 0 0 0 0 0 0 0 0
Neighs:              0 ave           0 max           0 min
Histogram: 1 0 0 0 0 0 0 0 0 0
FullNghs:  4.07024e+06 ave 4.07024e+06 max 4.07024e+06 min
Histogram: 1 0 0 0 0 0 0 0 0 0

Total # of neighbors = 4070240
Ave neighs/atom = 466.77064
Ave special neighs/atom = 5.6385321
Neighbor list builds = 43491
Dangerous builds = 0

# --- Cleanup ---
unfix npt_fix

undump dump_npt

# --- Write Output ---
write_dump all custom npt_pppm_last.dump id type mol x y z xu yu zu vx vy vz modify sort id
write_data /home/alexzhao/PolyJarvis/data/PEEK4/lammps/equil/npt_pppm/npt_pppm_out.data
System init for write_data ...
PPPM Kokkos initialization ...
  using 12-bit tables for long-range coulomb
  G vector (1/distance) = 0.31172222
  grid = 40 40 40
  stencil order = 5
  estimated absolute RMS force accuracy = 0.00027108691
  estimated relative force accuracy = 8.1637019e-07
  using double precision cuFFT
  3d grid and FFT values/proc = 103823 64000
Generated 21 of 21 mixed pair_coeff terms from sixthpower/sixthpower mixing rule

print "STAGE COMPLETE: NPT T=850.0->850.0K P=50000.0->1.0atm steps=500000"
STAGE COMPLETE: NPT T=850.0->850.0K P=50000.0->1.0atm steps=500000
quit
         | 22.2       |            |       |  1.70

Nlocal:           8720 ave        8720 max        8720 min
Histogram: 1 0 0 0 0 0 0 0 0 0
Nghost:          18849 ave       18849 max       18849 min
Histogram: 1 0 0 0 0 0 0 0 0 0
Neighs:              0 ave           0 max           0 min
Histogram: 1 0 0 0 0 0 0 0 0 0
FullNghs:  4.07024e+06 ave 4.07024e+06 max 4.07024e+06 min
Histogram: 1 0 0 0 0 0 0 0 0 0

Total # of neighbors = 4070240
Ave neighs/atom = 466.77064
Ave special neighs/atom = 5.6385321
Neighbor list builds = 43491
Dangerous builds = 0
System init for write_data ...
PPPM Kokkos initialization ...
  using 12-bit tables for long-range coulomb
  G vector (1/distance) = 0.31172222
  grid = 40 40 40
  stencil order = 5
  estimated absolute RMS force accuracy = 0.00027108691
  estimated relative force accuracy = 8.1637019e-07
  using double precision cuFFT
  3d grid and FFT values/proc = 103823 64000
Generated 21 of 21 mixed pair_coeff terms from sixthpower/sixthpower mixing rule
STAGE COMPLETE: NPT T=850.0->850.0K P=50000.0->1.0atm steps=500000
