LAMMPS data file via write_data, version 22 Jul 2025, timestep = 1000000, units = real

6420 atoms
4 atom types
6810 bonds
8 bond types
12000 angles
15 angle types
19110 dihedrals
24 dihedral types
5600 impropers
14 improper types

4.143357850233244 46.59132717974818 xlo xhi
4.143357850233244 46.59132717974818 ylo yhi
4.143357850233244 46.59132717974818 zlo zhi

Masses

1 12.01115
2 12.01115
3 12.01115
4 1.00797

Pair Coeffs # lj/class2/coul/long/kk

1 0.054 4.01
2 0.054 4.01
3 0.064 4.01
4 0.02 2.995

Bond Coeffs # class2/kk

1 1.53 299.67 -501.77 679.81
2 1.53 299.67 -501.77 679.81
3 1.501 321.902 -521.821 572.163
4 1.101 345 -691.89 844.6
5 1.501 321.902 -521.821 572.163
6 1.101 345 -691.89 844.6
7 1.417 470.836 -627.618 1327.63
8 1.0982 372.825 -803.453 894.317

Angle Coeffs # class2/kk

1 112.67 39.516 -7.443 -9.5583
2 108.4 43.9594 -8.3924 -9.3379
3 110.77 41.453 -10.604 5.129
4 112.67 39.516 -7.443 -9.5583
5 108.4 43.9594 -8.3924 -9.3379
6 110.77 41.453 -10.604 5.129
7 120.05 44.7148 -22.7352 0
8 112.67 39.516 -7.443 -9.5583
9 110.77 41.453 -10.604 5.129
10 120.05 44.7148 -22.7352 0
11 111 44.3234 -9.4454 0
12 111 44.3234 -9.4454 0
13 118.9 61.0226 -34.9931 0
14 117.94 35.1558 -12.4682 0
15 107.66 39.641 -12.921 -2.4318

BondBond Coeffs

1 0 1.53 1.53
2 0 1.53 1.501
3 3.3872 1.53 1.101
4 0 1.53 1.53
5 0 1.53 1.501
6 3.3872 1.53 1.101
7 12.0676 1.501 1.417
8 0 1.53 1.53
9 3.3872 1.53 1.101
10 12.0676 1.501 1.417
11 2.9168 1.501 1.101
12 2.9168 1.501 1.101
13 68.2856 1.417 1.417
14 1.0795 1.417 1.0982
15 5.3316 1.101 1.101

BondAngle Coeffs

1 8.016 8.016 1.53 1.53
2 0 0 1.53 1.501
3 20.754 11.421 1.53 1.101
4 8.016 8.016 1.53 1.53
5 0 0 1.53 1.501
6 20.754 11.421 1.53 1.101
7 47.0579 31.0771 1.501 1.417
8 8.016 8.016 1.53 1.53
9 20.754 11.421 1.53 1.101
10 47.0579 31.0771 1.501 1.417
11 26.4608 11.7717 1.501 1.101
12 26.4608 11.7717 1.501 1.101
13 28.8708 28.8708 1.417 1.417
14 20.0033 24.2183 1.417 1.0982
15 18.103 18.103 1.101 1.101

Dihedral Coeffs # class2/kk

1 0 0 0.0514 0 -0.143 0
2 0 0 0 0 0.158 180
3 0 0 0.0316 0 -0.1681 0
4 -0.2802 0 -0.0678 0 -0.0122 0
5 0 0 0.0514 0 -0.143 0
6 0 0 0.0316 0 -0.1681 0
7 -0.2802 0 -0.0678 0 -0.0122 0
8 0 0 4.4072 0 0 0
9 0 0 1.559 0 0 0
10 0 0 0 0 0.158 180
11 0 0 0.0316 0 -0.1681 0
12 0 0 0 0 0.158 180
13 0 0 0.0316 0 -0.1681 0
14 0 0 4.4072 0 0 0
15 0 0 1.559 0 0 0
16 -0.0228 0 0.028 0 -0.1863 0
17 -0.0228 0 0.028 0 -0.1863 0
18 -0.2801 0 -0.0678 0 -0.0122 0
19 -0.2801 0 -0.0678 0 -0.0122 0
20 8.3667 0 1.1932 0 0 0
21 0 0 3.9661 0 0 0
22 -0.1432 0 0.0617 0 -0.1083 0
23 -0.1432 0 0.0617 0 -0.1083 0
24 0 0 1.8769 0 0 0

AngleAngleTorsion Coeffs

1 -22.045 112.67 112.67
2 0 112.67 108.4
3 -16.164 112.67 110.77
4 0 108.4 120.05
5 -22.045 112.67 112.67
6 -16.164 112.67 110.77
7 0 108.4 120.05
8 -14.4097 120.05 118.9
9 4.4444 120.05 117.94
10 0 112.67 108.4
11 -16.164 112.67 110.77
12 0 112.67 108.4
13 -16.164 112.67 110.77
14 -14.4097 120.05 118.9
15 4.4444 120.05 117.94
16 0 108.4 110.77
17 0 108.4 110.77
18 -5.8888 120.05 111
19 -5.8888 120.05 111
20 0 118.9 118.9
21 -4.8141 118.9 117.94
22 -12.564 110.77 110.77
23 -12.564 110.77 110.77
24 0.3598 117.94 117.94

EndBondTorsion Coeffs

1 -0.0732 0 0 -0.0732 0 0 1.53 1.53
2 0 0 0 0 0 0 1.53 1.501
3 0.2486 0.2422 -0.0925 0.0814 0.0591 0.2219 1.53 1.101
4 0 0 0 0 0 0 1.53 1.417
5 -0.0732 0 0 -0.0732 0 0 1.53 1.53
6 0.2486 0.2422 -0.0925 0.0814 0.0591 0.2219 1.53 1.101
7 0 0 0 0 0 0 1.53 1.417
8 0 0.2421 0 0 -0.6918 0 1.501 1.417
9 0 -1.797 0 0 -0.4879 0 1.501 1.0982
10 0 0 0 0 0 0 1.53 1.501
11 0.2486 0.2422 -0.0925 0.0814 0.0591 0.2219 1.53 1.101
12 0 0 0 0 0 0 1.53 1.501
13 0.2486 0.2422 -0.0925 0.0814 0.0591 0.2219 1.53 1.101
14 0 0.2421 0 0 -0.6918 0 1.501 1.417
15 0 -1.797 0 0 -0.4879 0 1.501 1.0982
16 0 0 0 0 0 0 1.501 1.101
17 0 0 0 0 0 0 1.501 1.101
18 -0.5835 1.122 0.3978 1.3997 0.7756 0 1.417 1.101
19 -0.5835 1.122 0.3978 1.3997 0.7756 0 1.417 1.101
20 -0.1185 6.3204 0 -0.1185 6.3204 0 1.417 1.417
21 0 -6.8958 0 0 -0.4669 0 1.417 1.0982
22 0.213 0.312 0.0777 0.213 0.312 0.0777 1.101 1.101
23 0.213 0.312 0.0777 0.213 0.312 0.0777 1.101 1.101
24 0 -0.689 0 0 -0.689 0 1.0982 1.0982

MiddleBondTorsion Coeffs

1 -17.787 -7.1877 0 1.53
2 0 0 0 1.53
3 -14.879 -3.6581 -0.3138 1.53
4 0 0 0 1.501
5 -17.787 -7.1877 0 1.53
6 -14.879 -3.6581 -0.3138 1.53
7 0 0 0 1.501
8 0 9.1792 0 1.417
9 0 3.9421 0 1.417
10 0 0 0 1.53
11 -14.879 -3.6581 -0.3138 1.53
12 0 0 0 1.53
13 -14.879 -3.6581 -0.3138 1.53
14 0 9.1792 0 1.417
15 0 3.9421 0 1.417
16 0 0 0 1.53
17 0 0 0 1.53
18 -5.5679 1.4083 0.301 1.501
19 -5.5679 1.4083 0.301 1.501
20 27.5989 -2.312 0 1.417
21 0 -1.1521 0 1.417
22 -14.261 -0.5322 -0.4864 1.53
23 -14.261 -0.5322 -0.4864 1.53
24 0 4.8228 0 1.417

BondBond13 Coeffs

1 0 1.53 1.53
2 0 1.53 1.501
3 0 1.53 1.101
4 0 1.53 1.417
5 0 1.53 1.53
6 0 1.53 1.101
7 0 1.53 1.417
8 2.5085 1.501 1.417
9 0.8743 1.501 1.0982
10 0 1.53 1.501
11 0 1.53 1.101
12 0 1.53 1.501
13 0 1.53 1.101
14 2.5085 1.501 1.417
15 0.8743 1.501 1.0982
16 0 1.501 1.101
17 0 1.501 1.101
18 -3.4826 1.417 1.101
19 -3.4826 1.417 1.101
20 53 1.417 1.417
21 -6.2741 1.417 1.0982
22 0 1.101 1.101
23 0 1.101 1.101
24 -1.7077 1.0982 1.0982

AngleTorsion Coeffs

1 0.3886 -0.3139 0.1389 0.3886 -0.3139 0.1389 112.67 112.67
2 0 0 0 0 0 0 112.67 108.4
3 -0.2454 0 -0.1136 0.3113 0.4516 -0.1988 112.67 110.77
4 0 0 0 0 0 0 108.4 120.05
5 0.3886 -0.3139 0.1389 0.3886 -0.3139 0.1389 112.67 112.67
6 -0.2454 0 -0.1136 0.3113 0.4516 -0.1988 112.67 110.77
7 0 0 0 0 0 0 108.4 120.05
8 0 -4.4683 0 0 3.8987 0 120.05 118.9
9 0 -0.1242 0 0 3.4601 0 120.05 117.94
10 0 0 0 0 0 0 112.67 108.4
11 -0.2454 0 -0.1136 0.3113 0.4516 -0.1988 112.67 110.77
12 0 0 0 0 0 0 112.67 108.4
13 -0.2454 0 -0.1136 0.3113 0.4516 -0.1988 112.67 110.77
14 0 -4.4683 0 0 3.8987 0 120.05 118.9
15 0 -0.1242 0 0 3.4601 0 120.05 117.94
16 0 0 0 0 0 0 108.4 110.77
17 0 0 0 0 0 0 108.4 110.77
18 0.2251 0.6548 0.1237 4.6266 0.1632 0.0461 120.05 111
19 0.2251 0.6548 0.1237 4.6266 0.1632 0.0461 120.05 111
20 1.9767 1.0239 0 1.9767 1.0239 0 118.9 118.9
21 0 2.5014 0 0 2.7147 0 118.9 117.94
22 -0.8085 0.5569 -0.2466 -0.8085 0.5569 -0.2466 110.77 110.77
23 -0.8085 0.5569 -0.2466 -0.8085 0.5569 -0.2466 110.77 110.77
24 0 2.4501 0 0 2.4501 0 117.94 117.94

Improper Coeffs # class2/kk

1 0 0
2 0 0
3 0 0
4 0 0
5 0 0
6 0 0
7 0 0
8 0 0
9 0 0
10 0 0
11 0 0
12 7.8153 0
13 7.8153 0
14 4.8912 0

AngleAngle Coeffs

1 2.0403 -1.8202 1.0827 108.4 110.77 111
2 0.1184 -1.3199 -1.3199 110.77 112.67 110.77
3 1.0827 -1.8202 2.0403 110.77 108.4 111
4 0.2738 -0.4825 0.2738 110.77 110.77 107.66
5 -1.3199 -1.3199 0.1184 112.67 110.77 110.77
6 0.2738 -0.4825 0.2738 110.77 110.77 107.66
7 2.3794 3.0118 2.3794 111 111 107.66
8 -0.3157 -0.3157 -0.3157 107.66 107.66 107.66
9 0 0 0 112.67 108.4 108.4
10 -1.3199 -1.3199 0.1184 112.67 110.77 110.77
11 2.0403 -1.8202 1.0827 108.4 110.77 111
12 0 0 0 120.05 120.05 118.9
13 0 0 0 120.05 120.05 118.9
14 0 0 0 118.9 117.94 117.94

Atoms # full/kk

6331 10 3 -0.1268 8.010851810372875 6.876378362685638 9.093168378945283 1 1 0
6358 10 2 -0.053 10.229271689616903 10.419758993578753 46.384003150160126 1 1 -1
6341 10 4 0.053 6.348074290138213 10.617173914878506 5.764893509318429 1 1 0
6340 10 4 0.053 7.423021389067586 10.15138740238635 7.1157779107223345 1 1 0
6330 10 4 0.1268 7.318886285505228 8.894752734913535 8.847413744691458 1 1 0
6329 10 3 -0.1268 7.395966833957422 7.940012456319397 8.34282371514228 1 1 0
6328 10 3 0 6.548020092841331 7.5901809507913764 7.245596698213651 1 1 0
6323 10 1 -0.106 4.72904254455201 9.131070917063125 7.410873738198267 1 1 0
6339 10 1 -0.106 6.967938146913767 9.83755240232095 6.208391448337624 1 1 0
6342 10 2 -0.053 8.058753613748278 9.51788015845709 5.241505915321909 1 1 0
6308 10 4 0.053 4.151281361319754 6.467073507145081 7.723768788752066 1 1 0
6326 10 2 -0.053 5.885917811298139 8.69838576382643 6.528046284556019 1 1 0
6327 10 4 0.053 5.33739623902223 8.502891704247428 5.57185533440331 1 1 0
6343 10 4 0.053 8.565778858203347 8.914264565934475 5.9354435291419545 1 1 0
6338 10 4 0.1268 5.926154706332659 5.918038572209889 6.068679574759803 1 1 0
6337 10 3 -0.1268 6.622958284683493 6.27353737744931 6.866894696254485 1 1 0
6335 10 3 -0.1268 7.275742170537482 5.311691556387319 7.5690017696298755 1 1 0
6333 10 3 -0.1268 7.902730592429531 5.551450810459399 8.745057352448391 1 1 0
6344 10 3 0 7.529891357263008 8.866056357652976 46.413491372396905 1 1 -1
6353 10 3 -0.1268 7.639340212766113 7.582213801992419 46.146831202389535 1 1 -1
6354 10 4 0.1268 8.080179807394881 6.872082283484351 4.45986592814588 1 1 0
6359 10 4 0.053 10.375096341191142 9.223776796860701 46.519434562420116 1 1 -1
6385 10 3 -0.1268 14.451531077353547 10.454800206193145 4.56788589503883 1 1 0
6375 10 4 0.053 11.43807130628483 9.605826484463217 5.723377982643931 1 1 0
6401 10 3 -0.1268 12.627212800093108 8.478930604592147 9.636151942533111 1 1 0
6376 10 3 0 13.384635193540253 9.715308536789188 5.061264033207583 1 1 0
6402 10 4 0.1268 13.298687065693963 9.22452827450892 9.99309262132082 1 1 0
6381 10 3 -0.1268 15.94176067454098 8.546938001814333 4.726099289744647 1 1 0
6378 10 4 0.1268 12.546186555787324 7.78595911682556 5.453651587042487 1 1 0
6377 10 3 -0.1268 13.481623045710268 8.3181881333377 5.197680915470657 1 1 0
6380 10 4 0.1268 14.904218605161605 6.722602876310388 5.3640558238931035 1 1 0
6379 10 3 -0.1268 14.742636423257377 7.804634412167983 5.112160953647015 1 1 0
2194 4 4 0.1268 15.97717612772817 7.058320279131255 7.657473133678362 0 0 1
6383 10 3 -0.1268 15.71176241128441 9.88921138583074 4.322004710267004 1 1 0
2193 4 3 -0.1268 16.56345352778618 7.421271263992838 8.520458344273823 0 0 1
6382 10 4 0.1268 16.898778227798687 8.031841887910389 4.704509332190788 1 1 0
2192 4 4 0.1268 17.768069228220725 8.720956023595477 7.2790409964081535 0 0 1
6384 10 4 0.1268 16.571766048436764 10.54692611978458 4.206221484059048 1 1 0
2161 4 3 -0.1268 20.98064172182414 4.693521286183833 6.975579120400886 0 0 1
2189 4 3 -0.1268 18.167819307796222 8.988609439223856 9.430311053330819 0 0 1
2190 4 4 0.1268 19.101262840308983 9.630471886396624 9.30174903094609 0 0 1
2191 4 3 -0.1268 17.564210871072305 8.387280399809878 8.324348310223185 0 0 1
2168 4 4 0.053 21.379226247641654 9.117562164377237 9.14672109446987 0 0 1
2164 4 4 0.1268 20.375944282452227 6.212429639970147 5.70507003541989 0 0 1
2163 4 3 -0.1268 20.795167794556058 6.0352222470182655 6.65072671613178 0 0 1
2165 4 3 -0.1268 21.216479864191324 6.954956343875853 7.569045253283219 0 0 1
2166 4 4 0.1268 20.99266835560264 7.992612020452961 7.319780061094676 0 0 1
4489 7 3 -0.1268 20.189253753446387 9.642624545080167 4.170034561446869 0 1 1
2156 4 3 0 21.96339343437883 6.608035723265976 8.703365729537511 0 0 1
4490 7 4 0.1268 19.156179966914838 9.867004039922984 4.556551429097857 0 1 1
2157 4 3 -0.1268 22.186661742574437 5.223452835534024 9.021224847431416 0 0 1
4488 7 4 0.1268 21.15897310298614 10.69095592272899 5.608914854996427 0 1 1
4470 7 4 0.1268 23.793908401257248 4.867893288837202 5.303649553261336 0 1 1
2158 4 4 0.1268 22.416773752436193 5.020763285832215 10.137631226260199 0 0 1
606 1 4 0.1268 26.988727952418905 7.850084964556334 5.66759659893118 0 0 0
605 1 3 -0.1268 28.066672947365642 7.725380912885102 5.133321275404488 0 0 0
2138 4 2 -0.053 25.059677913150125 9.043937584638428 9.345087748725446 0 0 1
2136 4 4 0.053 26.66574778191875 7.57352908834873 9.652899316165556 0 0 1
2153 4 4 0.053 23.403595735077158 9.053676689392116 7.99814936668585 0 0 1
2151 4 1 -0.106 23.848034180290938 8.309424143074757 8.700294295824609 0 0 1
4487 7 3 -0.1268 21.37746655253029 10.156346622672569 4.68447787028954 0 1 1
2152 4 4 0.053 24.215176871795205 7.401296621486521 8.336217562769411 0 0 1
2141 4 3 -0.1268 27.183143011593703 9.66156956366704 7.889746924775969 0 0 1
2140 4 3 0 25.981338467754764 9.925898790949976 8.437867242578022 0 0 1
2142 4 4 0.1268 27.492331238698657 8.644350011156742 8.109199436855981 0 0 1
2154 4 2 -0.053 22.79101830650491 7.697081903227646 9.572657359890952 0 0 1
571 1 3 -0.1268 34.53683972410254 7.668493705452454 5.393765823927816 0 0 0
2112 4 4 0.1268 31.52271308532544 11.867957322528259 9.009558676142403 0 0 1
2080 4 4 0.1268 35.06433133842238 10.214369891423669 8.883669219006418 0 0 1
603 1 3 -0.1268 28.94138671560532 6.668291513812267 5.256522090898525 0 0 0
604 1 4 0.1268 28.71557305839338 5.957779942701596 6.119812847238919 0 0 0
602 1 4 0.1268 30.850077884736436 5.890262179800492 4.554859992141878 0 0 0
6237 10 3 -0.1268 33.063601942345144 5.358850084909295 8.809888770796713 0 1 0
6238 10 4 0.1268 32.08677883206367 5.71856188706446 8.596252631371563 0 1 0
2116 4 4 0.1268 30.689093976430403 7.889475853621236 7.498554512191384 0 0 1
2115 4 3 -0.1268 30.7270333938982 8.754100552856057 8.274188633515436 0 0 1
2114 4 4 0.1268 31.64825969016694 10.152005158459612 7.127046409044462 0 0 1
2109 4 3 -0.1268 30.285262135504816 10.60581131786877 10.157547211916382 0 0 1
2113 4 3 -0.1268 31.319814191452828 9.934634064912444 8.11778640204286 0 0 1
2111 4 3 -0.1268 30.995664097848554 10.905742900797895 8.985833461876783 0 0 1
2117 4 3 -0.1268 30.147142622443084 8.310668806839763 9.512538684816437 0 0 1
2118 4 4 0.1268 29.947124890331587 7.257840013403975 9.777092526583617 0 0 1
6236 10 4 0.1268 34.23379677926914 7.212500237526328 8.49277649719822 0 1 0
6235 10 3 -0.1268 34.226339838013025 6.195194316770456 8.824469801125044 0 1 0
576 1 4 0.1268 34.01094417784546 10.94455172383724 6.400074189112261 0 0 0
575 1 3 -0.1268 34.105181421419914 10.008315147289409 5.660782349370323 0 0 0
573 1 3 -0.1268 34.406518005564195 8.788050543186975 6.2685117803051975 0 0 0
574 1 4 0.1268 34.65570120372938 8.73206669977652 7.380328529886047 0 0 0
572 1 4 0.1268 34.892376534164185 6.728471263445179 5.775889177559119 0 0 0
2079 4 3 -0.1268 35.09334776422125 9.764985027506732 9.908195460947873 0 0 1
6228 10 4 0.053 38.14676427156434 5.253341346092425 10.422174649784845 0 1 0
539 1 3 -0.1268 37.57385862970887 9.474606628270985 4.824453803159556 0 0 0
6233 10 3 -0.1268 35.39496982228414 5.695708068371497 9.43522311617391 0 1 0
540 1 4 0.1268 37.463003270186405 8.527769742521254 5.405982331566246 0 0 0
6234 10 4 0.1268 36.32374872050103 6.26015246303232 9.429484636023497 0 1 0
2081 4 3 -0.1268 36.29420097029874 9.021864388498114 10.208432287281132 0 0 1
2082 4 4 0.1268 36.884190743509365 8.857648593434533 9.382479072743605 0 0 1
6250 10 4 0.1268 38.44825811745804 5.61195695877459 7.384123518176897 0 1 0
6288 10 4 0.1268 40.26147854174721 8.688746207575267 5.544598140920937 0 1 0
6324 10 4 0.053 5.052800339751327 8.917345239971338 8.472949527986675 1 1 0
6325 10 4 0.053 4.482838516031658 10.228859435704106 7.21559647865312 1 1 0
6307 10 1 -0.106 45.61858254298956 6.9376719408085865 7.940815522450153 0 1 0
6309 10 4 0.053 45.31517164315866 6.913018119770331 9.011622071804291 0 1 0
6305 10 3 -0.1268 45.11246675994133 5.602911697743104 4.846617377628823 0 1 0
6311 10 4 0.053 45.487481579370304 8.38429663945374 6.277073835853418 0 1 0
6310 10 2 -0.053 45.74816763696662 8.362116146638998 7.323305085433355 0 1 0
6291 10 1 -0.106 43.43229359409716 5.479385856455637 7.991435091599653 0 1 0
6312 10 3 0 44.757583245631594 9.152931516794055 8.16380665659326 0 1 0
6319 10 3 -0.1268 42.46295728306387 9.877552120153876 8.58036702454872 0 1 0
6287 10 3 -0.1268 40.60994309869362 7.606668849793289 5.331738368399503 0 1 0
6289 10 3 -0.1268 41.41373376008349 6.914740733728925 6.211740749171639 0 1 0
6321 10 3 -0.1268 43.478009168739554 9.499911489386562 7.712035249914089 0 1 0
6322 10 4 0.1268 43.189149894488246 9.534052839878328 6.589553935958985 0 1 0
6294 10 2 -0.053 44.49024425634641 6.259456952137505 7.1214890607470585 0 1 0
6293 10 4 0.053 42.93420202841518 6.304165074184191 8.582650015267637 0 1 0
6313 10 3 -0.1268 45.050036183236806 9.472795866775765 9.565484667834147 0 1 0
6280 10 3 0 41.79588743641342 5.553626959251035 6.032483949130104 0 1 0
6317 10 3 -0.1268 42.77530008668392 10.052276211256356 9.935695523011084 0 1 0
6290 10 4 0.1268 41.58842831533532 7.321858917773269 7.175761045124236 0 1 0
6295 10 4 0.053 43.97694710911909 6.982146293240223 6.48187371765539 0 1 0
6316 10 4 0.1268 44.197828810499544 10.093307736007755 11.46328520791994 0 1 0
6314 10 4 0.1268 46.0375121357697 9.249723158662192 10.0381956111504 0 1 0
6318 10 4 0.1268 41.96828017902139 10.528354795498181 10.537967242415803 0 1 0
6315 10 3 -0.1268 44.0567905659638 9.870655318516619 10.387020486117537 0 1 0
6355 10 1 -0.106 9.05319458835908 10.655949683347474 4.972749648189627 1 1 0
3114 5 4 0.053 9.693613147078867 15.376187170538193 46.28402781381683 0 0 -1
6394 10 4 0.1268 10.062479666016998 8.589457388210494 7.471270349979984 1 1 0
6357 10 4 0.053 9.49228073940627 10.880989305441192 5.919385279182144 1 1 0
3096 5 4 0.1268 6.791853477657615 14.015096660443774 46.15698178825471 0 0 -1
6393 10 3 -0.1268 10.675898337841915 8.1893224189235 8.268718399175807 1 1 0
3094 5 4 0.1268 6.611676680178949 13.13815348261007 6.492296419689846 0 0 0
3095 5 3 -0.1268 6.338487389394695 14.453598739935094 4.654124394533368 0 0 0
6391 10 4 0.053 10.646189985620566 10.735714189083431 7.8939776264003285 1 1 0
6356 10 4 0.053 8.634582994756277 11.57885388693315 4.656065404488435 1 1 0
3093 5 3 -0.1268 6.339211022017957 14.071047665270939 5.9883995506019385 0 0 0
3091 5 3 -0.1268 6.11059903907776 15.062470027812363 7.03097090660487 0 0 0
3092 5 4 0.1268 5.987349780882869 14.777975215164444 8.095148975521097 0 0 0
6418 10 4 0.1268 12.245391008113613 15.51890857231834 9.190696283778186 1 1 0
6417 10 3 -0.1268 11.883104137062517 15.09340688916098 10.129776567381832 1 1 0
6373 10 4 0.053 11.131736390971511 12.214167742991583 4.867420620215045 1 1 0
3124 5 4 0.1268 15.465713929667393 15.917846909666098 6.021890316389555 0 0 0
6392 10 3 0 11.68188021098878 9.008524363341753 8.753141515562133 1 1 0
3119 5 3 -0.1268 12.063983523304636 15.88104102572316 5.746466395780302 0 0 0
3121 5 3 -0.1268 13.333062763282328 15.697776680225246 6.305412931811983 0 0 0
3120 5 4 0.1268 11.254561162388153 15.210022917290518 6.2253190535194785 0 0 0
6386 10 4 0.1268 14.408064406970222 11.503025647295994 4.510922323114559 1 1 0
6406 10 1 -0.106 11.100198989584483 12.787060722272829 9.281167528030885 1 1 0
6371 10 1 -0.106 11.421569071633568 11.155955302309891 4.470395492180529 1 1 0
6405 10 4 0.053 11.071646942953368 10.859896168032297 10.392401580915951 1 1 0
3122 5 4 0.1268 13.475369560173272 15.050109517407405 7.228402052654886 0 0 0
6404 10 4 0.053 12.743088244234283 11.525126061541725 9.95636484976896 1 1 0
6390 10 2 -0.053 11.598349255565076 10.47150547057582 8.297067922399863 1 1 0
6387 10 1 -0.106 12.618571605849665 10.900990200529819 7.049262259594675 1 1 0
6388 10 4 0.053 12.60070014810576 12.022765638341035 6.904051602789998 1 1 0
6374 10 2 -0.053 12.138825753718839 10.346692494325204 5.544135095676134 1 1 0
6403 10 1 -0.106 11.671140144251499 11.393052724874753 9.640092911358195 1 1 0
6389 10 4 0.053 13.570904845299747 10.627099309649147 7.406162222531975 1 1 0
2816 5 4 0.1268 15.814021772417451 13.82313263043087 4.643879612776083 0 0 0
2818 5 4 0.1268 14.98929946505133 13.069098294124267 6.932879375927856 0 0 0
6407 10 4 0.053 11.713966937492607 13.250021996255395 8.548201091375075 1 1 0
2824 5 4 0.1268 19.7859738275861 12.647864134981337 5.531513243018645 0 0 0
2814 5 3 0 17.78216624847029 13.199748947084021 5.016951930177116 0 0 0
2823 5 3 -0.1268 18.67847966271546 12.567379304207815 5.898061815743431 0 0 0
2807 5 3 -0.1268 21.185388903308766 15.625558415019196 5.598042154505621 0 0 0
2788 5 4 0.1268 15.766109869746176 18.02017940355052 9.826497198068665 0 0 0
2817 5 3 -0.1268 16.034611614755875 12.853649342190376 6.5683860645853365 0 0 0
2815 5 3 -0.1268 16.516488365228668 13.261805490835616 5.357059267336246 0 0 0
2808 5 4 0.1268 20.648061010024996 15.611844502415837 6.543227716016045 0 0 0
2797 5 4 0.053 18.713033799664707 15.394047743445327 5.463718024447769 0 0 0
2790 5 4 0.1268 17.038914485394855 15.954780788839505 9.005164161653475 0 0 0
2819 5 3 -0.1268 16.889656407269904 12.15995585586071 7.447300927731043 0 0 0
2821 5 3 -0.1268 18.19516058729583 12.090432676509156 7.095466554092644 0 0 0
2820 5 4 0.1268 16.531885425104008 11.650863126402868 8.429059804560143 0 0 0
2822 5 4 0.1268 18.92328654312097 11.652196510453376 7.862983570098353 0 0 0
4070 7 4 0.1268 27.39204370286169 14.558211505516386 45.9904522475484 0 0 0
2805 5 3 -0.1268 22.63740710663623 15.55179049346327 5.570954760100979 0 0 0
2806 5 4 0.1268 23.24254819950441 15.580730632480934 6.457687424499224 0 0 0
2148 4 4 0.1268 25.369835855191194 12.85936969250138 6.642421974700898 0 0 1
2737 5 3 -0.1268 25.59559321054724 16.06430979288322 6.878735142943518 0 0 0
2738 5 4 0.1268 25.656199923587618 15.123565645723582 6.232102092682037 0 0 0
2146 4 4 0.1268 27.988880458951552 12.13266226822198 5.844642345373485 0 0 1
2147 4 3 -0.1268 25.975794187558115 11.929077826252993 6.959442499953526 0 0 1
2145 4 3 -0.1268 27.283684458893617 11.643224277842982 6.519423229594474 0 0 1
2143 4 3 -0.1268 27.842585553806096 10.45774269500274 7.004002799581126 0 0 1
2144 4 4 0.1268 28.923199255805553 10.217283411855036 6.683527099578577 0 0 1
2150 4 4 0.1268 24.29302827830501 11.402253145039271 8.3664650931114 0 0 1
2149 4 3 -0.1268 25.418693850677545 11.19041988945194 8.008228777268044 0 0 1
565 1 4 0.053 33.68366943588241 12.4338753188427 4.661162578683517 0 0 0
583 1 3 -0.1268 30.570127521297948 14.22388832632571 46.50011987153342 0 0 -1
564 1 2 -0.053 33.58903693811991 11.623240372199579 46.339726803807004 0 0 -1
566 1 3 0 33.82880374374406 10.142789267590885 4.319867506560652 0 0 0
585 1 3 -0.1268 30.126045442756862 15.440894550939667 4.64919560153977 0 0 0
582 1 3 0 30.627527646769455 13.043755295426129 4.687400380151375 0 0 0
590 1 4 0.1268 29.140834127109407 13.997489971109992 7.582397815257688 0 0 0
2670 5 3 0 34.78178181166071 16.240375557886736 8.489781735050506 0 0 0
588 1 4 0.1268 29.12310280487786 16.1617930456118 6.508438909005809 0 0 0
587 1 3 -0.1268 29.578651516962523 15.333831120162982 5.972307763359013 0 0 0
589 1 3 -0.1268 29.65644562956886 14.109904538631408 6.6753378537432555 0 0 0
591 1 3 -0.1268 30.346738934616994 13.087968407161346 6.040423659838675 0 0 0
592 1 4 0.1268 30.506375185758202 12.103101758515969 6.556426933679475 0 0 0
2672 5 4 0.1268 33.01869982472934 16.596459701840615 9.584031225295584 0 0 0
2674 5 4 0.1268 32.12779834261145 13.947520350659682 9.300764019906996 0 0 0
2671 5 3 -0.1268 33.62107900107124 15.777593080972128 9.110894553583753 0 0 0
2673 5 3 -0.1268 33.12910721670765 14.364394873937554 8.999956029039694 0 0 0
2676 5 4 0.1268 33.61068291750829 12.41991485273673 8.413081034543959 0 0 0
2675 5 3 -0.1268 33.935373980291246 13.494104059361957 8.334813085194442 0 0 0
581 1 4 0.053 31.11595370576211 10.87459524745439 4.690948760617773 0 0 0
533 1 4 0.053 38.273263691553815 13.949963079648487 46.41455569356741 0 0 -1
549 1 4 0.053 35.582092310180144 13.790727324104484 4.497872507563678 0 0 0
562 1 4 0.053 35.657864571003955 11.381085582833144 45.99343493612249 0 0 -1
2068 4 4 0.1268 37.48942403246815 13.373780757830048 9.652898073902 0 0 1
2680 5 4 0.1268 36.412974138096715 15.637171106513664 7.047868671539041 0 0 0
2656 5 4 0.1268 38.193337058436576 16.077633096769077 10.274600199550918 0 0 0
2658 5 4 0.1268 40.64641968788251 16.074455639025526 10.024108342902109 0 0 0
541 1 3 -0.1268 37.6351253287643 10.639569124187663 5.596569947213812 0 0 0
543 1 3 -0.1268 37.827262359622374 11.853826023240735 4.998387276725976 0 0 0
544 1 4 0.1268 38.12419865253024 12.699717358527552 5.671727822510596 0 0 0
2678 5 4 0.1268 35.82464151627177 13.082805671708103 7.490722908995538 0 0 0
2677 5 3 -0.1268 35.14437222139993 13.914781711356182 7.774224686006635 0 0 0
2679 5 3 -0.1268 35.48322703205102 15.276238638320661 7.749485919109143 0 0 0
542 1 4 0.1268 37.41573855579898 10.569374883120984 6.701802426845139 0 0 0
527 1 3 -0.1268 40.749805299419265 16.152507303025743 46.43889846086112 0 0 -1
528 1 4 0.1268 41.63584506055872 15.60035268779264 46.03588153887293 0 0 -1
3078 5 4 0.1268 45.63657639760848 11.156917709666446 5.696520051891491 -1 0 0
3077 5 3 -0.1268 45.5347130187362 12.182807461621547 5.205461053252893 -1 0 0
3073 5 3 -0.1268 44.60469310753121 14.384197783462357 4.97747968315342 -1 0 0
3074 5 4 0.1268 43.781271727964715 15.144953145368003 5.02790777640581 -1 0 0
3076 5 4 0.1268 44.231729035145435 13.16217597108343 6.628764195104911 -1 0 0
3075 5 3 -0.1268 44.76791290993269 13.187259556755777 5.721841634870358 -1 0 0
6320 10 4 0.1268 41.388861137220935 9.932034018401215 8.402464942086311 0 1 0
3088 5 4 0.1268 5.752580260170107 17.87166810051042 4.992947756143176 0 0 0
3136 5 4 0.1268 8.027209975894023 20.011545806718523 6.353324568845889 0 0 0
3146 5 4 0.053 8.461373230768894 18.34666147642903 7.864620351563521 0 0 0
3137 5 3 -0.1268 8.96845064144557 21.823835651785192 6.341987515881704 0 0 0
3087 5 3 -0.1268 5.727445228269169 16.736743657446997 5.261326618833095 0 0 0
440 1 4 0.1268 45.35883701105334 18.310182115384578 46.05782514666257 0 0 -1
3138 5 4 0.1268 8.080778355329304 22.472752595914642 6.355197249469322 0 0 0
3141 5 3 -0.1268 11.364918793130748 21.986964500748243 6.494792695374255 0 0 0
3139 5 3 -0.1268 10.143621659453585 22.586194230993364 6.416848003914454 0 0 0
3134 5 3 0 10.226031826150663 19.84529257061351 6.462694450992369 0 0 0
3149 5 4 0.053 9.167543743658005 20.02520294133049 9.036175653040583 0 0 0
3129 5 1 -0.106 9.70457860428349 17.405750403881086 5.641513992981112 0 0 0
3132 5 2 -0.053 10.283838301977323 18.377996456210916 6.808700196884513 0 0 0
3131 5 4 0.053 9.494033104063888 16.423969587023485 6.08908570324035 0 0 0
3089 5 3 -0.1268 5.654665618242996 16.318073838473083 6.58545929246517 0 0 0
3130 5 4 0.053 8.727467404091165 17.811184653669173 5.5567228772368455 0 0 0
3148 5 2 -0.053 9.643367224336913 19.138803135255223 9.352013345302037 0 0 0
3145 5 1 -0.106 9.52818371668494 18.19370456476917 8.13892468174771 0 0 0
3143 5 3 -0.1268 11.418497315812907 20.57807535089059 6.338986027685588 0 0 0
3135 5 3 -0.1268 8.99072483779927 20.50242643463545 6.4930327452201775 0 0 0
3166 5 3 0 12.84513600453509 20.977841223065976 10.7358583226302 0 0 0
3116 5 2 -0.053 10.59892964166658 17.33255866738515 4.299421607379018 0 0 0
6416 10 4 0.1268 12.849529521046982 16.7518924568736 11.197024885048709 1 1 0
3123 5 3 -0.1268 14.439312877974437 16.20138860848153 5.644240191442569 0 0 0
3118 5 3 0 11.928148698103302 16.784119500227316 4.6274734257687244 0 0 0
3127 5 3 -0.1268 13.070512787288997 17.308927085581352 46.48654272938035 0 0 -1
3125 5 3 -0.1268 14.30126612065503 16.861818902764295 4.466314211460974 0 0 0
3126 5 4 0.1268 15.069787490741087 17.231038184337866 46.22176772287442 0 0 -1
3128 5 4 0.1268 12.877429795092366 17.65449694167217 45.506096850577215 0 0 -1
3147 5 4 0.053 9.632364829197881 17.1739442032317 8.369378051640984 0 0 0
3133 5 4 0.053 11.372240708112471 18.063331207361667 6.874739687336093 0 0 0
3161 5 1 -0.106 11.088898690844294 19.448434648794716 9.801696466235288 0 0 0
3165 5 4 0.053 11.376616011128675 21.578524985297047 9.33003373968293 0 0 0
3144 5 4 0.1268 12.566599309609336 20.108376165070368 6.500442424217658 0 0 0
3163 5 4 0.053 11.799297221075982 19.11412466576727 9.00617674660018 0 0 0
3175 5 3 -0.1268 13.851957613936092 21.44045519189005 9.865600127467996 0 0 0
3164 5 2 -0.053 11.36772504887331 20.97655909041837 10.246327765365821 0 0 0
2766 5 3 0 20.122157657115096 21.691632234202626 6.632613946165968 0 0 0
2764 5 2 -0.053 20.56095611485072 20.24391603902169 6.073165115181189 0 0 0
2778 5 4 0.053 18.5879149478511 20.190868398385604 4.949280437311946 0 0 0
2765 5 4 0.053 20.8275401425219 19.531231677230195 6.857865145490368 0 0 0
2767 5 3 -0.1268 19.73785754301451 21.62409857712653 7.919717749987308 0 0 0
2768 5 4 0.1268 19.91211720220883 20.62394402702426 8.375572190936655 0 0 0
2780 5 2 -0.053 19.139780815766947 18.202656180258213 5.51908070375301 0 0 0
2777 5 1 -0.106 19.496246378312954 19.643476498750715 5.177753533974194 0 0 0
2781 5 4 0.053 20.07502766143152 17.789636038163152 5.9234662268787766 0 0 0
2784 5 4 0.1268 16.813409212888583 19.699843338579953 5.959259918893401 0 0 0
2786 5 4 0.1268 15.607204101184758 19.90882409805279 7.925341735150033 0 0 0
2785 5 3 -0.1268 16.195024246351117 19.01839308659482 7.925873617225757 0 0 0
2782 5 3 0 18.07843076953792 18.03949939934374 6.613414611980677 0 0 0
2761 5 1 -0.106 21.995602057886355 20.430366394514238 5.352364971131663 0 0 0
2783 5 3 -0.1268 17.029970830471182 18.95785637614229 6.763899084170696 0 0 0
2791 5 3 -0.1268 18.122882492274456 17.049010674403235 7.578777640486071 0 0 0
2749 5 4 0.053 23.156556701355157 19.445303167400407 6.932347252735281 0 0 0
2789 5 3 -0.1268 17.214927287374927 16.985551441704292 8.644077371990356 0 0 0
2787 5 3 -0.1268 16.319926278036355 17.965671327296967 8.80628092444729 0 0 0
2792 5 4 0.1268 18.979935519612845 16.339781009744826 7.651280460229597 0 0 0
2748 5 2 -0.053 23.24479138586901 20.478402786050633 6.313252572073118 0 0 0
2745 5 1 -0.106 24.66292228122595 20.330265092571114 5.5151640807173 0 0 0
2733 5 4 0.053 25.91029359965275 20.615002703266022 7.339565430544214 0 0 0
2732 5 2 -0.053 25.95033774918528 19.95472011771498 6.455762292262747 0 0 0
2746 5 4 0.053 24.479983074102357 19.606040244927673 4.69930968045268 0 0 0
2718 5 3 0 28.15735454183018 21.63196232006222 7.823689066926279 0 0 0
2730 5 4 0.053 27.212175071493572 21.192466882334088 5.210882743188005 0 0 0
2729 5 1 -0.106 27.346603198213856 20.33517446343376 5.8932563693176885 0 0 0
2731 5 4 0.053 27.812859891874332 19.444262217895805 5.204467752425601 0 0 0
2716 5 2 -0.053 28.578319317760275 20.430103391865472 6.956520775113268 0 0 0
2720 5 4 0.1268 27.67670275005186 20.559993766557728 9.619907014430648 0 0 0
2741 5 3 -0.1268 25.332619176980664 17.202224005620213 8.946815497723808 0 0 0