units real
atom_style full
boundary p p p

# --- Force Field Styles ---
pair_style lj/cut 14.0
dielectric 1.000000
bond_style harmonic
angle_style harmonic
dihedral_style multi/harmonic
improper_style none
special_bonds lj 0 0 0
pair_modify mix arithmetic tail yes
neighbor 2.0 bin
neigh_modify delay 0 every 1 check yes
neigh_modify one 4000
package gpu 1 neigh no

read_data /home/arz2/PolyJarvis/data/cis-PBD1/lammps/equil/npt_compress/npt_compress_out.data
Reading data file ...
  orthogonal box = (8.2700209 8.2700209 8.2700209) to (59.908357 59.908357 59.908357)
  1 by 1 by 1 MPI processor grid
  reading atoms ...
  8040 atoms
  reading velocities ...
  8040 velocities
  scanning bonds ...
  2 = max bonds/atom
  scanning angles ...
  1 = max angles/atom
  scanning dihedrals ...
  2 = max dihedrals/atom
  orthogonal box = (8.2700209 8.2700209 8.2700209) to (59.908357 59.908357 59.908357)
  1 by 1 by 1 MPI processor grid
  reading bonds ...
  8020 bonds
  reading angles ...
  8000 angles
  reading dihedrals ...
  7980 dihedrals
Finding 1-2 1-3 1-4 neighbors ...
  special bond factors lj:    0        0        0       
  special bond factors coul:  0        0        0       
     2 = max # of 1-2 neighbors
     2 = max # of 1-3 neighbors
     4 = max # of 1-4 neighbors
     6 = max # of special neighbors
  special bonds CPU = 0.008 seconds
  read_data CPU = 0.466 seconds
include /home/arz2/PolyJarvis/data/cis-PBD1/lammps/equil/emc_build.params
# LAMMPS parameters created by EMC v9.4.4, build Jul 31 2025 20:33:44

# Variables

variable	seed		index	-1
variable	ntotal		index	8040
variable	fshape		index	1
variable	output		index	emc_build
variable	field		index	trappe/2014/trappe-ua
variable	location1	index	/home/arz2/emc/field/
variable	nav		index	0.6022141179
variable	temperature	index	300
variable	radius		index	5
variable	nrelax		index	100
variable	weight_nonbond	index	0.0001
variable	weight_bond	index	0.0001
variable	weight_focus	index	1
variable	cutoff		index	14
variable	charge_cutoff	index	14
variable	kappa		index	4
variable	density1	index	0.57
variable	lprevious	index	0
variable	lphase		index	68.1783775471
variable	f_poly		index	20
variable	chem_repeat	index	*C/C=C\C*
variable	chem_cap	index	*C
variable	lg_repeat	index	4
variable	lg_cap		index	1
variable	norm_poly	index	100
variable	l_poly		index	402
variable	mg_repeat	index	54.0914
variable	mg_cap		index	15.0347
variable	m_poly		index	5439.2094
variable	n_poly		index	20
variable	mtotal		index	108784.188
variable	nphase1		index	8040
variable	mphase1		index	108784.188
variable	vphase1		index	316912.949994
variable	lbox		index	68.1783775471
variable	lphase1		index	68.1783775471
variable	lxx		index	68.1783775471
variable	lyy		index	68.1783775471
variable	lzz		index	68.1783775471
variable	lzy		index	0
variable	lzx		index	0
variable	lyx		index	0
variable	vtotal		index	316912.949994
variable	nl_poly		index	20

# Types

variable	type_c3h	index	1
variable	type_c4h2	index	2
variable	type_c4h3	index	3

variable	type_bond_c3h_c3h index	1
variable	type_bond_c3h_c4h2 index	2
variable	type_bond_c4h2_c4h2 index	3
variable	type_bond_c4h2_c4h3 index	4

variable	type_angle_c3h_c3h_c4h2 index	1
variable	type_angle_c3h_c4h2_c4h2 index	2
variable	type_angle_c3h_c4h2_c4h3 index	3

# Clusters

variable	n0_poly		index	1
variable	n1_poly		index	20
variable	nl_poly		index	20

# Flags

variable	flag_charged	index	0

# Masses

mass		1    13.01890  # c3h
mass		2    14.02680  # c4h2
mass		3    15.03470  # c4h3

# Potentials

pair_modify	mix arithmetic tail yes
special_bonds	lj 0 0 0 coul 0 0 0.5
Finding 1-2 1-3 1-4 neighbors ...
  special bond factors lj:    0        0        0       
  special bond factors coul:  0        0        0.5     
     2 = max # of 1-2 neighbors
     2 = max # of 1-3 neighbors
     4 = max # of 1-4 neighbors
     6 = max # of special neighbors
  special bonds CPU = 0.014 seconds

# Pair Coeffs

pair_coeff	1 1    0.09340    3.71000  # c3h,c3h
pair_coeff	2 2    0.09141    3.95000  # c4h2,c4h2
pair_coeff	3 3    0.19475    3.75000  # c4h3,c4h3

# Bond Coeffs

bond_coeff	1  529.99987    1.33000  # c3h,c3h
bond_coeff	2  260.00013    1.54000  # c3h,c4h2
bond_coeff	3  260.00013    1.54000  # c4h2,c4h2
bond_coeff	4  260.00013    1.54000  # c4h2,c4h3

# Angle Coeffs

angle_coeff	1   69.96954  119.70000  # c3h,c3h,c4h2
angle_coeff	2   62.10020  114.00000  # c3h,c4h2,c4h2
angle_coeff	3   62.10020  114.00000  # c3h,c4h2,c4h3

# Dihedral Coeffs

dihedral_coeff	1    1.91086    1.85422    0.43627   -2.24348    0.00000  # c3h,c3h,c4h2,c4h2
dihedral_coeff	2    1.91086    1.85422    0.43627   -2.24348    0.00000  # c3h,c3h,c4h2,c4h3
dihedral_coeff	3    2.00702   -4.01203    0.27102    6.29006    0.00000  # c3h,c4h2,c4h2,c3h
dihedral_coeff	4   25.63496    0.99360  -25.63496   -0.99360    0.00000  # c4h2,c3h,c3h,c4h2


# --- Thermo Output ---
thermo_style custom step time temp press enthalpy etotal ke pe ebond eangle edihed eimp evdwl ecoul elong etail vol lx ly lz density pxx pyy pzz
thermo_modify flush yes
thermo 1000

# --- Trajectory ---
dump dump_npt all custom 1000 npt_pppm.dump id type mol x y z ix iy iz vx vy vz

# --- Restart Checkpointing ---
restart 10000 npt_1.rst npt_2.rst

# --- Initial Velocities (optional) ---
# Velocities read from data file

# --- SHAKE Constraints ---
# SHAKE disabled

# --- NPT Thermostat + Barostat (Nose-Hoover) ---
# T_damp = 100.0 fs  (heat bath coupling)
# P_damp = 1000.0 fs  (pressure bath coupling, ~10x T_damp typical)
# Ramp: T=480.0->480.0K  P=50000.0->1.0atm
timestep 2.0
fix npt_fix all npt temp 480.0 480.0 100.0 iso 50000.0 1.0 1000.0

run 500000

CITE-CITE-CITE-CITE-CITE-CITE-CITE-CITE-CITE-CITE-CITE-CITE-CITE

Your simulation uses code contributions which should be cited:

- GPU package (short-range, long-range and three-body potentials): doi:10.1016/j.cpc.2010.12.021, doi:10.1016/j.cpc.2011.10.012, doi:10.1016/j.cpc.2013.08.002, doi:10.1016/j.commatsci.2014.10.068, doi:10.1016/j.cpc.2016.10.020, doi:10.3233/APC200086

@Article{Brown11,
 author = {W. M. Brown and P. Wang and S. J. Plimpton and A. N. Tharrington},
 title = {Implementing Molecular Dynamics on Hybrid High Performance Computers---Short Range Forces},
 journal = {Comput.\ Phys.\ Commun.},
 year =    2011,
 volume =  182,
 pages =   {898--911},
 doi =     {10.1016/j.cpc.2010.12.021}
}

@Article{Brown12,
 author = {W. M. Brown and A. Kohlmeyer and S. J. Plimpton and A. N. Tharrington},
 title = {Implementing Molecular Dynamics on Hybrid High Performance Computers - Particle-Particle Particle-Mesh},
 journal = {Comput.\ Phys.\ Commun.},
 year =    2012,
 volume =  183,
 doi =     {10.1016/j.cpc.2011.10.012},
 pages =   {449--459}
}

@Article{Brown13,
 author = {W. M. Brown and Y. Masako},
 title = {Implementing Molecular Dynamics on Hybrid High Performance Computers---Three-Body Potentials},
 journal = {Comput.\ Phys.\ Commun.},
 year =    2013,
 volume =  184,
 pages =   {2785--2793},
 doi =     {10.1016/j.cpc.2013.08.002},
}

@Article{Trung15,
 author = {T. D. Nguyen and S. J. Plimpton},
 title = {Accelerating Dissipative Particle Dynamics Simulations for Soft Matter Systems},
 journal = {Comput.\ Mater.\ Sci.},
 year =    2015,
 doi =     {10.1016/j.commatsci.2014.10.068},
 volume =  100,
 pages =   {173--180}
}

@Article{Trung17,
 author = {T. D. Nguyen},
 title = {{GPU}-Accelerated {T}ersoff Potentials for Massively Parallel
    Molecular Dynamics Simulations},
 journal = {Comput.\ Phys.\ Commun.},
 year =    2017,
 doi =     {10.1016/j.cpc.2016.10.020},
 volume =  212,
 pages =   {113--122}
}

@inproceedings{Nikolskiy19,
 author = {V. Nikolskiy and V. Stegailov},
 title = {{GPU} Acceleration of Four-Site Water Models in {LAMMPS}},
 booktitle = {Proceedings of the International Conference on Parallel
    Computing (ParCo 2019), Prague, Czech Republic},
 doi =     {10.3233/APC200086},
 year =    2019
}

CITE-CITE-CITE-CITE-CITE-CITE-CITE-CITE-CITE-CITE-CITE-CITE-CITE

Generated 3 of 3 mixed pair_coeff terms from arithmetic mixing rule
Neighbor list info ...
  update: every = 1 steps, delay = 0 steps, check = yes
  max neighbors/atom: 4000, page size: 100000
  master list distance cutoff = 16
  ghost atom cutoff = 16
  binsize = 8, bins = 7 7 7
  1 neighbor lists, perpetual/occasional/extra = 1 0 0
  (1) pair lj/cut/gpu, perpetual
      attributes: full, newton on
      pair build: full/bin
      stencil: full/bin/3d
      bin: standard
Per MPI rank memory allocation (min/avg/max) = 56.3 | 56.3 | 56.3 Mbytes
   Step          Time           Temp          Press         Enthalpy        TotEng         KinEng         PotEng         E_bond        E_angle        E_dihed        E_impro         E_vdwl         E_coul         E_long         E_tail         Volume           Lx             Ly             Lz          Density          Pxx            Pyy            Pzz      
         0   0              480.13342      49231.306      125849.13      26986.094      11505.308      15480.786      4484.6771      4353.2719      10477.466      0             -3834.6294      0              0             -422.12782      137694.54      51.638336      51.638336      51.638336      1.3118921      49526.306      48736.614      49430.997    
      1000   2000           477.70221      50269.296      127940.93      27274.27       11447.05       15827.219      4612.5299      4313.6055      10555.12       0             -3654.0363      0              0             -423.30533      137311.51      51.590411      51.590411      51.590411      1.3155516      49596.887      50232.409      50978.592    
      2000   4000           478.24903      48977.782      125336.47      26995.281      11460.153      15535.127      4590.887       4352.685       10480.414      0             -3888.858       0              0             -422.18251      137676.7       51.636106      51.636106      51.636106      1.3120621      48892.467      48433.511      49607.369    
      3000   6000           482.34621      48750.307      125067.44      27269.335      11558.333      15711.002      4581.1021      4473.2408      10448.722      0             -3792.0622      0              0             -422.55524      137555.26      51.620919      51.620919      51.620919      1.3132205      48548.151      49067.608      48635.163    
      4000   8000           478.14571      49297.171      126130.32      27204.076      11457.678      15746.399      4611.9535      4416.7093      10597.184      0             -3879.4479      0              0             -422.42252      137598.48      51.626325      51.626325      51.626325      1.312808       49317.121      49456.932      49117.459    
      5000   10000          481.38592      49932.746      127513.75      27361.666      11535.322      15826.345      4620.6303      4370.2218      10521.461      0             -3685.9684      0              0             -422.63168      137530.38      51.617806      51.617806      51.617806      1.313458       49595.083      49870.848      50332.309    
      6000   12000          485.9081       49426.675      126557.77      27481.66       11643.686      15837.975      4547.6856      4498.607       10566.181      0             -3774.499       0              0             -422.89157      137445.86      51.60723       51.60723       51.60723       1.3142657      49127.979      48556.658      50595.388    
      7000   14000          477.26187      50405.21       128275.42      27292.63       11436.498      15856.131      4552.2393      4475.8871      10544.136      0             -3716.1312      0              0             -423.12106      137371.31      51.597899      51.597899      51.597899      1.3149789      49782.419      50369.044      51064.168    
      8000   16000          478.07615      49792.167      127004.22      27132.013      11456.011      15676.002      4576.2236      4449.0144      10484.052      0             -3833.2882      0              0             -422.62282      137533.26      51.618167      51.618167      51.618167      1.3134305      49149.518      50069.343      50157.64     
      9000   18000          477.68999      48964.374      125331.99      27055.461      11446.757      15608.704      4618.5701      4342.5644      10502.481      0             -3854.9123      0              0             -422.3446       137623.86      51.629499      51.629499      51.629499      1.3125658      48396.016      49165.421      49331.683    
     10000   20000          484.38202      48704.699      125096.21      27152.43       11607.117      15545.314      4530.7233      4353.3364      10509.487      0             -3848.2329      0              0             -421.53204      137889.15      51.662652      51.662652      51.662652      1.3100406      47907.059      48998.407      49208.63     
     11000   22000          487.93298      48795.968      125190.72      27069.113      11692.207      15376.905      4553.4438      4294.0146      10371.626      0             -3842.1793      0              0             -421.55656      137881.13      51.66165       51.66165       51.66165       1.3101168      48716.134      48485.087      49186.684    
     12000   24000          485.63195      49308.833      126461.7       27356.264      11637.068      15719.195      4539.1581      4454.8018      10569.505      0             -3844.2697      0              0             -421.75848      137815.12      51.653405      51.653405      51.653405      1.3107443      49895.361      48511.972      49519.167    
     13000   26000          485.0094       48169.975      123801.28      26883.782      11622.15       15261.631      4459.2688      4314.0627      10521.532      0             -4033.2324      0              0             -421.31876      137958.95      51.671368      51.671368      51.671368      1.3093777      46990.072      48341.048      49178.804    
     14000   28000          477.56174      48267.945      124226.03      27155.831      11443.684      15712.147      4573.5748      4536.6158      10569.584      0             -3967.6277      0              0             -421.51154      137895.86      51.66349       51.66349       51.66349       1.3099768      48101.284      47437.706      49264.846    
     15000   30000          482.95802      49641.625      126752.11      26956.749      11572.994      15383.755      4471.8487      4413.4473      10479.074      0             -3980.6144      0              0             -421.66951      137844.2       51.657037      51.657037      51.657037      1.3104678      48983.548      49351.748      50589.58     
     16000   32000          479.31492      48652.092      124813.55      27160.348      11485.695      15674.653      4493.1285      4436.7457      10464.492      0             -3719.7136      0              0             -422.3297       137628.72      51.630107      51.630107      51.630107      1.3125195      48276.567      48296.662      49383.048    
     17000   34000          478.05754      48196.045      123814.05      26809.945      11455.565      15354.381      4532.7152      4391.7027      10385.525      0             -3955.5624      0              0             -421.17043      138007.54      51.677434      51.677434      51.677434      1.3089167      48441.353      48185.597      47961.186    
     18000   36000          482.27774      48398.979      124376.93      27027.956      11556.692      15471.264      4503.3761      4331.9295      10514.972      0             -3879.0142      0              0             -421.44547      137917.47      51.666189      51.666189      51.666189      1.3097715      48450.13       48325.341      48421.465    
     19000   38000          475.45857      48507.005      124545.15      27033.151      11393.286      15639.865      4445.2794      4509.9837      10613.932      0             -3929.3298      0              0             -421.67996      137840.78      51.656611      51.656611      51.656611      1.3105003      49404.088      48017.346      48099.581    
     20000   40000          485.32485      47833.669      123286.61      26937.77       11629.709      15308.061      4476.3608      4400.7825      10480.436      0             -4049.5185      0              0             -420.84654      138113.75      51.690687      51.690687      51.690687      1.3079102      47371.351      47914.849      48214.808    
     21000   42000          482.70987      48371.753      124459.69      27094.692      11567.047      15527.645      4504.8014      4434.6338      10546.131      0             -3957.9213      0              0             -421.13908      138017.81      51.678716      51.678716      51.678716      1.3088193      47894.021      48039.269      49181.968    
     22000   44000          483.00044      47891.928      123272.63      26871.437      11574.01       15297.427      4470.3026      4469.7619      10557.412      0             -4200.0493      0              0             -421.13032      138020.68      51.679074      51.679074      51.679074      1.3087921      47677.325      47638.087      48360.373    
     23000   46000          480.32227      47458.481      122333.39      26738.746      11509.834      15228.913      4477.3736      4329.9021      10504.993      0             -4083.3562      0              0             -420.83985      138115.95      51.690962      51.690962      51.690962      1.3078893      46942.2        48345.787      47087.457    
     24000   48000          473.87885      47364.887      122192.87      26804.936      11355.432      15449.505      4554.592       4455.8914      10535.427      0             -4096.4059      0              0             -420.92007      138089.62      51.687677      51.687677      51.687677      1.3081387      46178.22       48329.192      47587.25     
     25000   50000          472.68155      46859.176      121191.87      26671.641      11326.741      15344.9        4489.2783      4379.7494      10532.594      0             -4056.7223      0              0             -420.24876      138310.21      51.715185      51.715185      51.715185      1.3060524      45886.443      47985.589      46705.495    
     26000   52000          480.98994      47146.231      121781.82      26727.74       11525.833      15201.907      4494.5995      4347.4734      10542.173      0             -4182.3393      0              0             -420.44847      138244.52      51.706995      51.706995      51.706995      1.306673       47027.537      46986.2        47424.957    
     27000   54000          484.66467      47181.037      122054.65      26942.969      11613.89       15329.079      4481.6332      4383.1998      10463.052      0             -3998.8059      0              0             -420.50405      138226.24      51.704717      51.704717      51.704717      1.3068457      46773.882      47568.955      47200.273    
     28000   56000          478.94965      47070.652      121496.64      26462.193      11476.942      14985.251      4421.6475      4404.3628      10488.204      0             -4328.9635      0              0             -419.8612       138437.88      51.731092      51.731092      51.731092      1.3048479      47069.048      47814.959      46327.951    
     29000   58000          485.83608      46413.708      120274.89      26507.911      11641.96       14865.952      4330.4436      4304.8909      10484.689      0             -4254.0717      0              0             -419.59751      138524.88      51.741927      51.741927      51.741927      1.3040284      46279.887      46034.212      46927.025    
     30000   60000          479.26802      47078.96       121616.2       26516.568      11484.571      15031.997      4444.0873      4288.461       10519.221      0             -4219.7719      0              0             -419.64747      138508.39      51.739873      51.739873      51.739873      1.3041837      46636.371      47378.972      47221.536    
     31000   62000          482.88683      46691.96       121035.89      26631.353      11571.288      15060.065      4439.8744      4342.8154      10528.102      0             -4250.7266      0              0             -419.26231      138635.63      51.755712      51.755712      51.755712      1.3029867      46184.3        47484.698      46406.884    
     32000   64000          482.04376      47550.377      122603.3       26641.841      11551.085      15090.756      4577.8674      4357.505       10426.114      0             -4270.7305      0              0             -420.04295      138377.98      51.72363       51.72363       51.72363       1.3054127      48475.906      46549.764      47625.462    
     33000   66000          476.92872      47701.68       122939.73      26703.109      11428.515      15274.594      4578.1926      4398.0598      10472.913      0             -4174.5721      0              0             -420.17469      138334.59      51.718224      51.718224      51.718224      1.3058222      48799.019      47426.261      46879.761    
     34000   68000          477.28155      46544.142      120779.56      26801.643      11436.97       15364.673      4536.7552      4483.6335      10500.477      0             -4156.192       0              0             -419.83226      138447.42      51.732281      51.732281      51.732281      1.304758       47225.314      46326.663      46080.451    
     35000   70000          481.6462       46022.265      119649.76      26565.664      11541.559      15024.106      4451.6713      4380.7415      10514.48       0             -4322.7867      0              0             -419.11102      138685.67      51.761939      51.761939      51.761939      1.3025165      47030.198      46336.941      44699.657    
     36000   72000          477.32455      45900.249      119407.85      26392.101      11438          14954.101      4524.4279      4383.6607      10540.524      0             -4494.5114      0              0             -418.307        138952.24      51.795081      51.795081      51.795081      1.3000178      45921.384      45401.553      46377.81     
     37000   74000          476.06658      45104.91       117746.07      26332.413      11407.856      14924.557      4410.4057      4407.4624      10494.338      0             -4387.6489      0              0             -418.26286      138966.9       51.796903      51.796903      51.796903      1.2998806      44946.407      45033.232      45335.09     
     38000   76000          476.03567      46385.718      120229.12      26496.699      11407.115      15089.584      4432.9771      4401.491       10540.678      0             -4285.5618      0              0             -419.49909      138557.38      51.745973      51.745973      51.745973      1.3037225      45601.461      46423.616      47132.077    
     39000   78000          483.00728      45067.386      117858.88      26490.62       11574.174      14916.446      4507.5716      4384.3719      10452.933      0             -4428.4309      0              0             -418.12255      139013.54      51.802696      51.802696      51.802696      1.2994445      45276.595      44732.989      45192.575    
     40000   80000          478.56354      45940.796      119444.88      26313.586      11467.69       14845.896      4519.9124      4349.1947      10465.056      0             -4488.2673      0              0             -418.15706      139002.06      51.801271      51.801271      51.801271      1.2995518      45384.8        46979.998      45457.59     
     41000   82000          482.60967      46976.486      121722.32      26616.146      11564.646      15051.5        4633.334       4310.1107      10437.91       0             -4329.8547      0              0             -418.70525      138820.08      51.778654      51.778654      51.778654      1.3012554      47694.745      46639.034      46595.678    
     42000   84000          486.46563      45614.911      119103.75      26744.256      11657.046      15087.21       4477.4998      4475.3941      10536.63       0             -4402.3139      0              0             -418.66038      138834.95      51.780504      51.780504      51.780504      1.301116       45912.969      45179.239      45752.525    
     43000   86000          479.65414      44907.615      117438.39      26318.471      11493.824      14824.648      4499.6156      4377.9243      10473.103      0             -4525.9954      0              0             -417.77579      139128.92      51.817025      51.817025      51.817025      1.2983668      44586.05       45482.217      44654.578    
     44000   88000          478.27236      46076.156      119788.44      26408.498      11460.712      14947.785      4476.7221      4347.8177      10477.093      0             -4353.8476      0              0             -418.2724       138963.73      51.796509      51.796509      51.796509      1.2999102      45473.801      46811.827      45942.839    
     45000   90000          478.89314      45995.231      119775.79      26450.138      11475.588      14974.55       4618.9977      4338.122       10500.627      0             -4483.197       0              0             -417.7807       139127.29      51.816822      51.816822      51.816822      1.2983821      46312.706      45785.504      45887.483    
     46000   92000          481.27636      45893.694      119517.94      26446.129      11532.696      14913.432      4562.3544      4366.3197      10502.575      0             -4517.8172      0              0             -417.99532      139055.85      51.807952      51.807952      51.807952      1.2990491      45783.643      45945.361      45952.077    
     47000   94000          492.26633      45535.724      119124.19      26754.688      11796.046      14958.642      4470.9066      4499.7469      10534.112      0             -4546.1243      0              0             -417.8883       139091.46      51.812374      51.812374      51.812374      1.2987165      45162.339      45612.737      45832.095    
     48000   96000          476.93494      46362.047      120302.74      26424.168      11428.664      14995.504      4479.9282      4322.3942      10540.398      0             -4347.2164      0              0             -418.63229      138844.27      51.781662      51.781662      51.781662      1.3010287      46432.04       46572.878      46081.225    
     49000   98000          489.2025       43975.854      115844.53      26431.709      11722.628      14709.08       4439.2373      4395.055       10565.728      0             -4690.9397      0              0             -416.91838      139415.04      51.852522      51.852522      51.852522      1.2957022      43916.464      44260.649      43750.448    
     50000   100000         481.42789      44938.232      117593.5       26230.433      11536.327      14694.105      4509.5662      4235.8285      10441.84       0             -4493.1291      0              0             -416.94801      139405.14      51.851293      51.851293      51.851293      1.2957943      44751.545      45696.453      44366.698    
     51000   102000         485.9378       44550.083      117050.75      26531.082      11644.397      14886.684      4471.1857      4379.4088      10542.408      0             -4506.3178      0              0             -417.19793      139321.63      51.840937      51.840937      51.840937      1.296571       43622.184      45182.964      44845.103    
     52000   104000         479.46189      45786.508      119363.94      26325.934      11489.217      14836.718      4544.3304      4336.2898      10466.773      0             -4510.6757      0              0             -417.17059      139330.76      51.84207       51.84207       51.84207       1.296486       44990.497      46221.93       46147.097    
     53000   106000         482.24539      45457.816      118764.22      26466.956      11555.917      14911.039      4500.8512      4421.4582      10528.351      0             -4539.6211      0              0             -417.49985      139220.88      51.828438      51.828438      51.828438      1.2975093      44615.93       45925.577      45831.942    
     54000   108000         479.44306      44512.057      116711.39      26015.529      11488.766      14526.763      4436.9244      4253.0239      10510.959      0             -4674.1439      0              0             -416.03201      139712.07      51.88932       51.88932       51.88932       1.2929475      44178.82       45680.052      43677.298    
     55000   110000         481.06738      43717.823      115163.77      26226.533      11527.689      14698.844      4388.9227      4321.42        10558.49       0             -4569.9889      0              0             -416.68848      139491.97      51.862056      51.862056      51.862056      1.2949877      43096.181      44095.597      43961.692    
     56000   112000         483.01246      44013.687      115638.78      26064.674      11574.298      14490.376      4415.8676      4235.3937      10518.953      0             -4679.8383      0              0             -416.52573      139546.47      51.86881       51.86881       51.86881       1.2944819      43800.486      44541.116      43699.46     
     57000   114000         474.29891      43838.269      115048.42      25820.028      11365.498      14454.531      4319.8194      4268.9602      10521.129      0             -4655.3781      0              0             -416.47305      139564.12      51.870997      51.870997      51.870997      1.2943182      43699.911      43568.172      44246.724    
     58000   116000         470.8429       45128.147      117834.98      25866.388      11282.682      14583.706      4495.6066      4296.5386      10482.286      0             -4690.7252      0              0             -415.95325      139738.53      51.892595      51.892595      51.892595      1.2927027      44823.899      44800.283      45760.258    
     59000   118000         481.29097      44176.324      116247.6       26372.102      11533.046      14839.056      4402.2727      4453.6278      10539.916      0             -4556.7606      0              0             -416.66289      139500.53      51.863118      51.863118      51.863118      1.2949082      44531.539      43688.447      44308.986    
     60000   120000         473.08321      45533.746      118867.95      26285.762      11336.366      14949.396      4612.9717      4355.1787      10552.177      0             -4570.9314      0              0             -416.91018      139417.79      51.852862      51.852862      51.852862      1.2956767      46629.792      45462.664      44508.782    
     61000   122000         487.52273      44742.785      117493.46      26379.248      11682.376      14696.872      4415.6487      4238.1087      10531.065      0             -4487.9505      0              0             -416.26841      139632.73      51.879495      51.879495      51.879495      1.2936822      45059.484      44793.144      44375.727    
     62000   124000         481.07442      43993.356      115837.15      26208.724      11527.858      14680.866      4406.7128      4219.6318      10645.452      0             -4590.9309      0              0             -416.081        139695.62      51.887283      51.887283      51.887283      1.2930998      43473.898      45058.738      43447.43     
     63000   126000         481.50342      43145.985      114004.37      25774.674      11538.137      14236.537      4459.7716      4201.4838      10457.649      0             -4882.3676      0              0             -414.53595      140216.29      51.951668      51.951668      51.951668      1.288298       43334.848      43347.055      42756.053    
     64000   128000         479.75342      44070.807      115915.96      26029.722      11496.203      14533.52       4481.7051      4328.2633      10501.677      0             -4778.1261      0              0             -415.61801      139851.24      51.906543      51.906543      51.906543      1.2916609      44710.342      43497.863      44004.217    
     65000   130000         475.55872      44304.864      116235.45      25858.387      11395.686      14462.701      4449.8799      4331.6767      10461.621      0             -4780.4772      0              0             -415.55619      139872.05      51.909117      51.909117      51.909117      1.2914688      43837.55       45927.882      43149.159    
     66000   132000         477.94399      42827.226      113160.28      25641.603      11452.844      14188.759      4410.9793      4271.8685      10403.084      0             -4897.1724      0              0             -414.81626      140121.54      51.939963      51.939963      51.939963      1.2891692      44054.804      42037.107      42389.766    
     67000   134000         472.44137      42923.277      113276.99      25628.233      11320.986      14307.248      4391.1153      4265.9353      10485.123      0             -4834.9263      0              0             -415.12958      140015.79      51.926893      51.926893      51.926893      1.2901429      42569.881      43001.519      43198.431    
     68000   136000         484.79968      43233.079      114336.49      25992.399      11617.125      14375.275      4529.6235      4350.1091      10504.451      0             -5008.9094      0              0             -414.83485      140115.26      51.939187      51.939187      51.939187      1.289227       43675.726      43358.122      42665.39     
     69000   138000         482.3825       42801.992      113372.36      25903.073      11559.203      14343.87       4484.5207      4284.383       10535.285      0             -4960.3188      0              0             -414.80594      140125.03      51.940394      51.940394      51.940394      1.2891371      42616.071      43460.184      42329.721    
     70000   140000         481.93133      43162.954      114060.96      25963.544      11548.391      14415.152      4401.3108      4390.2031      10469.087      0             -4845.449       0              0             -415.32167      139951.03      51.918886      51.918886      51.918886      1.2907399      42813.768      44061.632      42613.462    
     71000   142000         481.52544      43857.44       115468.74      25947.099      11538.665      14408.434      4547.2997      4200.1399      10478.707      0             -4817.7124      0              0             -415.29032      139961.59      51.920192      51.920192      51.920192      1.2906425      43122.239      43858.053      44592.028    
     72000   144000         484.62657      43044.117      113705.93      25780.269      11612.977      14167.292      4364.2594      4145.1883      10525.204      0             -4867.359       0              0             -414.98721      140063.82      51.93283       51.93283       51.93283       1.2897005      42758.278      42265.927      44108.147    
     73000   146000         478.95633      43403.57       114563.4       25816.347      11477.102      14339.245      4445.6834      4325.1147      10481.824      0             -4913.3781      0              0             -414.57976      140201.48      51.949838      51.949838      51.949838      1.2884342      43399.33       43420.506      43390.874    
     74000   148000         476.83356      44060.236      115758.42      25837.951      11426.235      14411.716      4518.6813      4288.0856      10503.863      0             -4898.9132      0              0             -415.36014      139938.06      51.917283      51.917283      51.917283      1.2908595      44040.856      44653.931      43485.92     
     75000   150000         488.81751      42078.334      112048.07      25889.12       11713.403      14175.717      4398.2606      4225.6389      10493.228      0             -4941.4105      0              0             -413.99464      140399.63      51.974301      51.974301      51.974301      1.2866158      42690.552      41739.815      41804.635    
     76000   152000         471.96256      41777.674      110969.41      25416.888      11309.512      14107.375      4326.2681      4290.0845      10508.177      0             -5017.1545      0              0             -413.95014      140414.72      51.976163      51.976163      51.976163      1.2864775      40511.351      42734.593      42087.078    
     77000   154000         492.20049      42951.094      113829.08      26019.416      11794.468      14224.948      4320.019       4222.6841      10464.014      0             -4781.7692      0              0             -414.63743      140181.98      51.947429      51.947429      51.947429      1.2886134      42573.705      42075.414      44204.162    
     78000   156000         484.18329      43125.588      114221.66      25924.501      11602.354      14322.147      4485.6965      4213.4486      10479.95       0             -4856.9484      0              0             -414.0234       140389.88      51.973097      51.973097      51.973097      1.2867052      43386.479      43665.139      42325.146    
     79000   158000         475.31787      42170.34       111935.23      25459.858      11389.915      14069.943      4496.4277      4283.9902      10467.659      0             -5178.1343      0              0             -413.38168      140607.81      51.999977      51.999977      51.999977      1.2847108      42561.941      41397.107      42551.973    
     80000   160000         476.54961      42536.056      112853.31      25754.735      11419.43       14335.305      4446.7376      4250.9657      10529.4        0             -4891.7991      0              0             -413.98324      140403.5       51.974778      51.974778      51.974778      1.2865803      41821.159      43030.067      42756.943    
     81000   162000         478.44047      41877.522      111542.61      25693.791      11464.741      14229.051      4466.8034      4294.5723      10484.467      0             -5016.7923      0              0             -413.50733      140565.09      51.99471       51.99471       51.99471       1.2851013      41221.726      42026.846      42383.993    
     82000   164000         483.9408       43120.531      114278.47      25976.23       11596.544      14379.686      4526.2635      4325.0052      10491.369      0             -4962.951       0              0             -413.95102      140414.43      51.976127      51.976127      51.976127      1.2864802      42376.261      42476.474      44508.859    
     83000   166000         479.06107      41673.526      110934.23      25525.559      11479.612      14045.947      4309.0311      4211.719       10540.054      0             -5014.8575      0              0             -413.61362      140528.97      51.990255      51.990255      51.990255      1.2854316      40729.597      42981.145      41309.836    
     84000   168000         479.02966      41436.708      110696.25      25630.559      11478.859      14151.699      4322.1853      4395.2227      10479.227      0             -5044.9358      0              0             -412.92141      140764.54      52.019291      52.019291      52.019291      1.2832804      41354.03       42021.601      40934.494    
     85000   170000         476.63785      41622.138      110993.53      25595.733      11421.545      14174.188      4392.6117      4290.8105      10567.581      0             -5076.8147      0              0             -413.1562       140684.55      52.009435      52.009435      52.009435      1.2840101      41507.467      41305.48       42053.466    
     86000   172000         478.27829      41290.272      110231.19      25425.466      11460.855      13964.612      4403.1388      4236.718       10430.113      0             -5105.3582      0              0             -412.72346      140832.06      52.027606      52.027606      52.027606      1.2826652      40888.923      41367.744      41614.149    
     87000   174000         478.80067      41332.248      110303.19      25214.194      11473.372      13740.822      4370.0538      4243.6119      10420.308      0             -5293.1518      0              0             -411.76765      141158.96      52.067831      52.067831      52.067831      1.2796947      41811.949      41625.529      40559.266    
     88000   176000         478.55308      41552.445      110746.36      25478.506      11467.439      14011.067      4374.2072      4256.9512      10500.994      0             -5121.0859      0              0             -413.093        140706.07      52.012087      52.012087      52.012087      1.2838136      42184.047      41147.385      41325.904    
     89000   178000         482.53818      40494.278      108892.78      25662.119      11562.933      14099.186      4478.7671      4325.3851      10490.406      0             -5195.3724      0              0             -412.42684      140933.35      52.040076      52.040076      52.040076      1.2817433      39443.87       42138.344      39900.62     
     90000   180000         478.39063      41827.638      111440.28      25535.919      11463.547      14072.373      4448.2699      4258.3677      10479.84       0             -5114.1052      0              0             -412.74773      140823.78      52.026586      52.026586      52.026586      1.2827406      41557.462      41825.708      42099.743    
     91000   182000         481.44768      40047.953      108104.58      25407.283      11536.802      13870.482      4494.9901      4292.5321      10474.035      0             -5391.0756      0              0             -410.51174      141590.82      52.120875      52.120875      52.120875      1.2757916      40560.777      39762.596      39820.488    
     92000   184000         476.62705      40834.408      109408.97      25283.348      11421.286      13862.061      4375.9179      4238.5985      10474.381      0             -5226.8357      0              0             -411.46655      141262.26      52.080529      52.080529      52.080529      1.2787589      40437.37       41007.292      41058.562    
     93000   186000         474.83133      41335.158      110425.15      25497          11378.256      14118.744      4329.8685      4395.3451      10497.75       0             -5104.2191      0              0             -412.57654      140882.21      52.033781      52.033781      52.033781      1.2822086      41558.479      41053.395      41393.6      
     94000   188000         480.01641      40534.589      108937.94      25572.218      11502.505      14069.714      4474.4017      4302.3434      10465.157      0             -5172.188       0              0             -412.16852      141021.67      52.050945      52.050945      52.050945      1.2809405      39480.509      41490.209      40633.05     
     95000   190000         480.1936       40164.499      108155.77      25259.068      11506.751      13752.318      4426.5871      4174.3564      10451.278      0             -5299.9042      0              0             -410.71604      141520.39      52.112232      52.112232      52.112232      1.2764265      40020.134      40187.273      40286.089    
     96000   192000         490.30942      41404.917      110906.44      25740.985      11749.153      13991.832      4400.3601      4329.5312      10529.404      0             -5267.4639      0              0             -412.12124      141037.85      52.052936      52.052936      52.052936      1.2807936      41339.195      40405.543      42470.013    
     97000   194000         475.66415      41041.549      109963.74      25515.686      11398.212      14117.474      4424.3956      4344.8002      10517.407      0             -5169.1292      0              0             -411.97481      141087.98      52.059102      52.059102      52.059102      1.2803385      41343.181      39977.536      41803.93     
     98000   196000         478.39562      41873.981      111438.16      25463.324      11463.666      13999.658      4399.1534      4244.0793      10447.861      0             -5091.4361      0              0             -412.86634      140783.32      52.021604      52.021604      52.021604      1.2831092      42017.076      41840.774      41764.094    
     99000   198000         480.12576      40702.514      109026.73      25128.542      11505.125      13623.417      4383.0165      4239.1479      10352.909      0             -5351.6558      0              0             -411.24937      141336.86      52.089695      52.089695      52.089695      1.278084       40467.214      40492.495      41147.832    
    100000   200000         487.88213      39771.814      107420.47      25374.277      11690.989      13683.289      4380.6146      4322.0768      10392.918      0             -5412.3208      0              0             -410.91649      141451.36      52.103757      52.103757      52.103757      1.2770495      39909.43       39352.365      40053.648    
    101000   202000         474.50114      39866.838      107390.47      25135.015      11370.344      13764.671      4448.9604      4288.1753      10410.23       0             -5382.6946      0              0             -410.85033      141474.14      52.106554      52.106554      52.106554      1.2768438      39836.638      39315.178      40448.697    
    102000   204000         483.47789      40321.205      108410.6       25257.766      11585.451      13672.314      4410.3798      4206.2857      10467.952      0             -5412.303       0              0             -411.04847      141405.94      52.09818       52.09818       52.09818       1.2774596      41002.904      40119.373      39841.339    
    103000   206000         474.97355      39795.11       107176.37      24936.129      11381.664      13554.465      4350.3098      4164.6256      10388.615      0             -5349.085       0              0             -410.18701      141702.92      52.134626      52.134626      52.134626      1.2747824      38716.664      41163.386      39505.28     
    104000   208000         480.26932      39762.314      107057.49      24883.698      11508.565      13375.133      4273.2705      4167.0625      10412.503      0             -5477.7036      0              0             -410.1804       141705.2       52.134906      52.134906      52.134906      1.2747618      40104.081      40058.31       39124.552    
    105000   210000         480.6763       40406.448      108660.43      25292.234      11518.317      13773.916      4406.7165      4125.0916      10449.454      0             -5207.3459      0              0             -410.85338      141473.08      52.106425      52.106425      52.106425      1.2768533      41121.717      39724.498      40373.128    
    106000   212000         483.03403      41012.932      110003.25      25335.074      11574.815      13760.259      4468.8409      4246.7766      10432.007      0             -5387.3656      0              0             -410.61726      141554.44      52.116411      52.116411      52.116411      1.2761195      41451.259      40458.28       41129.256    
    107000   214000         480.3058       40208.721      108462.33      25328.216      11509.439      13818.776      4468.3351      4265.1413      10466.916      0             -5381.6163      0              0             -409.99404      141769.61      52.142804      52.142804      52.142804      1.2741827      39764.352      40274.965      40586.846    
    108000   216000         478.63863      39155.439      106071.21      25037.163      11469.489      13567.673      4388.938       4280.4294      10528.58       0             -5630.2742      0              0             -409.60114      141905.6       52.159471      52.159471      52.159471      1.2729616      39081.419      39509.336      38875.563    
    109000   218000         484.27348      39654.44       107189.63      25222.491      11604.516      13617.976      4508.5338      4136.1749      10333.389      0             -5360.1223      0              0             -410.09891      141733.36      52.138359      52.138359      52.138359      1.2745086      40060.776      40025.648      38876.897    
    110000   220000         484.94013      39495.74       106933.2       24966.016      11620.49       13345.525      4346.2244      4211.4872      10429.476      0             -5641.6622      0              0             -408.45746      142302.93      52.208107      52.208107      52.208107      1.2694073      38929.871      39485.303      40072.048    
    111000   222000         481.43614      38403.011      104470.27      24994.706      11536.525      13458.181      4209.783       4307.9297      10359.29       0             -5418.8209      0              0             -409.60779      141903.29      52.159188      52.159188      52.159188      1.2729823      38104.758      37963.489      39140.786    
    112000   224000         486.03147      38528.902      105170.01      25349.765      11646.642      13703.123      4229.108       4348.5614      10494.549      0             -5369.0957      0              0             -409.176        142053.04      52.177529      52.177529      52.177529      1.2716404      38686.648      38842.603      38057.455    
    113000   226000         480.83978      38507.511      104940.23      25134.018      11522.235      13611.783      4220.4106      4361.7124      10486.813      0             -5457.1523      0              0             -409.02073      142106.96      52.184131      52.184131      52.184131      1.2711578      38062.545      38894.884      38565.103    
    114000   228000         475.36854      38130.602      103867.06      24692.58       11391.129      13301.451      4315.4129      4186.438       10435.471      0             -5635.8711      0              0             -408.24891      142375.63      52.216996      52.216996      52.216996      1.2687591      37343.233      38297.356      38751.217    
    115000   230000         473.03125      38315.774      104350.96      24892.322      11335.121      13557.2        4371.9542      4270.9128      10473.337      0             -5559.0038      0              0             -408.76438      142196.09      52.195038      52.195038      52.195038      1.2703611      37890.391      38498.238      38558.693    
    116000   232000         480.85431      37569.81       102905.8       24809.636      11522.583      13287.053      4373.2429      4212.3346      10368.257      0             -5666.7814      0              0             -407.79873      142532.8       52.236203      52.236203      52.236203      1.2673601      37440.626      37658.599      37610.204    
    117000   234000         478.78839      38870.265      105608.02      24946.819      11473.078      13473.741      4310.1571      4289.2345      10390.217      0             -5515.8682      0              0             -408.49749      142288.99      52.206402      52.206402      52.206402      1.2695317      39091.831      38797.248      38721.716    
    118000   236000         481.1835       37739.512      103323.87      24937.548      11530.471      13407.077      4366.3431      4152.8705      10455.692      0             -5567.8296      0              0             -408.1244       142419.06      52.222306      52.222306      52.222306      1.2683722      37353.058      38292.957      37572.52     
    119000   238000         482.44914      37549.079      102798.92      24778.166      11560.799      13217.367      4241.2408      4189.5631      10408.869      0             -5622.3059      0              0             -407.96766      142473.78      52.228992      52.228992      52.228992      1.2678851      36499.341      37960.087      38187.809    
    120000   240000         486.06142      37537.936      102867.61      24901.798      11647.359      13254.439      4309.647       4087.3481      10454.144      0             -5596.7004      0              0             -408.134        142415.71      52.221896      52.221896      52.221896      1.268402       37453.264      37119.06       38041.484    
    121000   242000         479.37085      38372.826      104675.09      24909.718      11487.035      13422.682      4316.1809      4238.19        10403.172      0             -5534.8608      0              0             -407.79881      142532.77      52.2362        52.2362        52.2362        1.2673603      38702.589      37536.222      38879.668    
    122000   244000         482.04757      37616.316      103065.24      24661.618      11551.177      13110.441      4297.6154      4111.2377      10342.804      0             -5641.2158      0              0             -406.70236      142917.03      52.2831        52.2831        52.2831        1.2639528      37171.272      37097.002      38580.674    
    123000   246000         476.74129      38299.341      104245.7       24665.206      11424.024      13241.183      4349.8472      4164.8004      10369.405      0             -5642.8704      0              0             -407.96344      142475.25      52.229173      52.229173      52.229173      1.2678719      38744.334      37571.407      38582.283    
    124000   248000         476.45392      37429.274      102532.47      24646.325      11417.138      13229.187      4244.944       4252.5828      10427.236      0             -5695.5759      0              0             -407.36879      142683.23      52.254574      52.254574      52.254574      1.2660239      37026.602      37429.319      37831.902    
    125000   250000         481.5819       37893.805      103778.53      25081.427      11540.018      13541.409      4273.6646      4211.3884      10492.056      0             -5435.7003      0              0             -408.17466      142401.53      52.220162      52.220162      52.220162      1.2685284      37816.914      38008.045      37856.457    
    126000   252000         477.63719      37743.378      103311.68      24778.776      11445.492      13333.284      4289.0657      4256.7899      10411.441      0             -5624.0131      0              0             -407.40438      142670.76      52.253052      52.253052      52.253052      1.2661345      37762.874      38185.041      37282.219    
    127000   254000         476.32793      36595.713      101152.53      24936.516      11414.119      13522.398      4357.5742      4266.6876      10532.005      0             -5633.8693      0              0             -407.02453      142803.91      52.269302      52.269302      52.269302      1.264954       36513.231      36437.957      36835.95     
    128000   256000         469.99226      36343.619      100159.64      24293.224      11262.299      13030.925      4266.6615      4226.4639      10402.967      0             -5865.1667      0              0             -406.08335      143134.89      52.309652      52.309652      52.309652      1.262029       36954.378      35759.311      36317.168    
    129000   258000         477.5745       36732.414      101213         24614.39       11443.99       13170.4        4277.4937      4274.0392      10454.351      0             -5835.4836      0              0             -406.50431      142986.66      52.291589      52.291589      52.291589      1.2633373      37073.511      35988.44       37135.291    
    130000   260000         481.687        37066.462      102057.9       24763.238      11542.536      13220.702      4289.6202      4262.0033      10520.162      0             -5851.0837      0              0             -406.50719      142985.65      52.291466      52.291466      52.291466      1.2633462      36652.966      37204.814      37341.607    
    131000   262000         476.95018      37227.462      102353.39      24893.616      11429.029      13464.587      4366.8956      4270.6467      10535.165      0             -5708.1211      0              0             -407.40257      142671.4       52.25313       52.25313       52.25313       1.2661289      36639.688      36923.731      38118.966    
    132000   264000         481.42022      37190.245      102324.24      24787.756      11536.144      13251.613      4202.9084      4307.9739      10521.693      0             -5780.9619      0              0             -406.59266      142955.59      52.287802      52.287802      52.287802      1.2636118      37019.101      37305.583      37246.052    
    133000   266000         479.95116      36542.594      100743.39      24467.031      11500.941      12966.09       4259.5511      4145.0843      10413.349      0             -5851.8942      0              0             -406.11219      143124.72      52.308414      52.308414      52.308414      1.2621186      36108.004      36320.033      37199.746    
    134000   268000         476.13984      36354.449      100595.5       24711.923      11409.611      13302.312      4326.5474      4393.6448      10449.738      0             -5867.6183      0              0             -406.11248      143124.62      52.308402      52.308402      52.308402      1.2621195      35968.028      37100.87       35994.449    
    135000   270000         488.85602      36754.685      101362.09      24696.234      11714.326      12981.908      4269.7439      4205.7748      10370.136      0             -5863.747       0              0             -406.39402      143025.47      52.29632       52.29632       52.29632       1.2629945      36403.249      36331.494      37529.312    
    136000   272000         478.32239      36295.345      100248.75      24449.385      11461.911      12987.473      4162.5134      4113.6619      10512.024      0             -5800.7257      0              0             -405.90268      143198.6       52.317413      52.317413      52.317413      1.2614675      35700.077      35693.619      37492.339    
    137000   274000         482.9579       36347.026      100744.16      24792.288      11572.991      13219.297      4404.4135      4278.0559      10404.465      0             -5867.6375      0              0             -405.66447      143282.69      52.327651      52.327651      52.327651      1.2607272      36831.32       34962.891      37246.866    
    138000   276000         474.03587      36435.49       100466.6       24424.825      11359.194      13065.631      4145.7645      4249.4588      10395.509      0             -5725.1012      0              0             -406.17105      143103.98      52.305887      52.305887      52.305887      1.2623016      36352.206      35898.026      37056.239    
    139000   278000         478.46074      36131.586      99923.543      24321.283      11465.227      12856.056      4242.6242      4124.8382      10415.084      0             -5926.4903      0              0             -405.12479      143473.56      52.350876      52.350876      52.350876      1.25905        35960.733      36093.439      36340.587    
    140000   280000         479.41533      35918.318      99605.383      24460.528      11488.101      12972.427      4234.5505      4242.6583      10430.265      0             -5935.0466      0              0             -405.18496      143452.25      52.348285      52.348285      52.348285      1.259237       34755.716      36243.633      36755.605    
    141000   282000         479.2453       37033.783      101808.9       24282.001      11484.027      12797.974      4190.7013      4232.317       10359.086      0             -5984.1297      0              0             -404.93212      143541.82      52.359178      52.359178      52.359178      1.2584512      36353.495      36661.589      38086.266    
    142000   284000         473.05414      35596.637      98581.32       23935.364      11335.669      12599.695      4204.2789      4198.8722      10343.597      0             -6147.0535      0              0             -404.23997      143787.6       52.389044      52.389044      52.389044      1.2563001      35337.316      36144.162      35308.433    
    143000   286000         481.32564      36681.204      101224.12      24543.112      11533.877      13009.235      4291.1731      4256.3819      10388.838      0             -5927.1582      0              0             -405.50136      143340.32      52.334666      52.334666      52.334666      1.2602203      35630.918      37451.369      36961.324    
    144000   288000         482.31896      35525.772      98607.772      24181.775      11557.68       12624.095      4175.8422      4199.5178      10356.623      0             -6107.8878      0              0             -404.62754      143649.87      52.372312      52.372312      52.372312      1.2575046      34846.328      35685.807      36045.181    
    145000   290000         480.45382      35303.823      98440.067      24412.733      11512.986      12899.747      4257.4159      4243.9443      10477.721      0             -6079.3347      0              0             -404.26505      143778.68      52.387961      52.387961      52.387961      1.2563781      35034.941      35247.757      35628.771    
    146000   292000         478.82998      34969.739      97724.246      24300.789      11474.074      12826.715      4293.4797      4247.4316      10390.906      0             -6105.1019      0              0             -403.7329       143968.19      52.410968      52.410968      52.410968      1.2547242      35180.832      35156.719      34571.667    
    147000   294000         481.54105      35185.292      98081.245      24273.624      11539.039      12734.585      4199.8711      4251.3566      10382.482      0             -6099.1243      0              0             -404.10715      143834.86      52.394784      52.394784      52.394784      1.2558873      34577.508      35499.301      35479.068    
    148000   296000         482.38823      35254.645      98406.387      24482.339      11559.34       12923          4288.8415      4184.4677      10424.403      0             -5974.7125      0              0             -404.26596      143778.35      52.387922      52.387922      52.387922      1.2563809      34701.139      34872.369      36190.426    
    149000   298000         480.62724      34976.656      97749.726      24371.569      11517.142      12854.427      4213.5877      4346.8854      10359.814      0             -6065.8595      0              0             -404.06206      143850.91      52.396733      52.396733      52.396733      1.2557472      34207.785      35010.814      35711.37     
    150000   300000         491.19888      35341.17       98631.982      24618.358      11770.467      12847.891      4347.4979      4142.4699      10351.207      0             -5993.2841      0              0             -404.76769      143600.14      52.366267      52.366267      52.366267      1.2579402      34680.955      35413.689      35928.867    
    151000   302000         486.83649      34499.736      96716.785      24154.153      11665.932      12488.221      4206.7496      4135.0031      10378.592      0             -6232.1235      0              0             -403.03181      144218.63      52.441341      52.441341      52.441341      1.2525454      34655.364      34064.601      34779.244    
    152000   304000         484.67849      35152.602      98055.055      24233.401      11614.221      12619.18       4211.4023      4138.9896      10413.52       0             -6144.7315      0              0             -403.65494      143995.99      52.414342      52.414342      52.414342      1.254482       33976.122      36330.576      35151.108    
    153000   306000         476.64271      34412.086      96397.1        24057.443      11421.661      12635.782      4242.0881      4158.3057      10331.591      0             -6096.2034      0              0             -403.24698      144141.67      52.432011      52.432011      52.432011      1.2532141      35168.971      33990.053      34077.233    
    154000   308000         476.00365      34348.979      96272.167      23887.27       11406.348      12480.922      4160.4042      4113.634       10403.629      0             -6196.7447      0              0             -402.25593      144496.8       52.475036      52.475036      52.475036      1.2501341      33784.252      34684.08       34578.607    
    155000   310000         485.71037      34636.284      97313.667      24289.834      11638.947      12650.886      4313.7826      4104.151       10412.508      0             -6179.5552      0              0             -402.07145      144563.1       52.48306       52.48306       52.48306       1.2495608      34569.398      34833.603      34505.85     
    156000   312000         471.26542      33849.479      95115.001      23897.147      11292.807      12604.34       4187.9105      4201.6197      10360.061      0             -6145.2513      0              0             -402.90224      144265.01      52.446962      52.446962      52.446962      1.2521427      34419.602      33464.15       33664.685    
    157000   314000         481.97356      34318.163      96425.293      24135.491      11549.403      12586.087      4343.8249      4189.5579      10328.325      0             -6275.6206      0              0             -402.42372      144436.55      52.467742      52.467742      52.467742      1.2506556      34150.502      33508.682      35295.306    
    158000   316000         483.00071      33712.847      95215.435      24087.778      11574.016      12513.762      4258.3945      4157.6989      10408.037      0             -6310.3687      0              0             -401.7848       144666.24      52.495538      52.495538      52.495538      1.2486699      33429.713      32497.469      35211.36     
    159000   318000         484.11618      34791.853      97241.425      23971.152      11600.746      12370.406      4200.5735      4038.6424      10376.551      0             -6245.3604      0              0             -402.51894      144402.39      52.463604      52.463604      52.463604      1.2509515      35015.298      34074.133      35286.127    
    160000   320000         475.15503      34913.577      97535.659      24001.032      11386.013      12615.019      4198.4174      4158.5742      10428.455      0             -6170.428       0              0             -402.4751       144418.11      52.465509      52.465509      52.465509      1.2508153      34796.219      34844.041      35100.47     
    161000   322000         474.56265      33439.304      94435.852      23800.665      11371.818      12428.848      4165.1321      4200.4419      10435.653      0             -6372.3789      0              0             -401.30328      144839.82      52.516526      52.516526      52.516526      1.2471735      32801.036      33561.885      33954.991    
    162000   324000         477.83999      34369.858      96492.86       24062.915      11450.352      12612.563      4244.333       4155.9345      10424.693      0             -6212.3972      0              0             -402.25009      144498.9       52.47529       52.47529       52.47529       1.250116       33406.94       34538.653      35163.979    
    163000   326000         479.4515       34994.348      98028.92       24205.298      11488.968      12716.331      4384.1294      4227.9958      10380.424      0             -6276.2188      0              0             -401.82701      144651.04      52.4937        52.4937        52.4937        1.2488011      34141.978      34809.944      36031.12     
    164000   328000         479.21358      33363.051      94357.979      23852.647      11483.267      12369.38       4110.3898      4165.895       10365.814      0             -6272.7188      0              0             -401.12559      144903.98      52.524279      52.524279      52.524279      1.2466212      32070.362      34740.33       33278.462    
    165000   330000         482.9833       33786.462      95272.843      23924.733      11573.599      12351.133      4166.1694      4088.8324      10351.532      0             -6255.4007      0              0             -401.41797      144798.44      52.511524      52.511524      52.511524      1.2475299      33108.496      34106.338      34144.552    
    166000   332000         483.80963      33009.415      93907.016      23964.038      11593.4        12370.637      4192.07        4174.9179      10441.803      0             -6438.1532      0              0             -400.06474      145288.22      52.570665      52.570665      52.570665      1.2433243      31983.463      32297.939      34746.841    
    167000   334000         474.95582      32803.878      93252.409      23736.191      11381.239      12354.952      4158.2785      4190.4513      10384.412      0             -6378.1905      0              0             -400.0144       145306.51      52.57287       52.57287       52.57287       1.2431679      32443.539      33273.377      32694.718    
    168000   336000         484.4787       32992.731      93770.995      23996.087      11609.433      12386.654      4236.3557      4194.9114      10312.916      0             -6357.5291      0              0             -400.82571      145012.39      52.537375      52.537375      52.537375      1.2456893      32695.814      31978.931      34303.449    
    169000   338000         470.62021      32711.758      93007.846      23711.369      11277.346      12434.023      4224.4701      4099.8673      10427.285      0             -6317.5993      0              0             -400.15598      145255.1       52.566669      52.566669      52.566669      1.2436078      33836.532      31791.574      32507.169    
    170000   340000         480.38489      32842.006      93514.295      23963.788      11511.334      12452.454      4258.9732      4164.8832      10403.457      0             -6374.86        0              0             -400.28191      145209.4       52.561156      52.561156      52.561156      1.2439992      32893.672      32527.504      33104.843    
    171000   342000         481.67779      32315.299      92398.757      23899.544      11542.316      12357.228      4266.3359      4098.4285      10404.093      0             -6411.6288      0              0             -399.90715      145345.48      52.577569      52.577569      52.577569      1.2428345      33066.079      31669.12       32210.697    
    172000   344000         483.21137      33435.906      94768.602      24142.917      11579.065      12563.853      4240.9201      4189.4442      10381.892      0             -6248.404       0              0             -401.31648      144835.05      52.51595       52.51595       52.51595       1.2472145      33605.834      34072.119      32629.765    
    173000   346000         478.95002      32673.074      93020.129      23586.823      11476.951      12109.872      4242.3576      4196.3389      10342.658      0             -6671.4823      0              0             -398.89512      145714.23      52.621996      52.621996      52.621996      1.2396894      33395.435      32212.259      32411.527    
    174000   348000         478.78872      32201.41       91932.414      23719.644      11473.086      12246.559      4237.6854      4087.1403      10428.377      0             -6506.6435      0              0             -400.17116      145249.59      52.566004      52.566004      52.566004      1.243655       32114.158      31503.839      32986.234    
    175000   350000         481.23134      33388.001      94803.031      24001.345      11531.618      12469.727      4398.5669      4102.6051      10395.275      0             -6426.7194      0              0             -399.74532      145404.32      52.584663      52.584663      52.584663      1.2423316      32575.29       33820.337      33768.375    
    176000   352000         483.71075      32784.174      93443.674      24013.217      11591.031      12422.186      4276.625       4181.9111      10440.244      0             -6476.5942      0              0             -400.26793      145214.47      52.561768      52.561768      52.561768      1.2439558      32877.53       32341.947      33133.045    
    177000   354000         480.37461      31714.391      91233.611      23900.619      11511.088      12389.531      4214.5915      4167.3793      10460.797      0             -6453.2369      0              0             -399.2685       145577.96      52.605588      52.605588      52.605588      1.2408497      32121.336      31133.68       31888.158    
    178000   356000         482.81862      32791.404      93554.269      24078.405      11569.653      12508.752      4342.1132      4184.2714      10388.373      0             -6406.0053      0              0             -400.09455      145277.4       52.569359      52.569359      52.569359      1.2434169      32610.977      33044.474      32718.761    
    179000   358000         478.11986      31396.784      90223.447      23531.319      11457.058      12074.261      4163.4264      4061.2618      10347.27       0             -6497.6962      0              0             -399.06825      145651.01      52.614386      52.614386      52.614386      1.2402274      30990.465      30913.299      32286.588    
    180000   360000         479.7916       31481.401      90756.93       23858.654      11497.118      12361.537      4296.2823      4085.7403      10393.787      0             -6414.2733      0              0             -398.91072      145708.53      52.62131       52.62131       52.62131       1.2397378      32314.231      31294.457      30835.515    
    181000   362000         482.63369      32005.292      91742.69       23634.661      11565.222      12069.439      4174.3202      4062.5476      10299.889      0             -6467.3173      0              0             -398.34562      145915.23      52.646182      52.646182      52.646182      1.2379816      32178.457      32463.147      31374.271    
    182000   364000         478.19954      31173.593      89992.935      23723.149      11458.967      12264.182      4253.1473      4129.1505      10417.783      0             -6535.8992      0              0             -398.75659      145764.85      52.62809       52.62809       52.62809       1.2392588      31386.535      29941.314      32192.93     
    183000   366000         476.72981      31394.994      90373.451      23510.707      11423.749      12086.959      4241.9674      4105.8882      10441.542      0             -6702.4392      0              0             -398.02723      146031.95      52.660216      52.660216      52.660216      1.2369921      31829.775      31196.214      31158.994    
    184000   368000         491.00647      32065.206      92201.973      23934.793      11765.857      12168.936      4209.7461      4156.7382      10429.141      0             -6626.6888      0              0             -398.16093      145982.92      52.654321      52.654321      52.654321      1.2374076      31879.982      31019.045      33296.59     
    185000   370000         477.3619       31152.966      89819.684      23543.233      11438.895      12104.337      4188.6254      4069.5016      10402.699      0             -6556.4891      0              0             -398.45265      145876.04      52.641468      52.641468      52.641468      1.2383142      30995.864      30485.139      31977.894    
    186000   372000         488.97401      30695.392      89211.364      23766.048      11717.153      12048.895      4236.8424      4118.3631      10386.353      0             -6692.6634      0              0             -397.58609      146193.98      52.679685      52.679685      52.679685      1.2356211      31105.646      29489.908      31490.621    
    187000   374000         476.77956      30953.313      89469.544      23577.058      11424.941      12152.117      4224.7954      4024.2934      10437.869      0             -6534.8403      0              0             -398.20602      145966.39      52.652333      52.652333      52.652333      1.2375478      30766.693      30567.996      31525.252    
    188000   376000         483.244        32194.142      92369.078      23786.15       11579.846      12206.304      4224.5823      4184.2972      10394.801      0             -6597.3763      0              0             -397.9215       146070.76      52.664879      52.664879      52.664879      1.2366635      30852.57       33230.189      32499.667    
    189000   378000         477.09555      30479.933      88471.771      23383.327      11432.513      11950.814      4209.3081      4069.464       10444.571      0             -6772.5293      0              0             -396.95995      146424.58      52.707368      52.707368      52.707368      1.2336752      30398.422      30562.669      30478.707    
    190000   380000         485.93946      31855.068      91710.273      23775.958      11644.437      12131.521      4199.0932      4176.8043      10374.96       0             -6619.3365      0              0             -397.48972      146229.43      52.683942      52.683942      52.683942      1.2353217      32121.324      31439.041      32004.839    
    191000   382000         479.69109      30619.136      88745.712      23390.477      11494.709      11895.768      4168.0253      4016.7878      10395.659      0             -6684.7034      0              0             -397.14502      146356.35      52.69918       52.69918       52.69918       1.2342504      30851.537      31008.616      29997.255    
    192000   384000         474.43915      31076.236      89629.631      23238.003      11368.858      11869.145      4246.0815      4091.7905      10327.125      0             -6795.8522      0              0             -396.78173      146490.35      52.715258      52.715258      52.715258      1.2331214      31434.815      31100.964      30692.929    
    193000   386000         481.43744      30411.255      88248.869      23240.69       11536.556      11704.133      4136.5098      4023.1352      10377.322      0             -6832.8339      0              0             -396.55453      146574.28      52.725324      52.725324      52.725324      1.2324153      31048.24       29919.612      30265.914    
    194000   388000         470.39479      30993.798      89311.482      23175.001      11271.944      11903.057      4162.2719      4035.9909      10399.468      0             -6694.6743      0              0             -397.25584      146315.52      52.694279      52.694279      52.694279      1.2345948      31065.378      30815.508      31100.508    
    195000   390000         484.60669      30305.398      88509.393      23762.77       11612.5        12150.27       4235.4621      4167.4214      10399.948      0             -6652.5622      0              0             -396.77056      146494.48      52.715753      52.715753      52.715753      1.2330866      30478.007      30199.915      30238.27     
    196000   392000         487.50394      30246.738      88166.136      23453.976      11681.926      11772.05       4176.4565      4068.1663      10397.915      0             -6870.4878      0              0             -396.21346      146700.46      52.740449      52.740449      52.740449      1.2313553      29877.301      29903.378      30959.534    
    197000   394000         480.52772      30529.718      88685.342      23382.138      11514.757      11867.381      4224.4385      4081.1218      10345.082      0             -6783.2618      0              0             -396.30073      146668.15      52.736577      52.736577      52.736577      1.2316265      30600.061      30142.498      30846.595    
    198000   396000         479.17415      30041.466      87626.246      23391.113      11482.322      11908.791      4243.3758      4066.74        10361.355      0             -6762.6798      0              0             -396.44694      146614.06      52.730093      52.730093      52.730093      1.2320809      28727.949      30135.67       31260.779    
[...]
    458000   916000         482.71788      4346.7162      32351.713      20629.281      11567.239      9062.0412      3969.5161      3892.5582      10242.932      0             -9042.9652      0              0             -314.32586      184918.59      56.971833      56.971833      56.971833      0.97686436     3769.5263      4301.6581      4968.9643    
    459000   918000         477.73919      4408.213       32290.065      20349.392      11447.936      8901.4558      3890.1322      3855.1384      10125.001      0             -8968.8158      0              0             -312.94668      185733.54      57.055403      57.055403      57.055403      0.97257813     3382.5301      5217.3745      4624.7345    
    460000   920000         490.31245      3933.8923      31334.812      20653.037      11749.226      8903.8108      3903.7552      3823.0004      10147.278      0             -8970.2225      0              0             -312.18757      186185.16      57.101611      57.101611      57.101611      0.97021897     3954.721       4670.7617      3176.1941    
    461000   922000         478.66369      3513.6736      30013.579      20491.174      11470.09       9021.0846      3972.1469      3878.8122      10153.759      0             -8983.633       0              0             -312.78893      185827.21      57.064993      57.064993      57.064993      0.97208787     3567.3109      3066.2796      3907.4302    
    462000   924000         480.2041       3815.3013      30962.993      20526.643      11507.002      9019.6407      3999.5566      3762.0807      10217.466      0             -8959.4623      0              0             -309.89658      187561.59      57.241978      57.241978      57.241978      0.96309902     4007.6078      4103.3023      3334.9938    
    463000   926000         475.13231      4075.1992      31383.845      20267.748      11385.468      8882.2795      3896.1259      3833.7613      10131.998      0             -8979.6054      0              0             -310.7657       187037.03      57.188565      57.188565      57.188565      0.96580007     4381.0822      3820.0631      4024.4523    
    464000   928000         483.64999      3795.1145      31022.64       20623.447      11589.575      9033.8717      3860.7565      3879.6145      10205.786      0             -8912.2851      0              0             -309.35834      187887.92      57.275157      57.275157      57.275157      0.96142625     3800.1469      4233.8539      3351.3427    
    465000   930000         478.56022      3556.2097      30056.894      20339.897      11467.61       8872.2865      3907.1212      3781.3313      10151.292      0             -8967.4585      0              0             -310.23575      187356.53      57.22111       57.22111       57.22111       0.96415309     2938.6419      3890.1192      3839.8681    
    466000   932000         478.47535      3703.1312      30597.505      20381.614      11465.577      8916.0378      3958.0203      3794.4821      10123.325      0             -8959.7895      0              0             -307.27656      189160.85      57.404211      57.404211      57.404211      0.95495649     3538.9774      4018.2083      3552.2077    
    467000   934000         483.23063      3278.1867      29719.623      20657.576      11579.526      9078.0495      3869.0251      3854.6184      10183.697      0             -8829.2911      0              0             -306.65067      189546.94      57.443239      57.443239      57.443239      0.95301133     3198.6643      3287.7901      3348.1056    
    468000   936000         475.89152      3604.67        30381.487      20395.613      11403.661      8991.9518      3910.7647      3780.1054      10238.702      0             -8937.6199      0              0             -305.99618      189952.36      57.484165      57.484165      57.484165      0.9509773      3565.8711      3778.2608      3469.878     
    469000   938000         478.98709      3117.9623      29273.132      20558.625      11477.839      9080.7858      4021.1335      3715.2574      10170.472      0             -8826.077       0              0             -303.29455      191644.38      57.654343      57.654343      57.654343      0.94258116     3223.2746      3507.648       2622.9642    
    470000   940000         479.02342      3206.1016      29420.52       20470.029      11478.71       8991.3188      3930.6935      3768.7389      10068.461      0             -8776.5748      0              0             -303.64559      191422.82      57.632117      57.632117      57.632117      0.94367211     2770.7988      3864.0806      2983.4253    
    471000   942000         483.71285      3382.4871      30086.678      20662.665      11591.081      9071.5837      3946.229       3845.9216      10118.016      0             -8838.5828      0              0             -304.25439      191039.79      57.593651      57.593651      57.593651      0.94556416     3172.104       3412.5403      3562.8171    
    472000   944000         477.20158      2861.7529      28546.491      20572.519      11435.054      9137.4657      3946.7685      3877.4792      10186.566      0             -8873.3479      0              0             -304.22438      191058.64      57.595545      57.595545      57.595545      0.94547089     2780.7815      2626.4682      3178.0091    
    473000   946000         479.13568      2633.4021      27892.772      20497.345      11481.4        9015.9454      3875.3486      3824.4588      10136.132      0             -8819.9937      0              0             -301.84953      192561.82      57.746198      57.746198      57.746198      0.93809031     2519.9343      2576.7877      2803.4842    
    474000   948000         486.3842       3407.2947      30514.319      20900.291      11655.094      9245.1972      3893.4323      3863.8346      10172.665      0             -8684.7345      0              0             -300.42836      193472.73      57.83711       57.83711       57.83711       0.9336736      3385.4214      3753.2418      3083.221     
    475000   950000         475.81253      3095.0364      29188.246      20441.759      11401.768      9039.9904      3876.4105      3801.2403      10122.383      0             -8760.0437      0              0             -299.96368      193772.44      57.86696       57.86696       57.86696       0.93222946     3240.4426      3356.5215      2688.145     
    476000   952000         471.57457      2464.0121      27629.827      20603.285      11300.215      9303.0698      3961.6331      3826.2287      10202.887      0             -8687.6786      0              0             -297.26089      195534.28      58.041813      58.041813      58.041813      0.9238297      2481.1015      2155.5568      2755.3781    
    477000   954000         485.54219      1452.1947      25103.83       20971.474      11634.917      9336.5572      3909.2813      3920.7701      10193.151      0             -8686.6454      0              0             -297.89536      195117.82      58.000577      58.000577      58.000577      0.92580152     801.94462      1674.1655      1880.474     
    478000   956000         473.40488      2172.1023      26892.448      20681.216      11344.074      9337.1418      3894.0538      3944.6982      10162.263      0             -8663.8734      0              0             -296.44156      196074.71      58.095237      58.095237      58.095237      0.9212834      2366.2076      1983.9736      2166.1257    
    479000   958000         474.73342      2549.1347      27655.722      20349.282      11375.91       8973.3725      3771.054       3753.8525      10119.623      0             -8671.1571      0              0             -295.7492       196533.74      58.140537      58.140537      58.140537      0.91913166     1964.5855      2764.6631      2918.1554    
    480000   960000         482.02113      1943.3506      26394.01       20799.045      11550.543      9248.5015      3932.4972      3852.0029      10112.25       0             -8648.2481      0              0             -294.43564      197410.53      58.226869      58.226869      58.226869      0.91504936     2272.5733      1745.3315      1812.147     
    481000   962000         483.79182      1563.0864      25637.013      21092.721      11592.974      9499.7472      4056.4571      3829.1914      10191.314      0             -8577.215       0              0             -291.577        199345.95      58.416537      58.416537      58.416537      0.90616528     2213.4714      1321.6919      1154.0959    
    482000   964000         478.28711      2071.2828      26646.072      20649.9        11461.066      9188.8343      3896.7634      3872.069       10033.916      0             -8613.9136      0              0             -292.82077      198499.22      58.333711      58.333711      58.333711      0.91003066     1945.0975      2647.3709      1621.3801    
    483000   966000         481.66299      1822.6072      26139.657      20822.124      11541.961      9280.1632      3836.4935      3824.1211      10126.661      0             -8507.1125      0              0             -290.54906      200051.22      58.485347      58.485347      58.485347      0.90297062     1693.2319      1752.8531      2021.7366    
    484000   968000         482.85755      1854.8251      26488.174      21067.669      11570.586      9497.0829      4062.4995      3828.355       10184.147      0             -8577.9187      0              0             -290.068        200383         58.517661      58.517661      58.517661      0.90147558     2143.8832      1564.7653      1855.8268    
    485000   970000         482.81456      1129.8628      24410.043      21074.636      11569.556      9505.0797      4028.0042      3835.4313      10101.83       0             -8460.1858      0              0             -287.15305      202417.13      58.715003      58.715003      58.715003      0.89241647     1258.0386      1263.5541      867.99569    
    486000   972000         478.80604      1193.7858      24479.888      20932.815      11473.501      9459.3137      3914.2102      3731.8511      10204.823      0             -8391.5707      0              0             -285.29415      203736.02      58.84225       58.84225       58.84225       0.88663939     1368.4996      1226.3219      986.53607    
    487000   974000         481.12209      1553.4303      25323.478      20718.588      11529          9189.588       3972.3809      3636.7815      10064.82       0             -8484.3946      0              0             -285.96246      203259.88      58.796376      58.796376      58.796376      0.88871635     1346.4245      1286.8331      2027.0333    
    488000   976000         478.9799       908.31875      23652.317      20947.807      11477.667      9470.1404      4019.8291      3804.4063      10075.734      0             -8429.8294      0              0             -284.69921      204161.77      58.88321       58.88321       58.88321       0.88479041     248.60528      645.26673      1831.0842    
    489000   978000         478.95217      1039.492       24018.526      20904.782      11477.003      9427.7795      3912.7448      3794.3721      10109.212      0             -8388.5488      0              0             -282.99246      205393.09      59.001349      59.001349      59.001349      0.87948616     744.72438      1278.9957      1094.756     
    490000   980000         475.94753      668.17724      23225.604      21208.597      11405.003      9803.5942      4063.0019      3907.4556      10163.947      0             -8330.8099      0              0             -280.81537      206985.45      59.153431      59.153431      59.153431      0.87272018     1595.4384      58.07305       351.02025    
    491000   982000         480.63762      785.29892      23613.968      21225.81       11517.391      9708.4194      3991.6178      3838.1448      10182.265      0             -8303.6086      0              0             -278.74588      208522.17      59.299461      59.299461      59.299461      0.8662886      385.51867      449.65644      1520.7217    
    492000   984000         476.28466      1207.5823      24783.798      21094.891      11413.082      9681.8092      3981.8592      3791.851       10125.773      0             -8217.6743      0              0             -277.49528      209461.92      59.38841       59.38841       59.38841       0.86240199     1733.9195      1367.2152      521.61212    
    493000   986000         480.13411     -233.19725      20625.811      21348.239      11505.325      9842.9137      4012.8266      3869.3812      10061.876      0             -8101.1703      0              0             -273.63114      212419.88      59.666659      59.666659      59.666659      0.85039299    -736.32396     -273.15061      309.88281    
    494000   988000         482.2214       693.30553      23749.988      21581.668      11555.342      10026.325      4004.1724      3871.5328      10177.585      0             -8026.9648      0              0             -271.04275      214448.44      59.855992      59.855992      59.855992      0.84234875     1028.2429      113.90292      937.77083    
    495000   990000         478.15998      36.280603      21463.874      21350.624      11458.019      9892.6047      3940.9636      3824.8787      10137.999      0             -8011.237       0              0             -271.56485      214036.15      59.817608      59.817608      59.817608      0.84397134     178.05807     -327.59017      258.3739     
    496000   992000         477.47703      95.060734      21484.773      21183.535      11441.654      9741.8808      3993.2724      3738.4302      9996.0229      0             -7985.8448      0              0             -267.50271      217286.38      60.118873      60.118873      60.118873      0.831347       378.66787     -39.780765     -53.704907    
    497000   994000         476.65182      503.62905      23005.136      21396.552      11421.88       9974.6725      3960.1655      3708.1124      10133.412      0             -7827.0174      0              0             -265.40162      219006.56      60.277103      60.277103      60.277103      0.82481721     646.42319      638.87749      225.58646    
    498000   996000         480.24096      20.891149      21364.492      21297.453      11507.886      9789.5672      3866.5683      3716.9295      10040.185      0             -7834.1161      0              0             -264.16331      220033.18      60.371142      60.371142      60.371142      0.8209688     -247.62109      70.233215      240.06132    
    499000   998000         488.13827      369.90618      23093.367      21888.412      11697.127      10191.285      3945.6867      3851.5877      10072.636      0             -7678.6252      0              0             -260.22982      223359.08      60.673802      60.673802      60.673802      0.80874426     614.67724      366.04142      128.99988    
    500000   1000000        473.82134      583.37041      23559.556      21621.618      11354.054      10267.564      3861.8256      3821.2083      10108.297      0             -7523.7667      0              0             -255.17671      227782.13      61.071682      61.071682      61.071682      0.79304016     956.37605      706.60274      87.132441    
Loop time of 16716.7 on 1 procs for 500000 steps with 8040 atoms

Performance: 5.168 ns/day, 4.644 hours/ns, 29.910 timesteps/s, 240.478 katom-step/s
39.9% CPU use with 1 MPI tasks x 1 OpenMP threads

MPI task timing breakdown:
Section |  min time  |  avg time  |  max time  |%varavg| %total
---------------------------------------------------------------
Pair    | 1103       | 1103       | 1103       |   0.0 |  6.60
Bond    | 2570.3     | 2570.3     | 2570.3     |   0.0 | 15.38
Neigh   | 12263      | 12263      | 12263      |   0.0 | 73.35
Comm    | 286.71     | 286.71     | 286.71     |   0.0 |  1.72
Output  | 33.364     | 33.364     | 33.364     |   0.0 |  0.20
Modify  | 359.31     | 359.31     | 359.31     |   0.0 |  2.15
Other   |            | 101.5      |            |       |  0.61

Nlocal:           8040 ave        8040 max        8040 min
Histogram: 1 0 0 0 0 0 0 0 0 0
Nghost:          20339 ave       20339 max       20339 min
Histogram: 1 0 0 0 0 0 0 0 0 0
Neighs:              0 ave           0 max           0 min
Histogram: 1 0 0 0 0 0 0 0 0 0
FullNghs:  4.83537e+06 ave 4.83537e+06 max 4.83537e+06 min
Histogram: 1 0 0 0 0 0 0 0 0 0

Total # of neighbors = 4835370
Ave neighs/atom = 601.41418
Ave special neighs/atom = 5.9701493
Neighbor list builds = 17320
Dangerous builds = 0

# --- Cleanup ---
unfix npt_fix

undump dump_npt

# --- Write Output ---
write_dump all custom npt_pppm_last.dump id type mol x y z xu yu zu vx vy vz modify sort id
write_data /home/arz2/PolyJarvis/data/cis-PBD1/lammps/equil/npt_pppm/npt_pppm_out.data
System init for write_data ...
Generated 3 of 3 mixed pair_coeff terms from arithmetic mixing rule

print "STAGE COMPLETE: NPT T=480.0->480.0K P=50000.0->1.0atm steps=500000"
STAGE COMPLETE: NPT T=480.0->480.0K P=50000.0->1.0atm steps=500000
quit
   | 12263      | 12263      |   0.0 | 73.35
Comm    | 286.71     | 286.71     | 286.71     |   0.0 |  1.72
Output  | 33.364     | 33.364     | 33.364     |   0.0 |  0.20
Modify  | 359.31     | 359.31     | 359.31     |   0.0 |  2.15
Other   |            | 101.5      |            |       |  0.61

Nlocal:           8040 ave        8040 max        8040 min
Histogram: 1 0 0 0 0 0 0 0 0 0
Nghost:          20339 ave       20339 max       20339 min
Histogram: 1 0 0 0 0 0 0 0 0 0
Neighs:              0 ave           0 max           0 min
Histogram: 1 0 0 0 0 0 0 0 0 0
FullNghs:  4.83537e+06 ave 4.83537e+06 max 4.83537e+06 min
Histogram: 1 0 0 0 0 0 0 0 0 0

Total # of neighbors = 4835370
Ave neighs/atom = 601.41418
Ave special neighs/atom = 5.9701493
Neighbor list builds = 17320
Dangerous builds = 0
System init for write_data ...


---------------------------------------------------------------------
      Device Time Info (average): 
---------------------------------------------------------------------
Data Transfer:   73.7521 s.
Neighbor copy:   625.5743 s.
Neighbor unpack: 0.0000 s.
Force calc:      435.4269 s.
Device Overhead: 13.1680 s.
CPU Cast/Pack:   201.0421 s.
CPU Driver_Time: 10.2319 s.
CPU Idle_Time:   8.2851 s.
Average split:   1.0000.
Max Mem / Proc:  40.61 MB.
Prefetch mode:   None.
Vector width:    32.
Lanes / atom:    4.
Pair block:      256.
Neigh block:     128.
Neigh mode:      Host.
---------------------------------------------------------------------


--------------------------------------------------------------------------
- Using acceleration for lj/cut:
-  with 1 proc(s) per device.
-  with 1 thread(s) per proc.
-  Horizontal vector operations: ENABLED
-  Shared memory system: No
--------------------------------------------------------------------------
Device 0: Quadro RTX 6000, 72 CUs, 23/24 GB, 1.8 GHZ (Mixed Precision)
--------------------------------------------------------------------------

Initializing Device and compiling on process 0...Done.
Initializing Device 0 on core 0...Done.

Generated 3 of 3 mixed pair_coeff terms from arithmetic mixing rule
STAGE COMPLETE: NPT T=480.0->480.0K P=50000.0->1.0atm steps=500000
Cuda driver error 4 in call at file '/home/arz2/lammps/lib/gpu/geryon/nvd_timer.h' in line 98.
Cuda driver error 4 in call at file '/home/arz2/lammps/lib/gpu/geryon/nvd_timer.h' in line 99.
Cuda driver error 4 in call at file '/home/arz2/lammps/lib/gpu/geryon/nvd_timer.h' in line 98.
Cuda driver error 4 in call at file '/home/arz2/lammps/lib/gpu/geryon/nvd_timer.h' in line 99.
Cuda driver error 4 in call at file '/home/arz2/lammps/lib/gpu/geryon/nvd_timer.h' in line 98.
Cuda driver error 4 in call at file '/home/arz2/lammps/lib/gpu/geryon/nvd_timer.h' in line 99.
