units real
atom_style full
boundary p p p

# --- Force Field Styles ---
pair_style lj/class2/coul/long 9.5 9.5
kspace_style pppm 1e-6
dielectric 1.000000
bond_style class2
angle_style class2
dihedral_style class2
improper_style class2
special_bonds lj/coul 0 0 1
pair_modify mix sixthpower tail yes
neighbor 2.0 bin
neigh_modify delay 0 every 1 check yes
neigh_modify one 4000
# KOKKOS: package loaded via -pk kokkos on the command line

read_data /home/arz2/PolyJarvis/data/PLA4/lammps/equil/minimize/minimize_out.data
Reading data file ...
  orthogonal box = (0 0 0) to (45.633123 45.633123 45.633123)
  1 by 1 by 1 MPI processor grid
  reading atoms ...
  4520 atoms
  reading velocities ...
  4520 velocities
  scanning bonds ...
  4 = max bonds/atom
  scanning angles ...
  12 = max angles/atom
  scanning dihedrals ...
  21 = max dihedrals/atom
  scanning impropers ...
  8 = max impropers/atom
  orthogonal box = (0 0 0) to (45.633123 45.633123 45.633123)
  1 by 1 by 1 MPI processor grid
  reading bonds ...
  4510 bonds
  reading angles ...
  8000 angles
  reading dihedrals ...
  9970 dihedrals
  reading impropers ...
  4500 impropers
Finding 1-2 1-3 1-4 neighbors ...
  special bond factors lj:    0        0        1       
  special bond factors coul:  0        0        1       
     4 = max # of 1-2 neighbors
     6 = max # of 1-3 neighbors
    10 = max # of special neighbors
  special bonds CPU = 0.003 seconds
  read_data CPU = 0.240 seconds
include /home/arz2/PolyJarvis/data/PLA4/lammps/equil/emc_build.params
# LAMMPS parameters created by EMC v9.4.4, build Jul 31 2025 20:33:44

# Variables

variable	seed		index	481723
variable	ntotal		index	4520
variable	fshape		index	1
variable	output		index	emc_build
variable	field		index	pcff/pcff
variable	location1	index	/home/arz2/emc/field/
variable	nav		index	0.6022141179
variable	temperature	index	300
variable	radius		index	5
variable	nrelax		index	100
variable	weight_nonbond	index	0.0001
variable	weight_bond	index	0.0001
variable	weight_focus	index	1
variable	cutoff		index	9.5
variable	charge_cutoff	index	9.5
variable	kappa		index	4
variable	density1	index	0.63
variable	lprevious	index	0
variable	lphase		index	45.6331234262
variable	f_poly		index	10
variable	chem_repeat	index	*C(C)C(=O)O*
variable	chem_cap	index	*[H]
variable	lg_repeat	index	9
variable	lg_cap		index	1
variable	norm_poly	index	100
variable	l_poly		index	452
variable	mg_repeat	index	44.05358
variable	mg_cap		index	0
variable	m_poly		index	2202.679
variable	n_poly		index	10
variable	mtotal		index	36052.2247
variable	nphase1		index	4520
variable	mphase1		index	36052.2247
variable	vphase1		index	95025.5927105
variable	lbox		index	45.6331234262
variable	lphase1		index	45.6331234262
variable	lxx		index	45.6331234262
variable	lyy		index	45.6331234262
variable	lzz		index	45.6331234262
variable	lzy		index	0
variable	lzx		index	0
variable	lyx		index	0
variable	vtotal		index	95025.5927105
variable	nl_poly		index	10

# Types

variable	type_c		index	1
variable	type_c1		index	2
variable	type_c_1	index	3
variable	type_hc		index	4
variable	type_ho2	index	5
variable	type_o_1	index	6
variable	type_o_2	index	7

variable	type_bond_c_c	index	1
variable	type_bond_c_c1	index	2
variable	type_bond_c_c_1	index	3
variable	type_bond_c_hc	index	4
variable	type_bond_c1_c_1 index	5
variable	type_bond_c1_hc	index	6
variable	type_bond_c1_o_2 index	7
variable	type_bond_c_1_o_1 index	8
variable	type_bond_c_1_o_2 index	9
variable	type_bond_ho2_o_2 index	10

variable	type_angle_c_c_c_1 index	1
variable	type_angle_c_c_hc index	2
variable	type_angle_c_c1_c_1 index	3
variable	type_angle_c_c1_hc index	4
variable	type_angle_c_c1_o_2 index	5
variable	type_angle_c_c_1_o_1 index	6
variable	type_angle_c_c_1_o_2 index	7
variable	type_angle_c1_c_hc index	8
variable	type_angle_c1_c_1_o_1 index	9
variable	type_angle_c1_c_1_o_2 index	10
variable	type_angle_c1_o_2_c_1 index	11
variable	type_angle_c_1_c_hc index	12
variable	type_angle_c_1_c1_hc index	13
variable	type_angle_c_1_c1_o_2 index	14
variable	type_angle_c_1_o_2_ho2 index	15
variable	type_angle_hc_c_hc index	16
variable	type_angle_hc_c1_o_2 index	17
variable	type_angle_o_1_c_1_o_2 index	18

# Clusters

variable	n0_poly		index	1
variable	n1_poly		index	10
variable	nl_poly		index	10

# Flags

variable	flag_charged	index	1

# Masses

mass		1    12.01115  # c
mass		2    12.01115  # c1
mass		3    12.01115  # c_1
mass		4     1.00797  # hc
mass		5     1.00800  # ho2
mass		6    15.99940  # o_1
mass		7    15.99940  # o_2

# Potentials

pair_modify	mix sixthpower tail yes
special_bonds	lj/coul 0 0 1

# Pair Coeffs

pair_coeff	 1  1    0.05400    4.01000  # c,c
pair_coeff	 2  2    0.05400    4.01000  # c1,c1
pair_coeff	 3  3    0.12000    3.81000  # c_1,c_1
pair_coeff	 4  4    0.02000    2.99500  # hc,hc
pair_coeff	 5  5    0.01300    1.11000  # ho2,ho2
pair_coeff	 6  6    0.26700    3.30000  # o_1,o_1
pair_coeff	 7  7    0.24000    3.42000  # o_2,o_2

# Bond Coeffs

bond_coeff	 1    1.53000  299.67000 -501.77000  679.81000  # c,c
bond_coeff	 2    1.53000  299.67000 -501.77000  679.81000  # c,c1
bond_coeff	 3    1.52020  253.70670 -423.03700  396.90000  # c,c_1
bond_coeff	 4    1.10100  345.00000 -691.89000  844.60000  # c,hc
bond_coeff	 5    1.52020  253.70670 -423.03700  396.90000  # c1,c_1
bond_coeff	 6    1.10100  345.00000 -691.89000  844.60000  # c1,hc
bond_coeff	 7    1.43000  326.72730 -608.53060  689.03330  # c1,o_2
bond_coeff	 8    1.20200  851.14030 -1918.48820 2160.76590  # c_1,o_1
bond_coeff	 9    1.36830  367.14810 -794.79080 1055.23190  # c_1,o_2
bond_coeff	10    0.95200  534.29940 -1287.19370 1889.13960  # ho2,o_2

# Angle Coeffs

angle_coeff	 1  108.52950   51.97470   -9.48510  -10.99850  # c,c,c_1
angle_coeff	 2  110.77000   41.45300  -10.60400    5.12900  # c,c,hc
angle_coeff	 3  108.52950   51.97470   -9.48510  -10.99850  # c,c1,c_1
angle_coeff	 4  110.77000   41.45300  -10.60400    5.12900  # c,c1,hc
angle_coeff	 5  107.41000   63.39070  -13.45130    1.66500  # c,c1,o_2
angle_coeff	 6  123.14510   55.54310  -17.21230    0.13480  # c,c_1,o_1
angle_coeff	 7  100.31820   38.86310   -3.83230   -7.98020  # c,c_1,o_2
angle_coeff	 8  110.77000   41.45300  -10.60400    5.12900  # c1,c,hc
angle_coeff	 9  123.14510   55.54310  -17.21230    0.13480  # c1,c_1,o_1
angle_coeff	10  100.31820   38.86310   -3.83230   -7.98020  # c1,c_1,o_2
angle_coeff	11  113.28800   61.28680  -28.97860    7.99290  # c1,o_2,c_1
angle_coeff	12  107.73360   40.60990  -28.81210    0.00000  # c_1,c,hc
angle_coeff	13  107.73360   40.60990  -28.81210    0.00000  # c_1,c1,hc
angle_coeff	14  109.50000   60.00000    0.00000    0.00000  # c_1,c1,o_2
angle_coeff	15  112.87400   53.25120  -14.99790    2.46400  # c_1,o_2,ho2
angle_coeff	16  107.66000   39.64100  -12.92100   -2.43180  # hc,c,hc
angle_coeff	17  107.68800   65.48010  -10.34980    5.88660  # hc,c1,o_2
angle_coeff	18  120.79700   95.34460  -32.28690    6.37780  # o_1,c_1,o_2

# BondBond Coeffs

angle_coeff	 1 bb    5.41990    1.53000    1.52020  # c,c,c_1
angle_coeff	 2 bb    3.38720    1.53000    1.10100  # c,c,hc
angle_coeff	 3 bb    5.41990    1.53000    1.52020  # c,c1,c_1
angle_coeff	 4 bb    3.38720    1.53000    1.10100  # c,c1,hc
angle_coeff	 5 bb   23.26470    1.53000    1.43000  # c,c1,o_2
angle_coeff	 6 bb   46.06850    1.52020    1.20200  # c,c_1,o_1
angle_coeff	 7 bb   19.10690    1.52020    1.36830  # c,c_1,o_2
angle_coeff	 8 bb    3.38720    1.53000    1.10100  # c1,c,hc
angle_coeff	 9 bb   46.06850    1.52020    1.20200  # c1,c_1,o_1
angle_coeff	10 bb   19.10690    1.52020    1.36830  # c1,c_1,o_2
angle_coeff	11 bb   45.45030    1.43000    1.36830  # c1,o_2,c_1
angle_coeff	12 bb    0.71150    1.52020    1.10100  # c_1,c,hc
angle_coeff	13 bb    0.71150    1.52020    1.10100  # c_1,c1,hc
angle_coeff	14 bb    0.00000    1.52020    1.43000  # c_1,c1,o_2
angle_coeff	15 bb    9.56710    1.36830    0.95200  # c_1,o_2,ho2
angle_coeff	16 bb    5.33160    1.10100    1.10100  # hc,c,hc
angle_coeff	17 bb    5.64540    1.10100    1.43000  # hc,c1,o_2
angle_coeff	18 bb  121.48800    1.20200    1.36830  # o_1,c_1,o_2

# BondAngle Coeffs

angle_coeff	 1 ba   18.16780   15.87580    1.53000    1.52020  # c,c,c_1
angle_coeff	 2 ba   20.75400   11.42100    1.53000    1.10100  # c,c,hc
angle_coeff	 3 ba   18.16780   15.87580    1.53000    1.52020  # c,c1,c_1
angle_coeff	 4 ba   20.75400   11.42100    1.53000    1.10100  # c,c1,hc
angle_coeff	 5 ba   23.39200   47.94870    1.53000    1.43000  # c,c1,o_2
angle_coeff	 6 ba   34.99820   37.12980    1.52020    1.20200  # c,c_1,o_1
angle_coeff	 7 ba    1.34350    4.69780    1.52020    1.36830  # c,c_1,o_2
angle_coeff	 8 ba   20.75400   11.42100    1.53000    1.10100  # c1,c,hc
angle_coeff	 9 ba   34.99820   37.12980    1.52020    1.20200  # c1,c_1,o_1
angle_coeff	10 ba    1.34350    4.69780    1.52020    1.36830  # c1,c_1,o_2
angle_coeff	11 ba   41.91160   46.46080    1.43000    1.36830  # c1,o_2,c_1
angle_coeff	12 ba   12.46320    9.17650    1.52020    1.10100  # c_1,c,hc
angle_coeff	13 ba   12.46320    9.17650    1.52020    1.10100  # c_1,c1,hc
angle_coeff	14 ba    0.00000    0.00000    1.52020    1.43000  # c_1,c1,o_2
angle_coeff	15 ba   37.91630   21.43640    1.36830    0.95200  # c_1,o_2,ho2
angle_coeff	16 ba   18.10300   18.10300    1.10100    1.10100  # hc,c,hc
angle_coeff	17 ba    8.68640   57.49750    1.10100    1.43000  # hc,c1,o_2
angle_coeff	18 ba   76.26140   71.87610    1.20200    1.36830  # o_1,c_1,o_2

# Dihedral Coeffs

dihedral_coeff	 1    0.04420    0.00000    0.02920    0.00000    0.05620    0.00000  # c,c,c_1,o_1
dihedral_coeff	 2    1.83410    0.00000    2.06030    0.00000   -0.01950    0.00000  # c,c,c_1,o_2
dihedral_coeff	 3    0.04420    0.00000    0.02920    0.00000    0.05620    0.00000  # c,c1,c_1,o_1
dihedral_coeff	 4    1.83410    0.00000    2.06030    0.00000   -0.01950    0.00000  # c,c1,c_1,o_2
dihedral_coeff	 5    0.00000    0.00000    0.00000    0.00000   -0.19320    0.00000  # c,c1,o_2,c_1
dihedral_coeff	 6   -2.55940    0.00000    2.20130    0.00000    0.03250    0.00000  # c,c_1,o_2,c1
dihedral_coeff	 7   -2.55940    0.00000    2.20130    0.00000    0.03250    0.00000  # c1,c_1,o_2,c1
dihedral_coeff	 8   -2.91260    0.00000    1.01990    0.00000   -0.20770    0.00000  # c1,c_1,o_2,ho2
dihedral_coeff	 9    0.00000    0.00000    2.20890    0.00000    0.00000    0.00000  # c1,o_2,c_1,o_1
dihedral_coeff	10   -0.02280    0.00000    0.02800    0.00000   -0.18630    0.00000  # c_1,c,c,hc
dihedral_coeff	11   -0.02280    0.00000    0.02800    0.00000   -0.18630    0.00000  # c_1,c1,c,hc
dihedral_coeff	12    0.00000    0.00000    0.00000    0.00000   -0.19320    0.00000  # c_1,c1,o_2,c_1
dihedral_coeff	13    0.00000    0.00000    0.00000    0.00000   -0.19320    0.00000  # c_1,o_2,c1,hc
dihedral_coeff	14   -0.14320    0.00000    0.06170    0.00000   -0.10830    0.00000  # hc,c,c,hc
dihedral_coeff	15   -0.14320    0.00000    0.06170    0.00000   -0.10830    0.00000  # hc,c,c1,hc
dihedral_coeff	16    0.00000    0.00000    0.00000    0.00000   -0.25000    0.00000  # hc,c,c1,o_2
dihedral_coeff	17   -0.18040    0.00000    0.00120    0.00000    0.03710    0.00000  # hc,c,c_1,o_1
dihedral_coeff	18   -0.63590    0.00000    1.48070    0.00000   -0.04380    0.00000  # hc,c,c_1,o_2
dihedral_coeff	19   -0.18040    0.00000    0.00120    0.00000    0.03710    0.00000  # hc,c1,c_1,o_1
dihedral_coeff	20   -0.63590    0.00000    1.48070    0.00000   -0.04380    0.00000  # hc,c1,c_1,o_2
dihedral_coeff	21    0.00000    0.00000    2.20890    0.00000    0.00000    0.00000  # ho2,o_2,c_1,o_1
dihedral_coeff	22    0.00000  180.00000    0.00000    0.00000    0.00000    0.00000  # o_1,c_1,c1,o_2
dihedral_coeff	23    0.00000  180.00000    0.00000    0.00000    0.00000    0.00000  # o_2,c1,c_1,o_2

# MiddleBondTorsion Coeffs

dihedral_coeff	 1 mbt    0.33880   -0.10960    0.12190    1.52020  # c,c,c_1,o_1
dihedral_coeff	 2 mbt  -17.32800   -5.79000   -3.21140    1.52020  # c,c,c_1,o_2
dihedral_coeff	 3 mbt    0.33880   -0.10960    0.12190    1.52020  # c,c1,c_1,o_1
dihedral_coeff	 4 mbt  -17.32800   -5.79000   -3.21140    1.52020  # c,c1,c_1,o_2
dihedral_coeff	 5 mbt   -5.43500    0.00000    0.00000    1.43000  # c,c1,o_2,c_1
dihedral_coeff	 6 mbt    1.34450    3.55150   -4.92020    1.36830  # c,c_1,o_2,c1
dihedral_coeff	 7 mbt    1.34450    3.55150   -4.92020    1.36830  # c1,c_1,o_2,c1
dihedral_coeff	 8 mbt    2.14520    0.54820   -2.36930    1.36830  # c1,c_1,o_2,ho2
dihedral_coeff	 9 mbt    4.26000    0.00000    0.00000    1.36830  # c1,o_2,c_1,o_1
dihedral_coeff	10 mbt   -3.50390    1.24580   -0.76100    1.53000  # c_1,c,c,hc
dihedral_coeff	11 mbt   -3.50390    1.24580   -0.76100    1.53000  # c_1,c1,c,hc
dihedral_coeff	12 mbt    0.00000    0.00000    0.00000    1.43000  # c_1,c1,o_2,c_1
dihedral_coeff	13 mbt    0.00000    0.00000    0.00000    1.43000  # c_1,o_2,c1,hc
dihedral_coeff	14 mbt  -14.26100   -0.53220   -0.48640    1.53000  # hc,c,c,hc
dihedral_coeff	15 mbt  -14.26100   -0.53220   -0.48640    1.53000  # hc,c,c1,hc
dihedral_coeff	16 mbt    0.00000    0.00000    0.00000    1.53000  # hc,c,c1,o_2
dihedral_coeff	17 mbt    0.23590    0.91390    0.95940    1.52020  # hc,c,c_1,o_1
dihedral_coeff	18 mbt  -13.76860   -2.59590    1.19340    1.52020  # hc,c,c_1,o_2
dihedral_coeff	19 mbt    0.23590    0.91390    0.95940    1.52020  # hc,c1,c_1,o_1
dihedral_coeff	20 mbt  -13.76860   -2.59590    1.19340    1.52020  # hc,c1,c_1,o_2
dihedral_coeff	21 mbt    4.26000    0.00000    0.00000    1.36830  # ho2,o_2,c_1,o_1
dihedral_coeff	22 mbt    0.00000    0.00000    0.00000    1.52020  # o_1,c_1,c1,o_2
dihedral_coeff	23 mbt    0.00000    0.00000    0.00000    1.52020  # o_2,c1,c_1,o_2

# EndBondTorsion Coeffs

dihedral_coeff	 1 ebt    0.26540    0.05030    0.10460   -0.28100    0.08160   -0.15220    1.53000    1.20200  # c,c,c_1,o_1
dihedral_coeff	 2 ebt    0.00000    0.00000    0.00000    0.00000    0.00000    0.00000    1.53000    1.36830  # c,c,c_1,o_2
dihedral_coeff	 3 ebt    0.26540    0.05030    0.10460   -0.28100    0.08160   -0.15220    1.53000    1.20200  # c,c1,c_1,o_1
dihedral_coeff	 4 ebt    0.00000    0.00000    0.00000    0.00000    0.00000    0.00000    1.53000    1.36830  # c,c1,c_1,o_2
dihedral_coeff	 5 ebt    0.00000    0.00000    0.00000    0.00000    0.00000    0.00000    1.53000    1.36830  # c,c1,o_2,c_1
dihedral_coeff	 6 ebt    0.00000    0.00000    0.00000    0.00000    0.00000    0.00000    1.52020    1.43000  # c,c_1,o_2,c1
dihedral_coeff	 7 ebt    0.00000    0.00000    0.00000    0.00000    0.00000    0.00000    1.52020    1.43000  # c1,c_1,o_2,c1
dihedral_coeff	 8 ebt    0.00000    0.00000    0.00000    0.00000    0.00000    0.00000    1.52020    0.95200  # c1,c_1,o_2,ho2
dihedral_coeff	 9 ebt    0.00000    0.00000    0.00000    0.00000    0.00000    0.00000    1.43000    1.20200  # c1,o_2,c_1,o_1
dihedral_coeff	10 ebt   -0.02040    0.36280   -0.44260   -0.00970   -0.03150   -0.07550    1.52020    1.10100  # c_1,c,c,hc
dihedral_coeff	11 ebt   -0.02040    0.36280   -0.44260   -0.00970   -0.03150   -0.07550    1.52020    1.10100  # c_1,c1,c,hc
dihedral_coeff	12 ebt    0.00000    0.00000    0.00000    0.00000    0.00000    0.00000    1.52020    1.36830  # c_1,c1,o_2,c_1
dihedral_coeff	13 ebt    0.00000    0.00000    0.00000    0.00000    0.00000    0.00000    1.36830    1.10100  # c_1,o_2,c1,hc
dihedral_coeff	14 ebt    0.21300    0.31200    0.07770    0.21300    0.31200    0.07770    1.10100    1.10100  # hc,c,c,hc
dihedral_coeff	15 ebt    0.21300    0.31200    0.07770    0.21300    0.31200    0.07770    1.10100    1.10100  # hc,c,c1,hc
dihedral_coeff	16 ebt    0.00000    0.00000    0.00000    0.00000    0.00000    0.00000    1.10100    1.43000  # hc,c,c1,o_2
dihedral_coeff	17 ebt    1.21430    0.28310    0.39160   -0.22980    0.03540    0.38530    1.10100    1.20200  # hc,c,c_1,o_1
dihedral_coeff	18 ebt    0.00000    0.00000    0.00000    0.00000    0.00000    0.00000    1.10100    1.36830  # hc,c,c_1,o_2
dihedral_coeff	19 ebt    1.21430    0.28310    0.39160   -0.22980    0.03540    0.38530    1.10100    1.20200  # hc,c1,c_1,o_1
dihedral_coeff	20 ebt    0.00000    0.00000    0.00000    0.00000    0.00000    0.00000    1.10100    1.36830  # hc,c1,c_1,o_2
dihedral_coeff	21 ebt    0.00000    0.00000    0.00000    0.00000    0.00000    0.00000    0.95200    1.20200  # ho2,o_2,c_1,o_1
dihedral_coeff	22 ebt    0.00000    0.00000    0.00000    0.00000    0.00000    0.00000    1.20200    1.43000  # o_1,c_1,c1,o_2
dihedral_coeff	23 ebt    0.00000    0.00000    0.00000    0.00000    0.00000    0.00000    1.43000    1.36830  # o_2,c1,c_1,o_2

# AngleTorsion Coeffs

dihedral_coeff	 1 at    0.08850   -1.37030   -0.54520    0.67500    0.59650    0.67250  108.52950  123.14510  # c,c,c_1,o_1
dihedral_coeff	 2 at    0.00000    0.00000    0.00000    0.00000    0.00000    0.00000  108.52950  100.31820  # c,c,c_1,o_2
dihedral_coeff	 3 at    0.08850   -1.37030   -0.54520    0.67500    0.59650    0.67250  108.52950  123.14510  # c,c1,c_1,o_1
dihedral_coeff	 4 at    0.00000    0.00000    0.00000    0.00000    0.00000    0.00000  108.52950  100.31820  # c,c1,c_1,o_2
dihedral_coeff	 5 at    0.00000    0.00000    0.00000    0.00000    0.00000    0.00000  107.41000  113.28800  # c,c1,o_2,c_1
dihedral_coeff	 6 at    0.00000    0.00000    0.00000    0.00000    0.00000    0.00000  100.31820  113.28800  # c,c_1,o_2,c1
dihedral_coeff	 7 at    0.00000    0.00000    0.00000    0.00000    0.00000    0.00000  100.31820  113.28800  # c1,c_1,o_2,c1
dihedral_coeff	 8 at    0.00000    0.00000    0.00000    0.00000    0.00000    0.00000  100.31820  112.87400  # c1,c_1,o_2,ho2
dihedral_coeff	 9 at    0.00000    0.00000    0.00000    0.00000    0.00000    0.00000  113.28800  120.79700  # c1,o_2,c_1,o_1
dihedral_coeff	10 at   -0.74660   -0.94480   -0.63210    0.01620    1.42110   -1.40920  108.52950  110.77000  # c_1,c,c,hc
dihedral_coeff	11 at   -0.74660   -0.94480   -0.63210    0.01620    1.42110   -1.40920  108.52950  110.77000  # c_1,c1,c,hc
dihedral_coeff	12 at    0.00000    0.00000    0.00000    0.00000    0.00000    0.00000  109.50000  113.28800  # c_1,c1,o_2,c_1
dihedral_coeff	13 at    0.00000    0.00000    0.00000    0.00000    0.00000    0.00000  113.28800  107.68800  # c_1,o_2,c1,hc
dihedral_coeff	14 at   -0.80850    0.55690   -0.24660   -0.80850    0.55690   -0.24660  110.77000  110.77000  # hc,c,c,hc
dihedral_coeff	15 at   -0.80850    0.55690   -0.24660   -0.80850    0.55690   -0.24660  110.77000  110.77000  # hc,c,c1,hc
dihedral_coeff	16 at    0.00000    0.00000    0.00000    0.00000    0.00000    0.00000  110.77000  107.41000  # hc,c,c1,o_2
dihedral_coeff	17 at    9.12990   -0.48470    0.35820   -1.49460    0.73080   -0.20830  107.73360  123.14510  # hc,c,c_1,o_1
dihedral_coeff	18 at    0.00000    0.00000    0.00000    0.00000    0.00000    0.00000  107.73360  100.31820  # hc,c,c_1,o_2
dihedral_coeff	19 at    9.12990   -0.48470    0.35820   -1.49460    0.73080   -0.20830  107.73360  123.14510  # hc,c1,c_1,o_1
dihedral_coeff	20 at    0.00000    0.00000    0.00000    0.00000    0.00000    0.00000  107.73360  100.31820  # hc,c1,c_1,o_2
dihedral_coeff	21 at    0.00000    0.00000    0.00000    0.00000    0.00000    0.00000  112.87400  120.79700  # ho2,o_2,c_1,o_1
dihedral_coeff	22 at    0.00000    0.00000    0.00000    0.00000    0.00000    0.00000  123.14510  109.50000  # o_1,c_1,c1,o_2
dihedral_coeff	23 at    0.00000    0.00000    0.00000    0.00000    0.00000    0.00000  109.50000  100.31820  # o_2,c1,c_1,o_2

# AngleAngleTorsion Coeffs

dihedral_coeff	 1 aat   -8.01900  108.52950  123.14510  # c,c,c_1,o_1
dihedral_coeff	 2 aat    0.00000  108.52950  100.31820  # c,c,c_1,o_2
dihedral_coeff	 3 aat   -8.01900  108.52950  123.14510  # c,c1,c_1,o_1
dihedral_coeff	 4 aat    0.00000  108.52950  100.31820  # c,c1,c_1,o_2
dihedral_coeff	 5 aat    0.00000  107.41000  113.28800  # c,c1,o_2,c_1
dihedral_coeff	 6 aat    0.00000  100.31820  113.28800  # c,c_1,o_2,c1
dihedral_coeff	 7 aat    0.00000  100.31820  113.28800  # c1,c_1,o_2,c1
dihedral_coeff	 8 aat    0.00000  100.31820  112.87400  # c1,c_1,o_2,ho2
dihedral_coeff	 9 aat    0.00000  113.28800  120.79700  # c1,o_2,c_1,o_1
dihedral_coeff	10 aat   -5.36240  108.52950  110.77000  # c_1,c,c,hc
dihedral_coeff	11 aat   -5.36240  108.52950  110.77000  # c_1,c1,c,hc
dihedral_coeff	12 aat    0.00000  109.50000  113.28800  # c_1,c1,o_2,c_1
dihedral_coeff	13 aat    0.00000  113.28800  107.68800  # c_1,o_2,c1,hc
dihedral_coeff	14 aat  -12.56400  110.77000  110.77000  # hc,c,c,hc
dihedral_coeff	15 aat  -12.56400  110.77000  110.77000  # hc,c,c1,hc
dihedral_coeff	16 aat    0.00000  110.77000  107.41000  # hc,c,c1,o_2
dihedral_coeff	17 aat  -15.34960  107.73360  123.14510  # hc,c,c_1,o_1
dihedral_coeff	18 aat    0.00000  107.73360  100.31820  # hc,c,c_1,o_2
dihedral_coeff	19 aat  -15.34960  107.73360  123.14510  # hc,c1,c_1,o_1
dihedral_coeff	20 aat    0.00000  107.73360  100.31820  # hc,c1,c_1,o_2
dihedral_coeff	21 aat    0.00000  112.87400  120.79700  # ho2,o_2,c_1,o_1
dihedral_coeff	22 aat    0.00000  123.14510  109.50000  # o_1,c_1,c1,o_2
dihedral_coeff	23 aat    0.00000  109.50000  100.31820  # o_2,c1,c_1,o_2

# BondBond13 Coeffs

dihedral_coeff	 1 bb13    0.00000    1.53000    1.20200  # c,c,c_1,o_1
dihedral_coeff	 2 bb13    0.00000    1.53000    1.36830  # c,c,c_1,o_2
dihedral_coeff	 3 bb13    0.00000    1.53000    1.20200  # c,c1,c_1,o_1
dihedral_coeff	 4 bb13    0.00000    1.53000    1.36830  # c,c1,c_1,o_2
dihedral_coeff	 5 bb13    0.00000    1.53000    1.36830  # c,c1,o_2,c_1
dihedral_coeff	 6 bb13    0.00000    1.52020    1.43000  # c,c_1,o_2,c1
dihedral_coeff	 7 bb13    0.00000    1.52020    1.43000  # c1,c_1,o_2,c1
dihedral_coeff	 8 bb13    0.00000    1.52020    0.95200  # c1,c_1,o_2,ho2
dihedral_coeff	 9 bb13    0.00000    1.43000    1.20200  # c1,o_2,c_1,o_1
dihedral_coeff	10 bb13    0.00000    1.52020    1.10100  # c_1,c,c,hc
dihedral_coeff	11 bb13    0.00000    1.52020    1.10100  # c_1,c1,c,hc
dihedral_coeff	12 bb13    0.00000    1.52020    1.36830  # c_1,c1,o_2,c_1
dihedral_coeff	13 bb13    0.00000    1.36830    1.10100  # c_1,o_2,c1,hc
dihedral_coeff	14 bb13    0.00000    1.10100    1.10100  # hc,c,c,hc
dihedral_coeff	15 bb13    0.00000    1.10100    1.10100  # hc,c,c1,hc
dihedral_coeff	16 bb13    0.00000    1.10100    1.43000  # hc,c,c1,o_2
dihedral_coeff	17 bb13    0.00000    1.10100    1.20200  # hc,c,c_1,o_1
dihedral_coeff	18 bb13    0.00000    1.10100    1.36830  # hc,c,c_1,o_2
dihedral_coeff	19 bb13    0.00000    1.10100    1.20200  # hc,c1,c_1,o_1
dihedral_coeff	20 bb13    0.00000    1.10100    1.36830  # hc,c1,c_1,o_2
dihedral_coeff	21 bb13    0.00000    0.95200    1.20200  # ho2,o_2,c_1,o_1
dihedral_coeff	22 bb13    0.00000    1.20200    1.43000  # o_1,c_1,c1,o_2
dihedral_coeff	23 bb13    0.00000    1.43000    1.36830  # o_2,c1,c_1,o_2

# Improper Coeffs

improper_coeff	 1    0.00000    0.00000  # c,c,hc,c_1
improper_coeff	 2    0.00000    0.00000  # c,c,hc,hc
improper_coeff	 3    0.00000    0.00000  # c,c1,hc,hc
improper_coeff	 4    0.00000    0.00000  # c,c_1,hc,hc
improper_coeff	 5    0.00000    0.00000  # c,hc,hc,hc
improper_coeff	 6    0.00000    0.00000  # c1,c,hc,c_1
improper_coeff	 7    0.00000    0.00000  # c1,c,hc,o_2
improper_coeff	 8    0.00000    0.00000  # c1,c,o_2,c_1
improper_coeff	 9    0.00000    0.00000  # c1,c_1,hc,o_2
improper_coeff	10   46.92640    0.00000  # c_1,c,o_2,o_1
improper_coeff	11   46.92640    0.00000  # c_1,c1,o_2,o_1

# AngleAngle Coeffs

improper_coeff	 1 aa    1.08270   -1.82020    2.04030  110.77000  108.52950  107.73360  # c,c,hc,c_1
improper_coeff	 2 aa    0.27380   -0.48250    0.27380  110.77000  110.77000  107.66000  # c,c,hc,hc
improper_coeff	 3 aa    0.27380   -0.48250    0.27380  110.77000  110.77000  107.66000  # c,c1,hc,hc
improper_coeff	 4 aa   -3.38670   -3.49760   -3.38670  107.73360  107.73360  107.66000  # c,c_1,hc,hc
improper_coeff	 5 aa   -0.31570   -0.31570   -0.31570  107.66000  107.66000  107.66000  # c,hc,hc,hc
improper_coeff	 6 aa    1.08270   -1.82020    2.04030  110.77000  108.52950  107.73360  # c1,c,hc,c_1
improper_coeff	 7 aa    0.00000    0.00000    0.00000  110.77000  107.41000  107.68800  # c1,c,hc,o_2
improper_coeff	 8 aa    0.00000    0.00000    0.00000  107.41000  108.52950  109.50000  # c1,c,o_2,c_1
improper_coeff	 9 aa    0.00000    0.00000    0.00000  107.73360  109.50000  107.68800  # c1,c_1,hc,o_2
improper_coeff	10 aa    0.00000    0.00000    0.00000  100.31820  123.14510  120.79700  # c_1,c,o_2,o_1
improper_coeff	11 aa    0.00000    0.00000    0.00000  100.31820  123.14510  120.79700  # c_1,c1,o_2,o_1


# --- Thermo Output ---
thermo_style custom step time temp press enthalpy etotal ke pe ebond eangle edihed eimp evdwl ecoul elong etail vol lx ly lz density pxx pyy pzz
thermo_modify flush yes
thermo 1000

# --- Trajectory ---
dump dump_nvt all custom 1000 nvt_softheat.dump id type mol x y z ix iy iz vx vy vz

# --- Restart Checkpointing ---
restart 10000 nvt_1.rst nvt_2.rst

# --- Initial Velocities (optional) ---
velocity all create 300.0 125625 mom yes rot yes dist gaussian

# --- SHAKE Constraints ---
# Constrains H-X bonds to allow 2fs timestep
# SHAKE disabled

# --- NVT Thermostat (Nose-Hoover) ---
# T_damp = 50.0 fs  (coupling timescale for heat exchange)
# Ramp: 300.0 K -> 700.0 K over 300000 steps
timestep 0.5
fix nvt_fix all nvt temp 300.0 700.0 50.0

run 300000
PPPM Kokkos initialization ...
  using 12-bit tables for long-range coulomb
  G vector (1/distance) = 0.33126545
  grid = 48 48 48
  stencil order = 5
  estimated absolute RMS force accuracy = 0.00036388948
  estimated relative force accuracy = 1.0958424e-06
  using double precision cuFFT
  3d grid and FFT values/proc = 166375 110592
Generated 21 of 21 mixed pair_coeff terms from sixthpower/sixthpower mixing rule
Neighbor list info ...
  update: every = 1 steps, delay = 0 steps, check = yes
  max neighbors/atom: 4000, page size: 100000
  master list distance cutoff = 11.5
  ghost atom cutoff = 11.5
  binsize = 11.5, bins = 4 4 4
  1 neighbor lists, perpetual/occasional/extra = 1 0 0
  (1) pair lj/class2/coul/long/kk, perpetual
      attributes: full, newton off, kokkos_device
      pair build: full/bin/kk/device
      stencil: full/bin/3d
      bin: kk/device
Per MPI rank memory allocation (min/avg/max) = 35.87 | 35.87 | 35.87 Mbytes
   Step          Time           Temp          Press         Enthalpy        TotEng         KinEng         PotEng         E_bond        E_angle        E_dihed        E_impro         E_vdwl         E_coul         E_long         E_tail         Volume           Lx             Ly             Lz          Density          Pxx            Pyy            Pzz      
         0   0              300            1313.583       15967.953      14147.523      4041.0842      10106.439      545.16279      1980.1646     -3581.3581      11.84122      -1957.8643      44000.93      -30892.438     -199.02368      95025.593      45.633123      45.633123      45.633123      0.62999999     1309.6777      1358.1308      1272.9405    
      1000   500            308.4372       304.57356      18997.32       18575.226      4154.7357      14420.491      2123.187       3777.2686     -3278.0553      163.28079     -1543.4673      44045.745     -30867.468     -199.02368      95025.593      45.633123      45.633123      45.633123      0.62999999     741.06538     -539.75546      712.41076    
      2000   1000           304.71959     -964.96516      17075.189      18412.487      4104.6583      14307.828      2096.0501      3783.1566     -3359.664       161.23237     -1502.4984      43994.086     -30864.534     -199.02368      95025.593      45.633123      45.633123      45.633123      0.62999999    -1905.234      -450.91771     -538.74372    
      3000   1500           297.83592     -628.05666      17376.422      18246.814      4011.9334      14234.881      2045.4946      3710.7209     -3323.2256      166.39261     -1451.4691      43964.367     -30877.4       -199.02368      95025.593      45.633123      45.633123      45.633123      0.62999999    -908.62873     -430.81733     -544.72393    
      4000   2000           307.39894     -378.05137      17876.938      18400.86       4140.75        14260.11       2091.7955      3705.4184     -3387.0868      172.63007     -1462.8683      44010.287     -30870.066     -199.02368      95025.593      45.633123      45.633123      45.633123      0.62999999    -887.87828     -244.52867     -1.7471662    
      5000   2500           308.04752     -232.95932      18120.293      18443.14       4149.4866      14293.654      2144.4591      3670.1182     -3350.7978      175.46342     -1486.7646      44005.784     -30864.609     -199.02368      95025.593      45.633123      45.633123      45.633123      0.62999999     35.790981     -814.34685      79.677925    
      6000   3000           307.11595     -73.180239      18282.408      18383.825      4136.938       14246.887      2158.071       3630.5344     -3432.1328      155.81886     -1434.6996      44032.402     -30863.107     -199.02368      95025.593      45.633123      45.633123      45.633123      0.62999999    -191.81466     -538.63467      510.90861    
      7000   3500           310.75032     -1008.7621      17072.88       18470.874      4185.894       14284.98       2148.5955      3694.7331     -3391.2173      145.93888     -1449.1495      43996.427     -30860.348     -199.02368      95025.593      45.633123      45.633123      45.633123      0.62999999    -1056.5252     -779.18962     -1190.5715    
      8000   4000           309.23542     -393.37007      17953.764      18498.916      4165.4879      14333.428      2094.9126      3772.262      -3360.5775      148.23984     -1482.0038      44030.53      -30869.935     -199.02368      95025.593      45.633123      45.633123      45.633123      0.62999999    -111.81167     -486.92579     -581.37275    
      9000   4500           316.91732     -329.78557      18222.434      18679.467      4268.9652      14410.502      2114.2297      3762.7633     -3381.8745      193.13101     -1428.2383      44021.912     -30871.421     -199.02368      95025.593      45.633123      45.633123      45.633123      0.62999999    -253.03911     -244.3318      -491.98579    
     10000   5000           311.32434     -311.73935      18045.367      18477.391      4193.6263      14283.765      2126.2094      3734.8118     -3388.3897      151.77446     -1455.8047      43980.266     -30865.103     -199.02368      95025.593      45.633123      45.633123      45.633123      0.62999999     87.322706     -381.0715      -641.46925    
     11000   5500           324.10137     -679.50825      17857.7        18799.397      4365.7364      14433.661      2225.4406      3787.1816     -3428.8608      175.92744     -1441.9523      43988.645     -30872.721     -199.02368      95025.593      45.633123      45.633123      45.633123      0.62999999    -1327.9604     -827.18315      116.61882    
     12000   6000           316.72305     -130.48126      18382.25       18563.077      4266.3484      14296.729      2168.1106      3776.4822     -3456.6914      151.63209     -1461.2804      43981.645     -30863.169     -199.02368      95025.593      45.633123      45.633123      45.633123      0.62999999     282.57434     -105.94351     -568.07462    
     13000   6500           321.51427     -1247.6568      16912.737      18641.804      4330.8875      14310.916      2192.1571      3784.9677     -3448.0613      166.66983     -1489.6961      43970.286     -30865.407     -199.02368      95025.593      45.633123      45.633123      45.633123      0.62999999    -1851.6238     -1660.5967     -230.74985    
     14000   7000           323.3711      -553.30129      17939.257      18706.05       4355.8994      14350.15       2145.804       3808.1055     -3436.0358      164.79516     -1485.3535      44025.507     -30872.672     -199.02368      95025.593      45.633123      45.633123      45.633123      0.62999999     417.66962     -410.10642     -1667.4671    
     15000   7500           323.31488     -759.63888      17585.055      18637.801      4355.1422      14282.659      2203.8548      3782.5938     -3528.4304      208.89061     -1508.001       44001.082     -30877.331     -199.02368      95025.593      45.633123      45.633123      45.633123      0.62999999    -892.70636     -869.14369     -517.06659    
     16000   8000           320.07704     -699.43995      17729.977      18699.296      4311.5276      14387.769      2226.8571      3833.8705     -3446.851       155.86927     -1508.2545      43996.415     -30870.138     -199.02368      95025.593      45.633123      45.633123      45.633123      0.62999999    -314.15615     -734.34461     -1049.8191    
     17000   8500           314.20057     -184.65383      18302.618      18558.521      4232.3698      14326.151      2241.0464      3802.7877     -3546.2409      158.78861     -1461.896       43998.351     -30866.686     -199.02368      95025.593      45.633123      45.633123      45.633123      0.62999999    -908.75685      217.25147      137.54388    
     18000   9000           316.40715     -984.11385      17309.628      18673.463      4262.0932      14411.37       2211.9341      3829.1285     -3432.0588      162.14678     -1456.3255      43972.81      -30876.266     -199.02368      95025.593      45.633123      45.633123      45.633123      0.62999999    -754.85589     -1378.7514     -818.73427    
     19000   9500           331.64568     -411.77549      18307.586      18878.245      4467.3604      14410.885      2225.7963      3928.1349     -3494.652       179.14299     -1536.1547      43984.2       -30875.583     -199.02368      95025.593      45.633123      45.633123      45.633123      0.62999999     122.37103     -1268.4179     -89.27954     
     20000   10000          324.88307     -109.79652      18597.55       18749.711      4376.2661      14373.445      2217.3916      3776.3769     -3459.4505      175.03439     -1440.5981      43979.761     -30875.071     -199.02368      95025.593      45.633123      45.633123      45.633123      0.62999999    -1200.2246      699.21847      171.61657    
     21000   10500          331.08914      52.291769      18850.285      18777.816      4459.8636      14317.952      2200.2921      3772.0914     -3486.9836      138.00616     -1412.8196      43983.566     -30876.201     -199.02368      95025.593      45.633123      45.633123      45.633123      0.62999999     1239.9801     -953.12301     -129.98178    
     22000   11000          329.7469      -312.12601      18342.037      18774.597      4441.7832      14332.813      2177.2255      3856.6945     -3470.6493      170.63046     -1513.0372      43991.643     -30879.693     -199.02368      95025.593      45.633123      45.633123      45.633123      0.62999999    -171.21531     -768.01672      2.8540146    
     23000   11500          332.11675     -799.85542      17726.993      18835.473      4473.7058      14361.768      2230.4659      3795.0764     -3485.203       171.13199     -1469.9697      43995.307     -30875.041     -199.02368      95025.593      45.633123      45.633123      45.633123      0.62999999    -1328.8389     -231.65296     -839.07445    
     24000   12000          346.43481     -1078.1991      17641.493      19135.716      4666.5741      14469.142      2273.5206      3872.7544     -3438.5309      167.99846     -1506.1696      43985.073     -30885.504     -199.02368      95025.593      45.633123      45.633123      45.633123      0.62999999    -683.61915     -1452.2406     -1098.7377    
     25000   12500          334.88476     -712.71496      17880.308      18868.025      4510.9917      14357.033      2206.9299      3857.6566     -3433.3058      175.72742     -1523.6199      43964.272     -30890.627     -199.02368      95025.593      45.633123      45.633123      45.633123      0.62999999    -901.23593     -490.0879      -746.82104    
     26000   13000          341.70163     -839.66295      17910.416      19074.063      4602.8168      14471.246      2315.3619      3826.8097     -3463.2588      169.64159     -1466.6854      43978.079     -30888.702     -199.02368      95025.593      45.633123      45.633123      45.633123      0.62999999    -924.25891     -529.02099     -1065.709     
     27000   13500          330.75921     -273.75189      18617.228      18996.607      4455.4194      14541.188      2314.8039      3898.9485     -3515.3703      182.75224     -1432.7807      43969.504     -30876.67      -199.02368      95025.593      45.633123      45.633123      45.633123      0.62999999    -29.750429      681.07336     -1472.5786    
     28000   14000          331.65374      446.36796      19493.76       18875.161      4467.469       14407.692      2211.4711      3864.7608     -3538.349       162.42931     -1374.3606      43957.892     -30876.151     -199.02368      95025.593      45.633123      45.633123      45.633123      0.62999999    -633.62993      1626.6975      346.0363     
     29000   14500          344.22866     -566.22484      18327.585      19112.288      4636.8566      14475.431      2290.0019      3842.118      -3516.0593      175.77675     -1405.7937      43975.774     -30886.386     -199.02368      95025.593      45.633123      45.633123      45.633123      0.62999999    -105.46248     -80.001852     -1513.2102    
     30000   15000          339.40022      62.383374      19016.073      18929.619      4571.8162      14357.803      2220.6754      3851.2533     -3531.4697      171.46363     -1417.5974      43954.51      -30891.032     -199.02368      95025.593      45.633123      45.633123      45.633123      0.62999999     479.91675     -801.64411      508.87748    
     31000   15500          343.74338      485.45562      19732.67       19059.901      4630.3197      14429.581      2213.4769      3830.2288     -3442.4888      163.60074     -1472.9969      44015.625     -30877.864     -199.02368      95025.593      45.633123      45.633123      45.633123      0.62999999    -478.178        1156.9076      777.63729    
     32000   16000          349.90008     -975.35699      17911.719      19263.418      4713.2522      14550.166      2301.5313      3960.3932     -3475.9458      158.17868     -1492.709       43980.72      -30882.003     -199.02368      95025.593      45.633123      45.633123      45.633123      0.62999999    -900.21723     -1237.9528     -787.90088    
     33000   16500          344.95019     -1443.6107      17096.846      19097.475      4646.5759      14450.899      2324.2046      3888.1941     -3487.3685      164.66897     -1510.6504      43952.747     -30880.897     -199.02368      95025.593      45.633123      45.633123      45.633123      0.62999999    -1471.8809     -1621.6133     -1237.3379    
     34000   17000          348.57673     -402.61489      18685.41       19243.374      4695.4264      14547.948      2328.9201      4004.8783     -3473.324       186.401       -1566.195       43953.141     -30885.873     -199.02368      95025.593      45.633123      45.633123      45.633123      0.62999999    -896.41416     -623.74855      312.31803    
     35000   17500          349.09225     -563.97689      18458.333      19239.921      4702.3706      14537.55       2357.456       3980.1363     -3495.3445      163.35783     -1555.6328      43978.429     -30890.852     -199.02368      95025.593      45.633123      45.633123      45.633123      0.62999999    -373.80141     -423.67473     -894.45453    
     36000   18000          349.39979      364.04749      19696.248      19191.733      4706.5132      14485.22       2281.2052      3948.9234     -3464.2693      165.66922     -1524.003       43965.787     -30888.093     -199.02368      95025.593      45.633123      45.633123      45.633123      0.62999999     429.12038      865.01436     -201.99226    
     37000   18500          350.16913     -58.077255      19124.073      19204.56       4716.8764      14487.684      2334.2242      3908.6317     -3483.1389      190.50243     -1524.6646      43948.579     -30886.45      -199.02368      95025.593      45.633123      45.633123      45.633123      0.62999999     494.69283      525.39623     -1194.3208    
     38000   19000          348.70149     -631.94721      18368.248      19244.033      4697.1069      14546.926      2299.1032      4026.2227     -3443.1454      157.78436     -1541.3091      43937.458     -30889.188     -199.02368      95025.593      45.633123      45.633123      45.633123      0.62999999    -249.27307     -1336.5792     -309.9894     
     39000   19500          349.78828      158.0457       19453.382      19234.354      4711.7463      14522.608      2396.1163      3948.3304     -3522.2749      162.1083      -1506.199       43933.005     -30888.478     -199.02368      95025.593      45.633123      45.633123      45.633123      0.62999999     85.944619      1095.1014     -706.90895    
     40000   20000          358.32918     -345.33763      18958.92       19437.506      4826.7945      14610.711      2359.6118      4040.3861     -3457.3114      162.61157     -1595.8462      43977.166     -30875.906     -199.02368      95025.593      45.633123      45.633123      45.633123      0.62999999    -257.58041     -59.365108     -719.06736    
     41000   20500          351.32935     -1659.6465      16965.289      19265.311      4732.5049      14532.806      2398.3681      3940.5688     -3524.2304      170.42397     -1525.0916      43945.94      -30873.173     -199.02368      95025.593      45.633123      45.633123      45.633123      0.62999999    -1167.5939     -1954.8287     -1856.5168    
     42000   21000          357.03274     -270.95119      19088.945      19464.443      4809.3312      14655.111      2365.4294      4023.8934     -3474.1978      195.38779     -1507.1296      43935.921     -30884.193     -199.02368      95025.593      45.633123      45.633123      45.633123      0.62999999    -1028.945       56.898229      159.19325    
     43000   21500          356.44055      402.67691      20009.426      19451.376      4801.3542      14650.022      2391.0919      3949.3784     -3536.0868      172.15847     -1410.4463      43961.12      -30877.193     -199.02368      95025.593      45.633123      45.633123      45.633123      0.62999999    -326.2039       228.38834      1305.8463    
     44000   22000          361.41149      84.254534      19610.73       19493.966      4868.3142      14625.651      2368.5894      3989.8119     -3493.9089      182.64317     -1510.1929      43967.938     -30879.229     -199.02368      95025.593      45.633123      45.633123      45.633123      0.62999999     973.41454     -358.82047     -361.83046    
     45000   22500          360.55466     -655.82778      18661.11       19569.99       4856.7724      14713.217      2388.7545      4057.4725     -3536.7227      183.15878     -1503.7823      43998.33      -30873.994     -199.02368      95025.593      45.633123      45.633123      45.633123      0.62999999    -1390.1385     -411.60618     -165.73862    
     46000   23000          362.087       -2030.9326      16677.227      19491.796      4877.4134      14614.383      2324.0409      4075.5448     -3548.7126      179.42126     -1488.1904      43954.604     -30882.325     -199.02368      95025.593      45.633123      45.633123      45.633123      0.62999999    -2117.6235     -2042.7335     -1932.4409    
     47000   23500          363.66893     -365.43064      19058.322      19564.754      4898.7225      14666.031      2431.2714      4008.0726     -3539.6975      160.90125     -1503.0572      43981.376     -30872.835     -199.02368      95025.593      45.633123      45.633123      45.633123      0.62999999    -774.28448     -930.74497      608.73754    
     48000   24000          365.64374     -26.40968       19538.904      19575.504      4925.3238      14650.18       2446.5508      3961.2401     -3530.9702      180.52446     -1467.2043      43941.224     -30881.185     -199.02368      95025.593      45.633123      45.633123      45.633123      0.62999999    -698.27863     -541.90445      1160.954     
     49000   24500          370.92015     -547.61752      18984.106      19743.022      4996.3985      14746.624      2350.5246      4037.67       -3473.6589      164.86277     -1464.1725      44000.492     -30869.094     -199.02368      95025.593      45.633123      45.633123      45.633123      0.62999999    -810.58223     -310.10617     -522.16416    
     50000   25000          365.03958     -704.75165      18652.931      19629.612      4917.1855      14712.426      2437.5084      4086.6875     -3567.7953      194.97833     -1503.1465      43940.11      -30875.916     -199.02368      95025.593      45.633123      45.633123      45.633123      0.62999999    -557.13592     -700.8866      -856.23242    
     51000   25500          370.70574     -1746.2759      17306.236      19726.314      4993.5104      14732.804      2489.0025      4051.1062     -3543.2483      158.74035     -1441.0627      43902.286     -30884.02      -199.02368      95025.593      45.633123      45.633123      45.633123      0.62999999    -2093.9983     -1852.9875     -1291.842     
     52000   26000          370.09047     -1087.1431      18228.455      19735.073      4985.2225      14749.851      2417.1735      4016.874      -3525.6161      194.19749     -1411.0327      43938.454     -30880.2       -199.02368      95025.593      45.633123      45.633123      45.633123      0.62999999    -500.56615     -1248.8907     -1511.9723    
     53000   26500          371.21509     -623.51261      18894.063      19758.158      5000.3714      14757.787      2442.6838      4010.6027     -3562.5186      184.07323     -1405.8501      43970.291     -30881.495     -199.02368      95025.593      45.633123      45.633123      45.633123      0.62999999     742.44647     -2499.7049     -113.27937    
     54000   27000          370.00792     -630.67981      18921.441      19795.469      4984.1106      14811.358      2441.7645      4137.4521     -3571.9741      178.26993     -1475.5846      43978.141     -30876.711     -199.02368      95025.593      45.633123      45.633123      45.633123      0.62999999    -807.55888     -510.68504     -573.79551    
     55000   27500          381.66523     -798.41541      18910.498      20016.982      5141.1377      14875.845      2458.5752      4098.7463     -3473.7219      177.86308     -1436.5996      43943.19      -30892.208     -199.02368      95025.593      45.633123      45.633123      45.633123      0.62999999    -2129.8283      477.79105     -743.20899    
     56000   28000          375.72866     -85.612938      19712.171      19830.818      5061.1705      14769.648      2333.9793      4135.7703     -3567.2087      189.17875     -1420.591       43985.169     -30886.65      -199.02368      95025.593      45.633123      45.633123      45.633123      0.62999999     587.32172     -55.123953     -789.03658    
     57000   28500          382.48385      54.498578      20101.197      20025.671      5152.1648      14873.506      2517.7671      4083.5724     -3527.6005      168.75101     -1441.3265      43956.86      -30884.517     -199.02368      95025.593      45.633123      45.633123      45.633123      0.62999999     132.46624     -284.57773      315.60722    
     58000   29000          383.40153      261.71911      20343.285      19980.581      5164.5262      14816.055      2432.1169      4129.8602     -3614.1287      163.76902     -1394.6108      43982.579     -30883.53      -199.02368      95025.593      45.633123      45.633123      45.633123      0.62999999     9.3344152     -83.175346      858.99826    
     59000   29500          376.09296     -1400.3819      17995.181      19935.902      5066.0778      14869.824      2520.5878      4177.5468     -3571.8652      175.93323     -1508.3998      43955.746     -30879.725     -199.02368      95025.593      45.633123      45.633123      45.633123      0.62999999    -1416.0569     -1900.5371     -884.55177    
     60000   30000          375.09796     -492.02889      19369.687      20051.566      5052.6747      14998.891      2475.2793      4244.5638     -3574.4134      193.1531      -1449.1089      43993.46      -30884.043     -199.02368      95025.593      45.633123      45.633123      45.633123      0.62999999    -1274.1192     -330.6301       128.66263    
     61000   30500          389.20893     -863.61293      19017.838      20214.677      5242.7535      14971.924      2493.1876      4141.3246     -3585.6408      201.19646     -1371.6992      43971.785     -30878.23      -199.02368      95025.593      45.633123      45.633123      45.633123      0.62999999    -401.83183     -1413.609      -775.39799    
     62000   31000          382.24464     -680.01349      19119.589      20061.987      5148.9425      14913.044      2514.5344      4157.5602     -3594.4339      199.09303     -1397.5001      43922.159     -30888.368     -199.02368      95025.593      45.633123      45.633123      45.633123      0.62999999     484.01302     -979.80003     -1544.2535    
     63000   31500          381.70713     -945.48353      18803.156      20113.455      5141.7022      14971.753      2617.2432      4122.0109     -3584.6069      229.25686     -1505.2039      43972.923     -30879.871     -199.02368      95025.593      45.633123      45.633123      45.633123      0.62999999    -1396.8745     -627.18305     -812.39307    
     64000   32000          387.21295      42.752573      20274.699      20215.45       5215.8671      14999.583      2505.9986      4203.955      -3521.2084      184.11321     -1415.4624      43921.86      -30879.673     -199.02368      95025.593      45.633123      45.633123      45.633123      0.62999999     332.05203      641.84118     -845.63549    
     65000   32500          386.3475      -470.13446      19407.434      20058.97       5204.2092      14854.761      2513.5961      4084.0028     -3563.1098      195.64603     -1413.929       43925.963     -30887.408     -199.02368      95025.593      45.633123      45.633123      45.633123      0.62999999    -53.358435     -152.92521     -1204.1197    
     66000   33000          391.10361     -1303.7978      18430.968      20237.837      5268.2754      14969.562      2574.4794      4171.5749     -3526.4748      219.93951     -1471.3524      43888.71      -30887.315     -199.02368      95025.593      45.633123      45.633123      45.633123      0.62999999    -1282.5848     -2011.7896     -617.01884    
     67000   33500          386.39363     -1232.8967      18502.625      20211.236      5204.8307      15006.405      2535.0808      4185.234      -3543.8543      196.92856     -1441.1208      43955.699     -30881.562     -199.02368      95025.593      45.633123      45.633123      45.633123      0.62999999    -1068.9642     -2208.4868     -421.23915    
     68000   34000          383.59176      218.13213      20437.316      20135.017      5167.0886      14967.928      2538.7371      4210.7282     -3566.9378      190.3577      -1417.7182      43905.385     -30892.624     -199.02368      95025.593      45.633123      45.633123      45.633123      0.62999999    -424.23131      77.767701      1000.86      
     69000   34500          390.83631     -673.27775      19324.568      20257.631      5264.6748      14992.956      2561.8524      4181.0251     -3557.7229      191.37006     -1409.2581      43909.496     -30883.807     -199.02368      95025.593      45.633123      45.633123      45.633123      0.62999999    -845.3246       510.72101     -1685.2297    
     70000   35000          391.79567     -1142.0354      18773.384      20356.074      5277.5976      15078.477      2661.6412      4189.2125     -3580.721       207.23831     -1390.0885      43875.688     -30884.494     -199.02368      95025.593      45.633123      45.633123      45.633123      0.62999999    -421.47921     -2363.2231     -641.40374    
     71000   35500          389.85247     -1075.255       18818.502      20308.646      5251.4222      15057.223      2627.2576      4289.5652     -3606.5489      168.43499     -1412.7504      43877.296     -30886.031     -199.02368      95025.593      45.633123      45.633123      45.633123      0.62999999    -1884.0165      135.09377     -1476.8424    
     72000   36000          390.05989     -1051.5327      18869.928      20327.196      5254.2161      15072.98       2609.0217      4286.0521     -3586.2183      200.30446     -1452.389       43898.595     -30882.387     -199.02368      95025.593      45.633123      45.633123      45.633123      0.62999999    -1978.2032     -1009.1965     -167.19837    
     73000   36500          395.62504     -773.37557      19355.924      20427.707      5329.1803      15098.527      2696.8835      4243.3443     -3613.4243      197.76066     -1443.595       43898.222     -30880.664     -199.02368      95025.593      45.633123      45.633123      45.633123      0.62999999    -1997.4905     -324.26417      1.6279046    
     74000   37000          391.1967      -1196.6868      18686.452      20344.881      5269.5293      15075.352      2641.257       4183.8161     -3588.6602      213.09896     -1395.4886      43898.02      -30876.691     -199.02368      95025.593      45.633123      45.633123      45.633123      0.62999999    -1314.4086     -1024.207      -1251.445     
     75000   37500          398.00896     -420.09339      19893.984      20476.171      5361.2924      15114.879      2674.0172      4231.5623     -3553.8666      218.93691     -1421.7401      43855.003     -30889.034     -199.02368      95025.593      45.633123      45.633123      45.633123      0.62999999    -468.36674      26.287263     -818.20069    
     76000   38000          406.86601      730.2671       21573.786      20561.745      5480.5993      15081.145      2668.0344      4199.2801     -3618.1775      202.53516     -1399.8625      43913.815     -30884.479     -199.02368      95025.593      45.633123      45.633123      45.633123      0.62999999     248.41687      316.64393      1625.7405    
     77000   38500          400.98944     -217.6302       20186.595      20488.198      5401.4403      15086.758      2703.2211      4283.6478     -3603.7361      175.56324     -1503.03        43909.674     -30878.582     -199.02368      95025.593      45.633123      45.633123      45.633123      0.62999999    -427.86545      295.59236     -520.61751    
     78000   39000          402.49256     -809.29208      19438.801      20560.359      5421.6878      15138.672      2701.4352      4327.1822     -3591.6861      206.70099     -1463.8631      43849.568     -30890.665     -199.02368      95025.593      45.633123      45.633123      45.633123      0.62999999    -1367.7325     -269.54161     -790.60207    
     79000   39500          391.02628     -1152.6768      18822.626      20420.064      5267.2337      15152.831      2638.6721      4359.1612     -3596.8968      201.60179     -1477.8041      43907.814     -30879.717     -199.02368      95025.593      45.633123      45.633123      45.633123      0.62999999    -777.88771     -951.02916     -1729.1136    
     80000   40000          406.59237     -1063.7712      19227.34       20701.568      5476.9134      15224.655      2685.1708      4326.506      -3540.2023      222.9579      -1506.8191      43918.572     -30881.531     -199.02368      95025.593      45.633123      45.633123      45.633123      0.62999999    -1584.6815     -818.02036     -788.61173    
     81000   40500          406.31323      50.193175      20709.054      20639.494      5473.1532      15166.341      2604.6765      4335.8773     -3554.979       224.51816     -1448.8496      43895.215     -30890.117     -199.02368      95025.593      45.633123      45.633123      45.633123      0.62999999    -922.79392      1323.0165     -249.64305    
     82000   41000          414.31227     -246.65648      20446.357      20788.186      5580.9026      15207.283      2732.4726      4389.4769     -3605.7635      201.67547     -1520.3355      43893.171     -30883.414     -199.02368      95025.593      45.633123      45.633123      45.633123      0.62999999    -305.09326      568.92687     -1003.803     
     83000   41500          402.69971     -865.28037      19542.719      20741.868      5424.4782      15317.39       2790.1577      4450.6588     -3647.0584      224.3387      -1506.2197      43886.869     -30881.356     -199.02368      95025.593      45.633123      45.633123      45.633123      0.62999999    -836.49472     -1150.1087     -609.2377     
     84000   42000          409.51057     -362.29185      20461.681      20963.764      5516.2223      15447.541      2746.2089      4431.032      -3606.9522      224.64403     -1409.8466      43947.071     -30884.616     -199.02368      95025.593      45.633123      45.633123      45.633123      0.62999999    -575.34515      105.21491     -616.74531    
     85000   42500          416.56069     -89.120207      20673.193      20796.7        5611.1894      15185.511      2711.7005      4308.0167     -3617.8358      200.31238     -1455.0971      43919.622     -30881.208     -199.02368      95025.593      45.633123      45.633123      45.633123      0.62999999    -805.02274      1445.9297     -908.26754    
     86000   43000          426.55595     -406.46251      20563.23       21126.527      5745.8284      15380.698      2651.2686      4542.6938     -3590.9029      232.3878      -1454.5642      43885.001     -30885.185     -199.02368      95025.593      45.633123      45.633123      45.633123      0.62999999    -432.60422      176.82799     -963.61129    
     87000   43500          414.49616     -1088.9709      19317.925      20827.076      5583.3796      15243.697      2743.4207      4359.2849     -3575.961       197.47245     -1503.7226      43908.64      -30885.438     -199.02368      95025.593      45.633123      45.633123      45.633123      0.62999999    -340.39564     -2234.5255     -691.99167    
     88000   44000          424.45623     -427.40496      20468.209      21060.528      5717.5445      15342.984      2737.7194      4435.3829     -3580.6505      183.74123     -1463.774       43905.168     -30874.603     -199.02368      95025.593      45.633123      45.633123      45.633123      0.62999999    -614.44136     -326.54469     -341.22881    
     89000   44500          424.53907     -1108.2355      19603.218      21139.067      5718.6604      15420.406      2814.2551      4372.6353     -3568.5436      212.07438     -1421.5309      43910.921     -30899.405     -199.02368      95025.593      45.633123      45.633123      45.633123      0.62999999    -1382.8396     -1110.0208     -831.84604    
     90000   45000          420.11389      473.34793      21667.148      21011.158      5659.052       15352.106      2660.0918      4326.5277     -3488.1054      207.93933     -1399.3604      43924.41      -30879.397     -199.02368      95025.593      45.633123      45.633123      45.633123      0.62999999    -789.80446      1342.8469      867.00135    
     91000   45500          426.54525      396.70604      21706.301      21156.526      5745.6842      15410.842      2741.2035      4414.2539     -3547.2859      214.9918      -1418.404       43893.625     -30887.543     -199.02368      95025.593      45.633123      45.633123      45.633123      0.62999999     1485.6947     -147.79552     -147.78109    
     92000   46000          417.59068     -565.59399      20185.135      20968.964      5625.0636      15343.901      2694.0987      4400.5951     -3562.0667      197.05629     -1432.0668      43916.878     -30870.594     -199.02368      95025.593      45.633123      45.633123      45.633123      0.62999999    -780.49737     -439.54615     -476.73845    
     93000   46500          423.59471     -12.970042      21173.245      21191.22       5705.9396      15485.28       2675.6129      4482.1852     -3513.0872      201.18266     -1383.9609      43896.145     -30872.797     -199.02368      95025.593      45.633123      45.633123      45.633123      0.62999999    -83.060663     -54.250015      98.400553    
     94000   47000          426.76711     -682.75163      20411.548      21357.74       5748.6727      15609.067      2860.9893      4448.8563     -3534.1851      224.21091     -1459.4861      43950.307     -30881.625     -199.02368      95025.593      45.633123      45.633123      45.633123      0.62999999    -1264.1033     -538.45983     -245.69177    
     95000   47500          427.81093     -755.04711      20077.626      21124.009      5762.7333      15361.275      2806.3892      4362.2897     -3611.7891      219.41069     -1440.4531      43896.644     -30871.216     -199.02368      95025.593      45.633123      45.633123      45.633123      0.62999999    -718.24381     -375.99362     -1170.9039    
     96000   48000          430.51343     -1097.6309      19765.745      21286.898      5799.1367      15487.761      2829.3708      4486.2483     -3596.1334      226.14056     -1432.1883      43863.034     -30888.711     -199.02368      95025.593      45.633123      45.633123      45.633123      0.62999999    -1293.1398     -349.68802     -1650.0648    
     97000   48500          426.59678     -91.281747      21067.044      21193.547      5746.3784      15447.168      2735.4177      4426.3292     -3562.8672      239.61674     -1403.5626      43894.1       -30881.866     -199.02368      95025.593      45.633123      45.633123      45.633123      0.62999999     164.15006     -579.0647       141.06939    
     98000   49000          425.82055     -646.24789      20362.44       21258.044      5735.9224      15522.121      2778.7702      4418.1028     -3554.1734      229.21553     -1408.3304      43931.125     -30872.588     -199.02368      95025.593      45.633123      45.633123      45.633123      0.62999999    -333.82488     -238.33865     -1366.5801    
     99000   49500          430.99033     -19.854117      21390.105      21417.62       5805.5607      15612.059      2862.5002      4458.7329     -3590.0601      212.14149     -1322.1077      43868.024     -30877.172     -199.02368      95025.593      45.633123      45.633123      45.633123      0.62999999     152.76634     -305.58083      93.25214     
    100000   50000          428.81114     -1210.5322      19639.49       21317.107      5776.2064      15540.901      2809.2316      4523.2379     -3605.0752      215.31639     -1427.292       43911.16      -30885.678     -199.02368      95025.593      45.633123      45.633123      45.633123      0.62999999    -1392.8278     -933.32618     -1305.4426    
    101000   50500          435.49409     -1341.532       19707.273      21566.436      5866.2276      15700.209      2955.2378      4522.3156     -3583.9178      230.03583     -1429.2903      43883.973     -30878.145     -199.02368      95025.593      45.633123      45.633123      45.633123      0.62999999    -2136.3318     -995.15001     -893.1142     
    102000   51000          447.35356     -818.02035      20350.632      21484.286      6025.978       15458.308      2706.735       4385.7473     -3528.8483      211.65798     -1398.8392      43960.882     -30879.027     -199.02368      95025.593      45.633123      45.633123      45.633123      0.62999999    -1125.4433     -70.857486     -1257.7602    
    103000   51500          434.79888     -223.61775      21126.93       21436.831      5856.8629      15579.968      2736.2017      4520.7349     -3576.1969      189.47665     -1367.8287      43957.02      -30879.44      -199.02368      95025.593      45.633123      45.633123      45.633123      0.62999999    -549.73938      69.232279     -190.34616    
    104000   52000          435.24882     -874.85233      20319.756      21532.17       5862.9237      15669.247      2804.7385      4485.3661     -3558.6436      231.79121     -1365.2691      43953.787     -30882.523     -199.02368      95025.593      45.633123      45.633123      45.633123      0.62999999    -1268.9588     -650.04196     -705.5562     
    105000   52500          426.94704     -731.01056      20312.34       21325.412      5751.0965      15574.315      2876.3967      4477.3116     -3609.2776      210.2651      -1404.0431      43895.638     -30871.975     -199.02368      95025.593      45.633123      45.633123      45.633123      0.62999999    -500.76044     -282.30908     -1409.9622    
    106000   53000          444.83743     -430.81273      21084.622      21681.664      5992.085       15689.579      2938.5781      4500.275      -3626.3737      223.49252     -1369.2973      43905.169     -30882.265     -199.02368      95025.593      45.633123      45.633123      45.633123      0.62999999    -284.00928     -453.59362     -554.8353     
    107000   53500          437.98306     -696.32438      20755.592      21720.593      5899.7547      15820.839      2882.4072      4556.7231     -3527.2231      228.11349     -1377.084       43934.246     -30876.344     -199.02368      95025.593      45.633123      45.633123      45.633123      0.62999999    -730.01524     -1303.9063     -55.051581    
    108000   54000          436.15484     -459.53601      20969.104      21605.953      5875.1281      15730.824      2929.3799      4456.6759     -3589.9748      226.08076     -1349.0992      43941.228     -30883.467     -199.02368      95025.593      45.633123      45.633123      45.633123      0.62999999     59.063263     -1869.6145      431.94321    
    109000   54500          448.45879     -876.38983      20579.198      21793.743      6040.8658      15752.877      2800.0511      4634.8666     -3579.4003      201.16176     -1372.2482      43941.582     -30873.135     -199.02368      95025.593      45.633123      45.633123      45.633123      0.62999999    -1132.921      -132.13114     -1364.1174    
    110000   55000          446.03007     -529.02484      21112.075      21845.224      6008.1502      15837.074      2954.0733      4582.0417     -3586.931       218.14607     -1354.8467      43892.075     -30867.485     -199.02368      95025.593      45.633123      45.633123      45.633123      0.62999999    -960.7389      -549.37263     -76.96299     
    111000   55500          445.9729      -1014.9768      20314.704      21721.311      6007.3801      15713.931      2785.1081      4578.7272     -3585.0932      214.38116     -1340.0924      43930.757     -30869.858     -199.02368      95025.593      45.633123      45.633123      45.633123      0.62999999    -750.43131     -1455.3292     -839.16991    
    112000   56000          448.73008     -620.64573      21088.967      21949.089      6044.5201      15904.569      2823.6425      4616.4776     -3575.0639      215.02846     -1286.7005      43985.779     -30874.594     -199.02368      95025.593      45.633123      45.633123      45.633123      0.62999999     3.670798      -1541.1857     -324.42225    
    113000   56500          457.13012      666.2979       22883.989      21960.6        6157.6711      15802.929      2848.2576      4496.628      -3604.0237      234.61928     -1280.3967      43978.25      -30870.406     -199.02368      95025.593      45.633123      45.633123      45.633123      0.62999999     1233.8235      511.48656      253.58369    
    114000   57000          444.23888     -181.66846      21591.418      21843.183      5984.0224      15859.161      2822.9347      4650.2992     -3547.3758      208.28048     -1332.2847      43929.004     -30871.698     -199.02368      95025.593      45.633123      45.633123      45.633123      0.62999999    -199.89644     -477.40768      132.29874    
    115000   57500          449.63088     -615.98636      21239.364      22093.029      6056.6541      16036.375      2919.1536      4630.3762     -3553.7827      242.25938     -1282.0609      43957.402     -30876.973     -199.02368      95025.593      45.633123      45.633123      45.633123      0.62999999    -1096.9748     -726.61181     -24.372502    
    116000   58000          455.85326      266.11937      22367.062      21998.26       6140.4713      15857.789      2869.1223      4592.8775     -3552.6951      210.85787     -1296.5068      43907.89      -30873.757     -199.02368      95025.593      45.633123      45.633123      45.633123      0.62999999     349.76834      677.21961     -228.62984    
    117000   58500          458.89177     -1032.7949      20604.092      22035.392      6181.4009      15853.991      2954.45        4575.0749     -3651.6187      234.62487     -1321.2687      43943.43      -30880.702     -199.02368      95025.593      45.633123      45.633123      45.633123      0.62999999    -454.69184     -2289.1232     -354.56974    
    118000   59000          459.49799      213.10347      22329.748      22034.419      6189.5669      15844.852      2897.5141      4574.8273     -3617.3934      223.35454     -1306.5125      43954.918     -30881.857     -199.02368      95025.593      45.633123      45.633123      45.633123      0.62999999    -204.15391      324.57559      518.88873    
    119000   59500          465.78634      149.23113      22417.183      22210.371      6274.2727      15936.099      2913.413       4561.3329     -3637.5859      249.31753     -1184.7607      43911.675     -30877.293     -199.02368      95025.593      45.633123      45.633123      45.633123      0.62999999    -673.92324      1000.2399      121.37672    
    120000   60000          460.40488      38.673584      22167.009      22113.413      6201.7829      15911.63       2839.1057      4599.8208     -3551.4763      202.83914     -1280.0913      43966.792     -30865.36      -199.02368      95025.593      45.633123      45.633123      45.633123      0.62999999     691.17865      685.26612     -1260.424     
    121000   60500          452.62209     -75.866467      21977.102      22082.241      6096.9465      15985.295      2936.9818      4566.6344     -3562.6841      211.29945     -1248.7871      43951.828     -30869.978     -199.02368      95025.593      45.633123      45.633123      45.633123      0.62999999     153.23852     -465.17395      84.33603     
    122000   61000          466.53789     -241.21006      22003.129      22337.41       6284.3963      16053.014      2958.1657      4637.9253     -3530.3926      228.68629     -1298.5258      43923.786     -30866.631     -199.02368      95025.593      45.633123      45.633123      45.633123      0.62999999    -95.227869      282.03019     -910.43249    
    123000   61500          460.04676     -812.96078      21163.332      22289.974      6196.959       16093.015      3006.2352      4683.0737     -3533.2462      220.2018      -1324.2627      43916.248     -30875.235     -199.02368      95025.593      45.633123      45.633123      45.633123      0.62999999    -411.90243     -1773.7689     -253.21097    
    124000   62000          464.26355     -947.21281      21002.761      22315.457      6253.7603      16061.697      3004.9508      4700.7111     -3600.3327      220.66612     -1316.5788      43933.718     -30881.438     -199.02368      95025.593      45.633123      45.633123      45.633123      0.62999999    -1041.1852     -2168.4893      368.03607    
    125000   62500          467.37577     -538.38974      21628.009      22374.137      6295.6828      16078.455      2997.0106      4619.168      -3534.012       202.80657     -1307.4298      43973.206     -30872.295     -199.02368      95025.593      45.633123      45.633123      45.633123      0.62999999    -664.29185      292.50235     -1243.3797    
    126000   63000          468.57253     -386.86666      21786.377      22322.517      6311.8034      16010.713      2851.1133      4590.8545     -3498.4377      232.54598     -1260.3965      43965.128     -30870.094     -199.02368      95025.593      45.633123      45.633123      45.633123      0.62999999    -340.07263     -183.87651     -636.65084    
    127000   63500          473.57048     -797.90825      21323.132      22428.913      6379.1272      16049.786      2927.1073      4659.2603     -3519.6436      234.23019     -1344.7707      43953.466     -30859.863     -199.02368      95025.593      45.633123      45.633123      45.633123      0.62999999    -1054.1902     -774.39365     -565.14086    
    128000   64000          477.43478      265.45541      22954.215      22586.333      6431.1804      16155.153      3048.5267      4621.0224     -3608.3352      226.37896     -1231.4203      43974.221     -30875.241     -199.02368      95025.593      45.633123      45.633123      45.633123      0.62999999     787.17425      81.621236     -72.429247    
    129000   64500          470.79166     -1015.7326      21147.919      22555.573      6341.6958      16213.877      2988.5707      4710.4885     -3523.741       211.02238     -1267.9875      43958.67      -30863.146     -199.02368      95025.593      45.633123      45.633123      45.633123      0.62999999    -2628.9723      229.25028     -647.47563    
    130000   65000          473.29152      250.23785      22870.253      22523.461      6375.3696      16148.091      3042.13        4625.8758     -3524.5054      238.08949     -1288.6784      43929.64      -30874.46      -199.02368      95025.593      45.633123      45.633123      45.633123      0.62999999     882.44932     -1276.3729      1144.6372    
    131000   65500          472.40846     -717.27871      21370.69       22364.731      6363.4745      16001.256      2933.4559      4668.7905     -3571.734       224.1078      -1334.7508      43954.915     -30873.528     -199.02368      95025.593      45.633123      45.633123      45.633123      0.62999999    -640.86164     -102.88171     -1408.0928    
    132000   66000          483.86844     -451.75381      21983.338      22609.401      6517.8436      16091.557      2978.3263      4683.968      -3589.0239      255.55873     -1311.4083      43943.593     -30869.457     -199.02368      95025.593      45.633123      45.633123      45.633123      0.62999999    -38.507178     -1636.7243      319.97001    
    133000   66500          481.7029       174.78646      22961.855      22719.627      6488.6733      16230.954      2990.5554      4742.2277     -3558.8701      225.94696     -1268.3755      43974.732     -30875.263     -199.02368      95025.593      45.633123      45.633123      45.633123      0.62999999     575.73565      1363.3027     -1414.679     
    134000   67000          465.15815     -354.56443      21879.567      22370.94       6265.8109      16105.129      3063.6282      4785.0979     -3650.0187      214.04226     -1368.7171      43927.186     -30866.089     -199.02368      95025.593      45.633123      45.633123      45.633123      0.62999999    -1016.6459     -504.28929      457.24193    
    135000   67500          475.86235      25.242011      22860.871      22825.889      6409.9994      16415.889      3090.4671      4823.3625     -3586.4857      253.81572     -1229.0527      43932.15      -30868.367     -199.02368      95025.593      45.633123      45.633123      45.633123      0.62999999     1041.1617      189.71687     -1155.1525    
    136000   68000          482.2472      -344.37193      22253.244      22730.492      6496.0051      16234.487      3081.7845      4702.9273     -3578.0384      252.69863     -1282.9799      43928.101     -30870.006     -199.02368      95025.593      45.633123      45.633123      45.633123      0.62999999     918.71872     -776.8403      -1174.9942    
    137000   68500          487.60057      155.01385      22870.73       22655.904      6568.1165      16087.787      2991.4549      4761.0634     -3602.9324      226.10675     -1370.9545      43948.585     -30865.537     -199.02368      95025.593      45.633123      45.633123      45.633123      0.62999999     538.49782     -107.02569      33.569424    
    138000   69000          479.39485     -264.22646      22361.547      22727.726      6457.5832      16270.142      3194.8857      4697.3401     -3582.7438      260.00894     -1306.3326      43889.593     -30882.609     -199.02368      95025.593      45.633123      45.633123      45.633123      0.62999999    -1226.048       39.129486      394.2391     
    139000   69500          478.00047     -834.89272      21387.989      22545.026      6438.8004      16106.225      3122.9151      4636.8913     -3602.3868      232.4369      -1330.4643      43921.301     -30874.468     -199.02368      95025.593      45.633123      45.633123      45.633123      0.62999999    -228.28449     -1119.8595     -1156.5342    
    140000   70000          490.554       -495.03343      22153.55       22839.592      6607.9         16231.692      3045.9186      4751.1278     -3626.0955      243.91538     -1224.5394      43915.596     -30874.23      -199.02368      95025.593      45.633123      45.633123      45.633123      0.62999999    -298.69592      160.49326     -1346.8976    
    141000   70500          489.39367      313.04564      23416.338      22982.504      6592.2701      16390.234      3038.0512      4881.6289     -3586.0138      228.50753     -1269.703       43959.562     -30861.799     -199.02368      95025.593      45.633123      45.633123      45.633123      0.62999999     859.57719      1212.7999     -1133.2401    
    142000   71000          489.86934      275.01929      23257.309      22876.173      6598.6774      16277.496      3014.4046      4789.0439     -3591.7657      236.08259     -1177.456       43887.229     -30880.042     -199.02368      95025.593      45.633123      45.633123      45.633123      0.62999999     892.53271      948.25128     -1015.7261    
    143000   71500          493.97528     -672.08496      22015.351      22946.761      6653.9857      16292.775      3114.9423      4773.5772     -3647.477       228.00626     -1234.6765      43932.803     -30874.4       -199.02368      95025.593      45.633123      45.633123      45.633123      0.62999999    -967.18923     -884.46694     -164.59871    
    144000   72000          488.58935     -1640.9693      20850.817      23124.956      6581.4357      16543.52       3222.7191      4939.2141     -3660.8751      233.10526     -1276.2537      43945.928     -30860.318     -199.02368      95025.593      45.633123      45.633123      45.633123      0.62999999    -1311.2844     -2253.4471     -1358.1765    
    145000   72500          486.88538     -900.05941      21757.429      23004.777      6558.4827      16446.294      3067.1108      4876.732      -3632.0222      241.32775     -1201.104       43962.935     -30868.685     -199.02368      95025.593      45.633123      45.633123      45.633123      0.62999999    -1960.1013     -74.40291      -665.67397    
    146000   73000          498.35004      1141.9838      24609.043      23026.424      6712.9149      16313.509      3039.8917      4782.8289     -3635.7792      278.68335     -1233.7085      43959.536     -30877.943     -199.02368      95025.593      45.633123      45.633123      45.633123      0.62999999     2016.4344      777.92655      631.59054    
    147000   73500          487.0919       79.806626      22969.337      22858.737      6561.2646      16297.472      2997.1418      4799.7855     -3581.2812      274.48188     -1293.0146      43972.59      -30872.232     -199.02368      95025.593      45.633123      45.633123      45.633123      0.62999999    -1130.5069      660.95115      708.97562    
    148000   74000          497.81291     -701.89457      22146.429      23119.15       6705.6796      16413.471      3058.793       4830.1318     -3536.6888      226.89839     -1220.3368      43922.716     -30868.042     -199.02368      95025.593      45.633123      45.633123      45.633123      0.62999999     43.044618     -1575.8923     -572.83602    
[...]
    255000   127500         643.67149      310.5544       27825.467      27395.085      8670.4356      18724.65       3968.545       5777.7977     -3515.2463      294.27713     -946.34526      43989.648     -30844.026     -199.02368      95025.593      45.633123      45.633123      45.633123      0.62999999    -442.6502       119.51604      1254.7974    
    256000   128000         626.93854      304.52632      27470.165      27048.137      8445.0381      18603.099      3889.7388      5706.528      -3493.4634      320.50899     -966.96212      43984.822     -30838.073     -199.02368      95025.593      45.633123      45.633123      45.633123      0.62999999     188.80128      854.39597     -129.61831    
    257000   128500         638.17602     -196.36197      26875.775      27147.904      8596.4101      18551.494      3843.5823      5673.6543     -3506.962       322.85539     -953.01017      44011.08      -30839.706     -199.02368      95025.593      45.633123      45.633123      45.633123      0.62999999     466.68666     -663.98217     -391.79041    
    258000   129000         647.2371       282.24067      27608.002      27216.859      8718.4653      18498.394      3806.8458      5571.3554     -3490.0777      304.42515     -837.84796      43980.379     -30836.686     -199.02368      95025.593      45.633123      45.633123      45.633123      0.62999999    -140.49271     -353.47709      1340.6918    
    259000   129500         644.61637      20.303326      27200.491      27172.354      8683.1635      18489.19       3836.1904      5625.8339     -3540.0903      327.70141     -935.03152      44007.231     -30832.645     -199.02368      95025.593      45.633123      45.633123      45.633123      0.62999999     494.97283     -704.88232      270.81946    
    260000   130000         644.84668     -199.37816      27132.358      27408.666      8686.2657      18722.4        3997.3176      5630.5454     -3487.1684      320.71732     -878.13565      43990.235     -30851.111     -199.02368      95025.593      45.633123      45.633123      45.633123      0.62999999    -1252.3229     -1007.4038      1661.5922    
    261000   130500         629.09296     -1919.3564      24434.956      27094.898      8474.0587      18620.839      3977.8995      5696.2136     -3611.0428      329.33126     -911.36669      43977.432     -30837.627     -199.02368      95025.593      45.633123      45.633123      45.633123      0.62999999    -2476.4366     -1522.3635     -1759.269     
    262000   131000         658.74185     -700.16986      26579.91       27550.241      8873.4376      18676.804      3921.4711      5675.4388     -3531.0925      325.53493     -874.4105       43996.03      -30836.169     -199.02368      95025.593      45.633123      45.633123      45.633123      0.62999999     20.197729     -446.6386      -1674.0687    
    263000   131500         645.96498     -1551.3814      25382.366      27532.349      8701.3295      18831.02       4059.4494      5749.3294     -3466.1138      297.56714     -956.2935       43975.907     -30828.826     -199.02368      95025.593      45.633123      45.633123      45.633123      0.62999999    -919.98438     -1772.8553     -1961.3046    
    264000   132000         655.74687      369.83003      28303.656      27791.126      8833.0944      18958.032      4018.7196      5745.8009     -3449.0314      344.54268     -874.34308      43999.018     -30826.675     -199.02368      95025.593      45.633123      45.633123      45.633123      0.62999999     572.96564      305.00662      231.51784    
    265000   132500         646.9145       475.73477      28407.946      27748.649      8714.1199      19034.529      3979.7974      5771.4701     -3378.5339      321.87606     -920.01911      44081.583     -30821.645     -199.02368      95025.593      45.633123      45.633123      45.633123      0.62999999     665.14228      517.00514      245.0569     
    266000   133000         651.21311     -1314.8625      25858.333      27680.536      8772.0233      18908.513      3928.4488      5727.9292     -3350.1836      341.20687     -951.11371      44048.024     -30835.799     -199.02368      95025.593      45.633123      45.633123      45.633123      0.62999999    -2280.2514     -1108.4879     -555.84804    
    267000   133500         659.98013     -24.395942      27753.65       27787.46       8890.1175      18897.342      3915.877       5778.4667     -3441.7011      298.39879     -831.40267      44019.171     -30841.467     -199.02368      95025.593      45.633123      45.633123      45.633123      0.62999999    -607.39183      461.36304      72.840972    
    268000   134000         653.17523     -638.93507      26723.522      27608.99       8798.4537      18810.537      4089.4047      5671.009      -3518.315       332.36515     -931.20067      44002.534     -30835.26      -199.02368      95025.593      45.633123      45.633123      45.633123      0.62999999     176.01562     -1006.5989     -1086.2219    
    269000   134500         663.3851      -2385.6644      24477.713      27783.888      8935.9834      18847.904      4003.6785      5881.8161     -3531.9654      318.59598     -943.30555      43957.517     -30838.432     -199.02368      95025.593      45.633123      45.633123      45.633123      0.62999999    -2617.7971     -1146.385      -3392.8111    
    270000   135000         659.61835     -475.89906      27124.466      27783.991      8885.2442      18898.747      3921.2233      5743.924      -3518.5509      324.68064     -716.60663      43976.182     -30832.106     -199.02368      95025.593      45.633123      45.633123      45.633123      0.62999999     176.10777     -238.57231     -1365.2326    
    271000   135500         648.67132     -12.30109       27684.873      27701.921      8737.7848      18964.136      4020.2599      5699.5858     -3453.299       358.54763     -805.08834      43989.267     -30845.137     -199.02368      95025.593      45.633123      45.633123      45.633123      0.62999999    -520.62275      168.22237      315.4971     
    272000   136000         662.88184      468.18521      28598.369      27949.534      8929.2044      19020.33       4054.7323      5736.7365     -3458.9634      315.83753     -826.05322      44029.903     -30831.862     -199.02368      95025.593      45.633123      45.633123      45.633123      0.62999999     1041.2261     -576.27045      939.6        
    273000   136500         673.80817     -810.12834      26863.033      27985.75       9076.3851      18909.364      3942.6985      5730.3046     -3475.4429      325.30519     -785.83711      44001.089     -30828.753     -199.02368      95025.593      45.633123      45.633123      45.633123      0.62999999    -490.46635     -780.57771     -1159.3409    
    274000   137000         669.57841     -1125.1956      26535.069      28094.423      9019.409       19075.014      4056.9866      5789.466      -3416.2489      321.86239     -858.65883      44004.856     -30823.25      -199.02368      95025.593      45.633123      45.633123      45.633123      0.62999999    -798.84596     -1441.6938     -1135.0471    
    275000   137500         663.97659     -701.75006      27001.032      27973.553      8943.951       19029.602      4047.9894      5838.891      -3470.0517      312.67634     -860.05593      43999.471     -30839.318     -199.02368      95025.593      45.633123      45.633123      45.633123      0.62999999     208.8173      -2461.8024      147.73486    
    276000   138000         674.36377      127.75433      28168.83       27991.782      9083.8693      18907.912      4077.7422      5657.6504     -3459.526       304.205       -851.92435      44022.217     -30842.452     -199.02368      95025.593      45.633123      45.633123      45.633123      0.62999999    -891.48247      497.07452      777.67093    
    277000   138500         684.59941     -105.01977      28219.731      28365.273      9221.7462      19143.527      4058.184       5814.0794     -3433.5466      357.73805     -895.77377      44071.602     -30828.756     -199.02368      95025.593      45.633123      45.633123      45.633123      0.62999999    -659.04108      253.02494      90.956841    
    278000   139000         671.09168     -251.73933      27875.652      28224.525      9039.7932      19184.732      4090.2411      5686.4536     -3320.6968      343.24431     -837.67906      44065.641     -30842.472     -199.02368      95025.593      45.633123      45.633123      45.633123      0.62999999    -4.7607655     -434.54259     -315.91463    
    279000   139500         676.18988     -983.64534      26909.037      28272.223      9108.4675      19163.756      4024.6073      5756.8512     -3398.6429      327.2151      -858.31141      44141.038     -30829.001     -199.02368      95025.593      45.633123      45.633123      45.633123      0.62999999    -358.04673     -2663.9993      71.110053    
    280000   140000         670.24715     -459.51617      27438.744      28075.564      9028.4172      19047.147      4017.0943      5867.1243     -3524.854       316.27627     -842.20604      44055.098     -30841.386     -199.02368      95025.593      45.633123      45.633123      45.633123      0.62999999    -1789.387      -159.85082      570.68934    
    281000   140500         674.07706     -734.55441      27380.494      28398.476      9080.0071      19318.469      4236.3223      5848.0458     -3509.2858      364.78795     -806.84214      44022.293     -30836.851     -199.02368      95025.593      45.633123      45.633123      45.633123      0.62999999    -1909.187      -36.893111     -257.58312    
    282000   141000         674.01869      650.44334      29090.299      28188.881      9079.2208      19109.661      4006.0118      5901.3635     -3445.7292      330.25694     -796.30962      43963.852     -30849.785     -199.02368      95025.593      45.633123      45.633123      45.633123      0.62999999     763.78055      1525.6591     -338.10964    
    283000   141500         674.02442     -1143.5412      26524.369      28109.146      9079.2981      19029.848      4011.7404      5728.3326     -3466.2707      312.28987     -796.92679      44074.215     -30833.532     -199.02368      95025.593      45.633123      45.633123      45.633123      0.62999999    -956.86583     -975.01775     -1498.7401    
    284000   142000         682.23895     -1305.3809      26588.993      28398.057      9189.9501      19208.106      4221.6625      5798.1059     -3385.593       338.97709     -910.60691      43988.476     -30842.915     -199.02368      95025.593      45.633123      45.633123      45.633123      0.62999999    -908.43865     -2999.8296     -7.8743619    
    285000   142500         693.69986     -698.95327      27482.61       28451.255      9344.3318      19106.923      4110.0129      5770.216      -3421.1303      350.06803     -906.49542      44027.705     -30823.453     -199.02368      95025.593      45.633123      45.633123      45.633123      0.62999999     135.59583     -1997.8568     -234.59882    
    286000   143000         676.45645     -1295.8028      26764.063      28559.852      9112.0582      19447.794      4137.6624      6018.5495     -3412.0321      350.36528     -756.50136      43952.259     -30842.509     -199.02368      95025.593      45.633123      45.633123      45.633123      0.62999999    -1285.0154     -1579.8548     -1022.538     
    287000   143500         681.30982     -817.33941      27165.564      28298.275      9177.4344      19120.84       4074.2531      5734.9974     -3386.0643      343.03127     -817.40991      44013.578     -30841.545     -199.02368      95025.593      45.633123      45.633123      45.633123      0.62999999    -1141.1574     -879.99385     -430.86697    
    288000   144000         680.06246     -373.16226      28135.678      28652.825      9160.6322      19492.193      4218.4849      5857.9152     -3392.1841      359.80508     -746.01825      44029.146     -30834.956     -199.02368      95025.593      45.633123      45.633123      45.633123      0.62999999    -749.13732     -561.41117      191.06171    
    289000   144500         685.35809      707.53997      29437.251      28456.706      9231.9657      19224.74       4237.2654      5788.4801     -3540.0477      331.5736      -754.49005      43993.106     -30831.147     -199.02368      95025.593      45.633123      45.633123      45.633123      0.62999999     136.04686      1643.1376      343.4355     
    290000   145000         690.30905     -1405.2384      26931.868      28879.319      9298.6566      19580.662      4323.4806      5951.3945     -3379.3033      323.29959     -829.48648      44024.605     -30833.328     -199.02368      95025.593      45.633123      45.633123      45.633123      0.62999999    -1085.944      -1511.8963     -1617.875     
    291000   145500         685.20802     -69.698257      28464.254      28560.846      9229.9443      19330.901      4063.021       5914.9251     -3436.5165      351.13241     -781.2715       44056.335     -30836.725     -199.02368      95025.593      45.633123      45.633123      45.633123      0.62999999    -92.677457      80.929318     -197.34663    
    292000   146000         699.16207     -810.67068      27627.482      28750.95       9417.9093      19333.041      4224.1766      5903.596      -3458.7946      327.64739     -846.9341       44012.29      -30828.94      -199.02368      95025.593      45.633123      45.633123      45.633123      0.62999999    -1598.6201      621.41554     -1454.8075    
    293000   146500         686.40976      5.8442025      28557.937      28549.838      9246.1321      19303.706      4187.765       5926.5369     -3454.4353      322.63316     -867.51654      44013.15      -30824.427     -199.02368      95025.593      45.633123      45.633123      45.633123      0.62999999    -135.65008      653.2062      -500.02351    
    294000   147000         671.5515      -892.14929      27277.434      28513.82       9045.9871      19467.833      4214.5386      5925.318      -3352.6966      288.10835     -761.76949      43974.033     -30819.7       -199.02368      95025.593      45.633123      45.633123      45.633123      0.62999999    -1094.1196     -214.50972     -1367.8186    
    295000   147500         703.88703      333.87077      29349.814      28887.119      9481.5558      19405.563      4309.3166      5697.4707     -3449.2487      345.95986     -686.7478       44013.457     -30824.644     -199.02368      95025.593      45.633123      45.633123      45.633123      0.62999999    -127.49058      767.27916      361.82372    
    296000   148000         688.97082      524.52175      29373.343      28646.434      9280.6303      19365.804      4016.9458      5911.9891     -3358.7979      349.04992     -723.74577      43986.347     -30815.984     -199.02368      95025.593      45.633123      45.633123      45.633123      0.62999999    -438.33243      2472.9987     -461.10103    
    297000   148500         696.2122       807.10251      29939.49       28820.967      9378.1738      19442.793      3977.1844      5972.1109     -3465.8581      370.87604     -661.92467      44071.352     -30820.948     -199.02368      95025.593      45.633123      45.633123      45.633123      0.62999999     1757.6413      806.82517     -143.15896    
    298000   149000         711.66918      1153.996       30726.342      29127.076      9586.3835      19540.692      4112.7639      5894.6464     -3386.1849      350.67164     -666.02006      44052.758     -30817.942     -199.02368      95025.593      45.633123      45.633123      45.633123      0.62999999     2030.0624      1765.2241     -333.29855    
    299000   149500         708.8586      -40.102961      29236.505      29292.081      9548.5243      19743.557      4323.2554      5987.3717     -3446.1134      350.0269      -708.89658      44053.871     -30815.958     -199.02368      95025.593      45.633123      45.633123      45.633123      0.62999999     513.2208      -622.85162     -10.678063    
    300000   150000         698.26661     -56.830032      29040.21       29118.968      9405.8471      19713.121      4431.5841      5908.8815     -3393.7213      309.59645     -781.55221      44059.764     -30821.431     -199.02368      95025.593      45.633123      45.633123      45.633123      0.62999999    -472.44843     -518.86829      820.82662    
Loop time of 760.115 on 1 procs for 300000 steps with 4520 atoms

Performance: 17.050 ns/day, 1.408 hours/ns, 394.677 timesteps/s, 1.784 Matom-step/s
100.0% CPU use with 1 MPI tasks x 1 OpenMP threads

MPI task timing breakdown:
Section |  min time  |  avg time  |  max time  |%varavg| %total
---------------------------------------------------------------
Pair    | 6.0027     | 6.0027     | 6.0027     |   0.0 |  0.79
Bond    | 288.23     | 288.23     | 288.23     |   0.0 | 37.92
Kspace  | 364.8      | 364.8      | 364.8      |   0.0 | 47.99
Neigh   | 39.323     | 39.323     | 39.323     |   0.0 |  5.17
Comm    | 6.8554     | 6.8554     | 6.8554     |   0.0 |  0.90
Output  | 2.9539     | 2.9539     | 2.9539     |   0.0 |  0.39
Modify  | 42.387     | 42.387     | 42.387     |   0.0 |  5.58
Other   |            | 9.558      |            |       |  1.26

Nlocal:           4520 ave        4520 max        4520 min
Histogram: 1 0 0 0 0 0 0 0 0 0
Nghost:          11255 ave       11255 max       11255 min
Histogram: 1 0 0 0 0 0 0 0 0 0
Neighs:              0 ave           0 max           0 min
Histogram: 1 0 0 0 0 0 0 0 0 0
FullNghs:  1.69979e+06 ave 1.69979e+06 max 1.69979e+06 min
Histogram: 1 0 0 0 0 0 0 0 0 0

Total # of neighbors = 1699794
Ave neighs/atom = 376.06062
Ave special neighs/atom = 5.5353982
Neighbor list builds = 7207
Dangerous builds = 0

# --- Cleanup ---
unfix nvt_fix

undump dump_nvt

# --- Write Output ---
write_dump all custom nvt_softheat_last.dump id type mol x y z xu yu zu vx vy vz modify sort id
write_data /home/arz2/PolyJarvis/data/PLA4/lammps/equil/nvt_softheat/nvt_softheat_out.data
System init for write_data ...
PPPM Kokkos initialization ...
  using 12-bit tables for long-range coulomb
  G vector (1/distance) = 0.33126545
  grid = 48 48 48
  stencil order = 5
  estimated absolute RMS force accuracy = 0.00036388948
  estimated relative force accuracy = 1.0958424e-06
  using double precision cuFFT
  3d grid and FFT values/proc = 166375 110592
Generated 21 of 21 mixed pair_coeff terms from sixthpower/sixthpower mixing rule

print "STAGE COMPLETE: NVT T=300.0->700.0K steps=300000"
STAGE COMPLETE: NVT T=300.0->700.0K steps=300000
quit
9.558      |            |       |  1.26

Nlocal:           4520 ave        4520 max        4520 min
Histogram: 1 0 0 0 0 0 0 0 0 0
Nghost:          11255 ave       11255 max       11255 min
Histogram: 1 0 0 0 0 0 0 0 0 0
Neighs:              0 ave           0 max           0 min
Histogram: 1 0 0 0 0 0 0 0 0 0
FullNghs:  1.69979e+06 ave 1.69979e+06 max 1.69979e+06 min
Histogram: 1 0 0 0 0 0 0 0 0 0

Total # of neighbors = 1699794
Ave neighs/atom = 376.06062
Ave special neighs/atom = 5.5353982
Neighbor list builds = 7207
Dangerous builds = 0
System init for write_data ...
PPPM Kokkos initialization ...
  using 12-bit tables for long-range coulomb
  G vector (1/distance) = 0.33126545
  grid = 48 48 48
  stencil order = 5
  estimated absolute RMS force accuracy = 0.00036388948
  estimated relative force accuracy = 1.0958424e-06
  using double precision cuFFT
  3d grid and FFT values/proc = 166375 110592
Generated 21 of 21 mixed pair_coeff terms from sixthpower/sixthpower mixing rule
STAGE COMPLETE: NVT T=300.0->700.0K steps=300000
