units real
atom_style full
boundary p p p

# --- Force Field Styles ---
pair_style lj/class2/coul/long 9.5 9.5
kspace_style pppm 1e-6
dielectric 1.000000
bond_style class2
angle_style class2
dihedral_style class2
improper_style class2
special_bonds lj/coul 0 0 1
pair_modify mix sixthpower tail yes
neighbor 2.0 bin
neigh_modify delay 0 every 1 check yes
neigh_modify one 4000
# KOKKOS: package loaded via -pk kokkos on the command line

read_data /home/alexzhao/PolyJarvis/data/PS2/lammps/equil/npt_pppm/npt_pppm_out.data
Reading data file ...
  orthogonal box = (4.1262992 4.1262992 4.1262992) to (46.608386 46.608386 46.608386)
  1 by 1 by 1 MPI processor grid
  reading atoms ...
  6420 atoms
  reading velocities ...
  6420 velocities
  scanning bonds ...
  4 = max bonds/atom
  scanning angles ...
  14 = max angles/atom
  scanning dihedrals ...
  34 = max dihedrals/atom
  scanning impropers ...
  11 = max impropers/atom
  orthogonal box = (4.1262992 4.1262992 4.1262992) to (46.608386 46.608386 46.608386)
  1 by 1 by 1 MPI processor grid
  reading bonds ...
  6810 bonds
  reading angles ...
  12000 angles
  reading dihedrals ...
  19110 dihedrals
  reading impropers ...
  5600 impropers
Finding 1-2 1-3 1-4 neighbors ...
  special bond factors lj:    0        0        1       
  special bond factors coul:  0        0        1       
     4 = max # of 1-2 neighbors
     8 = max # of 1-3 neighbors
    12 = max # of special neighbors
  special bonds CPU = 0.004 seconds
  read_data CPU = 0.408 seconds
include /home/alexzhao/PolyJarvis/data/PS2/lammps/equil/emc_build.params
# LAMMPS parameters created by EMC v9.4.4, build Jul 31 2025 20:33:44

# Variables

variable	seed		index	472916
variable	ntotal		index	6420
variable	fshape		index	1
variable	output		index	emc_build
variable	field		index	pcff/pcff
variable	location1	index	~/emc/field/
variable	nav		index	0.6022141179
variable	temperature	index	300
variable	radius		index	5
variable	nrelax		index	100
variable	weight_nonbond	index	0.0001
variable	weight_bond	index	0.0001
variable	weight_focus	index	1
variable	cutoff		index	9.5
variable	charge_cutoff	index	9.5
variable	kappa		index	4
variable	density1	index	0.53
variable	lprevious	index	0
variable	lphase		index	50.7346850343
variable	f_poly		index	10
variable	chem_repeat	index	*CC(c1ccccc1)*
variable	chem_cap	index	*[H]
variable	lg_repeat	index	16
variable	lg_cap		index	1
variable	norm_poly	index	100
variable	l_poly		index	642
variable	mg_repeat	index	92.14181
variable	mg_cap		index	1.00797
variable	m_poly		index	3687.68834
variable	n_poly		index	10
variable	mtotal		index	41681.3434
variable	nphase1		index	6420
variable	mphase1		index	41681.3434
variable	vphase1		index	130591.498627
variable	lbox		index	50.7346850343
variable	lphase1		index	50.7346850343
variable	lxx		index	50.7346850343
variable	lyy		index	50.7346850343
variable	lzz		index	50.7346850343
variable	lzy		index	0
variable	lzx		index	0
variable	lyx		index	0
variable	vtotal		index	130591.498627
variable	nl_poly		index	10

# Types

variable	type_c		index	1
variable	type_c1		index	2
variable	type_cp		index	3
variable	type_hc		index	4

variable	type_bond_c_c	index	1
variable	type_bond_c_c1	index	2
variable	type_bond_c_cp	index	3
variable	type_bond_c_hc	index	4
variable	type_bond_c1_cp	index	5
variable	type_bond_c1_hc	index	6
variable	type_bond_cp_cp	index	7
variable	type_bond_cp_hc	index	8

variable	type_angle_c_c_c1 index	1
variable	type_angle_c_c_cp index	2
variable	type_angle_c_c_hc index	3
variable	type_angle_c_c1_c index	4
variable	type_angle_c_c1_cp index	5
variable	type_angle_c_c1_hc index	6
variable	type_angle_c_cp_cp index	7
variable	type_angle_c1_c_c1 index	8
variable	type_angle_c1_c_hc index	9
variable	type_angle_c1_cp_cp index	10
variable	type_angle_cp_c_hc index	11
variable	type_angle_cp_c1_hc index	12
variable	type_angle_cp_cp_cp index	13
variable	type_angle_cp_cp_hc index	14
variable	type_angle_hc_c_hc index	15

# Clusters

variable	n0_poly		index	1
variable	n1_poly		index	10
variable	nl_poly		index	10

# Flags

variable	flag_charged	index	1

# Masses

mass		1    12.01115  # c
mass		2    12.01115  # c1
mass		3    12.01115  # cp
mass		4     1.00797  # hc

# Potentials

pair_modify	mix sixthpower tail yes
special_bonds	lj/coul 0 0 1

# Pair Coeffs

pair_coeff	 1  1    0.05400    4.01000  # c,c
pair_coeff	 2  2    0.05400    4.01000  # c1,c1
pair_coeff	 3  3    0.06400    4.01000  # cp,cp
pair_coeff	 4  4    0.02000    2.99500  # hc,hc

# Bond Coeffs

bond_coeff	1    1.53000  299.67000 -501.77000  679.81000  # c,c
bond_coeff	2    1.53000  299.67000 -501.77000  679.81000  # c,c1
bond_coeff	3    1.50100  321.90210 -521.82080  572.16280  # c,cp
bond_coeff	4    1.10100  345.00000 -691.89000  844.60000  # c,hc
bond_coeff	5    1.50100  321.90210 -521.82080  572.16280  # c1,cp
bond_coeff	6    1.10100  345.00000 -691.89000  844.60000  # c1,hc
bond_coeff	7    1.41700  470.83610 -627.61790 1327.63450  # cp,cp
bond_coeff	8    1.09820  372.82510 -803.45260  894.31730  # cp,hc

# Angle Coeffs

angle_coeff	 1  112.67000   39.51600   -7.44300   -9.55830  # c,c,c1
angle_coeff	 2  108.40000   43.95940   -8.39240   -9.33790  # c,c,cp
angle_coeff	 3  110.77000   41.45300  -10.60400    5.12900  # c,c,hc
angle_coeff	 4  112.67000   39.51600   -7.44300   -9.55830  # c,c1,c
angle_coeff	 5  108.40000   43.95940   -8.39240   -9.33790  # c,c1,cp
angle_coeff	 6  110.77000   41.45300  -10.60400    5.12900  # c,c1,hc
angle_coeff	 7  120.05000   44.71480  -22.73520    0.00000  # c,cp,cp
angle_coeff	 8  112.67000   39.51600   -7.44300   -9.55830  # c1,c,c1
angle_coeff	 9  110.77000   41.45300  -10.60400    5.12900  # c1,c,hc
angle_coeff	10  120.05000   44.71480  -22.73520    0.00000  # c1,cp,cp
angle_coeff	11  111.00000   44.32340   -9.44540    0.00000  # cp,c,hc
angle_coeff	12  111.00000   44.32340   -9.44540    0.00000  # cp,c1,hc
angle_coeff	13  118.90000   61.02260  -34.99310    0.00000  # cp,cp,cp
angle_coeff	14  117.94000   35.15580  -12.46820    0.00000  # cp,cp,hc
angle_coeff	15  107.66000   39.64100  -12.92100   -2.43180  # hc,c,hc

# BondBond Coeffs

angle_coeff	 1 bb    0.00000    1.53000    1.53000  # c,c,c1
angle_coeff	 2 bb    0.00000    1.53000    1.50100  # c,c,cp
angle_coeff	 3 bb    3.38720    1.53000    1.10100  # c,c,hc
angle_coeff	 4 bb    0.00000    1.53000    1.53000  # c,c1,c
angle_coeff	 5 bb    0.00000    1.53000    1.50100  # c,c1,cp
angle_coeff	 6 bb    3.38720    1.53000    1.10100  # c,c1,hc
angle_coeff	 7 bb   12.06760    1.50100    1.41700  # c,cp,cp
angle_coeff	 8 bb    0.00000    1.53000    1.53000  # c1,c,c1
angle_coeff	 9 bb    3.38720    1.53000    1.10100  # c1,c,hc
angle_coeff	10 bb   12.06760    1.50100    1.41700  # c1,cp,cp
angle_coeff	11 bb    2.91680    1.50100    1.10100  # cp,c,hc
angle_coeff	12 bb    2.91680    1.50100    1.10100  # cp,c1,hc
angle_coeff	13 bb   68.28560    1.41700    1.41700  # cp,cp,cp
angle_coeff	14 bb    1.07950    1.41700    1.09820  # cp,cp,hc
angle_coeff	15 bb    5.33160    1.10100    1.10100  # hc,c,hc

# BondAngle Coeffs

angle_coeff	 1 ba    8.01600    8.01600    1.53000    1.53000  # c,c,c1
angle_coeff	 2 ba    0.00000    0.00000    1.53000    1.50100  # c,c,cp
angle_coeff	 3 ba   20.75400   11.42100    1.53000    1.10100  # c,c,hc
angle_coeff	 4 ba    8.01600    8.01600    1.53000    1.53000  # c,c1,c
angle_coeff	 5 ba    0.00000    0.00000    1.53000    1.50100  # c,c1,cp
angle_coeff	 6 ba   20.75400   11.42100    1.53000    1.10100  # c,c1,hc
angle_coeff	 7 ba   47.05790   31.07710    1.50100    1.41700  # c,cp,cp
angle_coeff	 8 ba    8.01600    8.01600    1.53000    1.53000  # c1,c,c1
angle_coeff	 9 ba   20.75400   11.42100    1.53000    1.10100  # c1,c,hc
angle_coeff	10 ba   47.05790   31.07710    1.50100    1.41700  # c1,cp,cp
angle_coeff	11 ba   26.46080   11.77170    1.50100    1.10100  # cp,c,hc
angle_coeff	12 ba   26.46080   11.77170    1.50100    1.10100  # cp,c1,hc
angle_coeff	13 ba   28.87080   28.87080    1.41700    1.41700  # cp,cp,cp
angle_coeff	14 ba   20.00330   24.21830    1.41700    1.09820  # cp,cp,hc
angle_coeff	15 ba   18.10300   18.10300    1.10100    1.10100  # hc,c,hc

# Dihedral Coeffs

dihedral_coeff	 1    0.00000    0.00000    0.05140    0.00000   -0.14300    0.00000  # c,c,c1,c
dihedral_coeff	 2    0.00000    0.00000    0.00000    0.00000    0.15800  180.00000  # c,c,c1,cp
dihedral_coeff	 3    0.00000    0.00000    0.03160    0.00000   -0.16810    0.00000  # c,c,c1,hc
dihedral_coeff	 4   -0.28020    0.00000   -0.06780    0.00000   -0.01220    0.00000  # c,c,cp,cp
dihedral_coeff	 5    0.00000    0.00000    0.05140    0.00000   -0.14300    0.00000  # c,c1,c,c1
dihedral_coeff	 6    0.00000    0.00000    0.03160    0.00000   -0.16810    0.00000  # c,c1,c,hc
dihedral_coeff	 7   -0.28020    0.00000   -0.06780    0.00000   -0.01220    0.00000  # c,c1,cp,cp
dihedral_coeff	 8    0.00000    0.00000    4.40720    0.00000    0.00000    0.00000  # c,cp,cp,cp
dihedral_coeff	 9    0.00000    0.00000    1.55900    0.00000    0.00000    0.00000  # c,cp,cp,hc
dihedral_coeff	10    0.00000    0.00000    0.00000    0.00000    0.15800  180.00000  # c1,c,c,cp
dihedral_coeff	11    0.00000    0.00000    0.03160    0.00000   -0.16810    0.00000  # c1,c,c,hc
dihedral_coeff	12    0.00000    0.00000    0.00000    0.00000    0.15800  180.00000  # c1,c,c1,cp
dihedral_coeff	13    0.00000    0.00000    0.03160    0.00000   -0.16810    0.00000  # c1,c,c1,hc
dihedral_coeff	14    0.00000    0.00000    4.40720    0.00000    0.00000    0.00000  # c1,cp,cp,cp
dihedral_coeff	15    0.00000    0.00000    1.55900    0.00000    0.00000    0.00000  # c1,cp,cp,hc
dihedral_coeff	16   -0.02280    0.00000    0.02800    0.00000   -0.18630    0.00000  # cp,c,c,hc
dihedral_coeff	17   -0.02280    0.00000    0.02800    0.00000   -0.18630    0.00000  # cp,c1,c,hc
dihedral_coeff	18   -0.28010    0.00000   -0.06780    0.00000   -0.01220    0.00000  # cp,cp,c,hc
dihedral_coeff	19   -0.28010    0.00000   -0.06780    0.00000   -0.01220    0.00000  # cp,cp,c1,hc
dihedral_coeff	20    8.36670    0.00000    1.19320    0.00000    0.00000    0.00000  # cp,cp,cp,cp
dihedral_coeff	21    0.00000    0.00000    3.96610    0.00000    0.00000    0.00000  # cp,cp,cp,hc
dihedral_coeff	22   -0.14320    0.00000    0.06170    0.00000   -0.10830    0.00000  # hc,c,c,hc
dihedral_coeff	23   -0.14320    0.00000    0.06170    0.00000   -0.10830    0.00000  # hc,c,c1,hc
dihedral_coeff	24    0.00000    0.00000    1.87690    0.00000    0.00000    0.00000  # hc,cp,cp,hc

# MiddleBondTorsion Coeffs

dihedral_coeff	 1 mbt  -17.78700   -7.18770    0.00000    1.53000  # c,c,c1,c
dihedral_coeff	 2 mbt    0.00000    0.00000    0.00000    1.53000  # c,c,c1,cp
dihedral_coeff	 3 mbt  -14.87900   -3.65810   -0.31380    1.53000  # c,c,c1,hc
dihedral_coeff	 4 mbt    0.00000    0.00000    0.00000    1.50100  # c,c,cp,cp
dihedral_coeff	 5 mbt  -17.78700   -7.18770    0.00000    1.53000  # c,c1,c,c1
dihedral_coeff	 6 mbt  -14.87900   -3.65810   -0.31380    1.53000  # c,c1,c,hc
dihedral_coeff	 7 mbt    0.00000    0.00000    0.00000    1.50100  # c,c1,cp,cp
dihedral_coeff	 8 mbt    0.00000    9.17920    0.00000    1.41700  # c,cp,cp,cp
dihedral_coeff	 9 mbt    0.00000    3.94210    0.00000    1.41700  # c,cp,cp,hc
dihedral_coeff	10 mbt    0.00000    0.00000    0.00000    1.53000  # c1,c,c,cp
dihedral_coeff	11 mbt  -14.87900   -3.65810   -0.31380    1.53000  # c1,c,c,hc
dihedral_coeff	12 mbt    0.00000    0.00000    0.00000    1.53000  # c1,c,c1,cp
dihedral_coeff	13 mbt  -14.87900   -3.65810   -0.31380    1.53000  # c1,c,c1,hc
dihedral_coeff	14 mbt    0.00000    9.17920    0.00000    1.41700  # c1,cp,cp,cp
dihedral_coeff	15 mbt    0.00000    3.94210    0.00000    1.41700  # c1,cp,cp,hc
dihedral_coeff	16 mbt    0.00000    0.00000    0.00000    1.53000  # cp,c,c,hc
dihedral_coeff	17 mbt    0.00000    0.00000    0.00000    1.53000  # cp,c1,c,hc
dihedral_coeff	18 mbt   -5.56790    1.40830    0.30100    1.50100  # cp,cp,c,hc
dihedral_coeff	19 mbt   -5.56790    1.40830    0.30100    1.50100  # cp,cp,c1,hc
dihedral_coeff	20 mbt   27.59890   -2.31200    0.00000    1.41700  # cp,cp,cp,cp
dihedral_coeff	21 mbt    0.00000   -1.15210    0.00000    1.41700  # cp,cp,cp,hc
dihedral_coeff	22 mbt  -14.26100   -0.53220   -0.48640    1.53000  # hc,c,c,hc
dihedral_coeff	23 mbt  -14.26100   -0.53220   -0.48640    1.53000  # hc,c,c1,hc
dihedral_coeff	24 mbt    0.00000    4.82280    0.00000    1.41700  # hc,cp,cp,hc

# EndBondTorsion Coeffs

dihedral_coeff	 1 ebt   -0.07320    0.00000    0.00000   -0.07320    0.00000    0.00000    1.53000    1.53000  # c,c,c1,c
dihedral_coeff	 2 ebt    0.00000    0.00000    0.00000    0.00000    0.00000    0.00000    1.53000    1.50100  # c,c,c1,cp
dihedral_coeff	 3 ebt    0.24860    0.24220   -0.09250    0.08140    0.05910    0.22190    1.53000    1.10100  # c,c,c1,hc
dihedral_coeff	 4 ebt    0.00000    0.00000    0.00000    0.00000    0.00000    0.00000    1.53000    1.41700  # c,c,cp,cp
dihedral_coeff	 5 ebt   -0.07320    0.00000    0.00000   -0.07320    0.00000    0.00000    1.53000    1.53000  # c,c1,c,c1
dihedral_coeff	 6 ebt    0.24860    0.24220   -0.09250    0.08140    0.05910    0.22190    1.53000    1.10100  # c,c1,c,hc
dihedral_coeff	 7 ebt    0.00000    0.00000    0.00000    0.00000    0.00000    0.00000    1.53000    1.41700  # c,c1,cp,cp
dihedral_coeff	 8 ebt    0.00000    0.24210    0.00000    0.00000   -0.69180    0.00000    1.50100    1.41700  # c,cp,cp,cp
dihedral_coeff	 9 ebt    0.00000   -1.79700    0.00000    0.00000   -0.48790    0.00000    1.50100    1.09820  # c,cp,cp,hc
dihedral_coeff	10 ebt    0.00000    0.00000    0.00000    0.00000    0.00000    0.00000    1.53000    1.50100  # c1,c,c,cp
dihedral_coeff	11 ebt    0.24860    0.24220   -0.09250    0.08140    0.05910    0.22190    1.53000    1.10100  # c1,c,c,hc
dihedral_coeff	12 ebt    0.00000    0.00000    0.00000    0.00000    0.00000    0.00000    1.53000    1.50100  # c1,c,c1,cp
dihedral_coeff	13 ebt    0.24860    0.24220   -0.09250    0.08140    0.05910    0.22190    1.53000    1.10100  # c1,c,c1,hc
dihedral_coeff	14 ebt    0.00000    0.24210    0.00000    0.00000   -0.69180    0.00000    1.50100    1.41700  # c1,cp,cp,cp
dihedral_coeff	15 ebt    0.00000   -1.79700    0.00000    0.00000   -0.48790    0.00000    1.50100    1.09820  # c1,cp,cp,hc
dihedral_coeff	16 ebt    0.00000    0.00000    0.00000    0.00000    0.00000    0.00000    1.50100    1.10100  # cp,c,c,hc
dihedral_coeff	17 ebt    0.00000    0.00000    0.00000    0.00000    0.00000    0.00000    1.50100    1.10100  # cp,c1,c,hc
dihedral_coeff	18 ebt   -0.58350    1.12200    0.39780    1.39970    0.77560    0.00000    1.41700    1.10100  # cp,cp,c,hc
dihedral_coeff	19 ebt   -0.58350    1.12200    0.39780    1.39970    0.77560    0.00000    1.41700    1.10100  # cp,cp,c1,hc
dihedral_coeff	20 ebt   -0.11850    6.32040    0.00000   -0.11850    6.32040    0.00000    1.41700    1.41700  # cp,cp,cp,cp
dihedral_coeff	21 ebt    0.00000   -6.89580    0.00000    0.00000   -0.46690    0.00000    1.41700    1.09820  # cp,cp,cp,hc
dihedral_coeff	22 ebt    0.21300    0.31200    0.07770    0.21300    0.31200    0.07770    1.10100    1.10100  # hc,c,c,hc
dihedral_coeff	23 ebt    0.21300    0.31200    0.07770    0.21300    0.31200    0.07770    1.10100    1.10100  # hc,c,c1,hc
dihedral_coeff	24 ebt    0.00000   -0.68900    0.00000    0.00000   -0.68900    0.00000    1.09820    1.09820  # hc,cp,cp,hc

# AngleTorsion Coeffs

dihedral_coeff	 1 at    0.38860   -0.31390    0.13890    0.38860   -0.31390    0.13890  112.67000  112.67000  # c,c,c1,c
dihedral_coeff	 2 at    0.00000    0.00000    0.00000    0.00000    0.00000    0.00000  112.67000  108.40000  # c,c,c1,cp
dihedral_coeff	 3 at   -0.24540    0.00000   -0.11360    0.31130    0.45160   -0.19880  112.67000  110.77000  # c,c,c1,hc
dihedral_coeff	 4 at    0.00000    0.00000    0.00000    0.00000    0.00000    0.00000  108.40000  120.05000  # c,c,cp,cp
dihedral_coeff	 5 at    0.38860   -0.31390    0.13890    0.38860   -0.31390    0.13890  112.67000  112.67000  # c,c1,c,c1
dihedral_coeff	 6 at   -0.24540    0.00000   -0.11360    0.31130    0.45160   -0.19880  112.67000  110.77000  # c,c1,c,hc
dihedral_coeff	 7 at    0.00000    0.00000    0.00000    0.00000    0.00000    0.00000  108.40000  120.05000  # c,c1,cp,cp
dihedral_coeff	 8 at    0.00000   -4.46830    0.00000    0.00000    3.89870    0.00000  120.05000  118.90000  # c,cp,cp,cp
dihedral_coeff	 9 at    0.00000   -0.12420    0.00000    0.00000    3.46010    0.00000  120.05000  117.94000  # c,cp,cp,hc
dihedral_coeff	10 at    0.00000    0.00000    0.00000    0.00000    0.00000    0.00000  112.67000  108.40000  # c1,c,c,cp
dihedral_coeff	11 at   -0.24540    0.00000   -0.11360    0.31130    0.45160   -0.19880  112.67000  110.77000  # c1,c,c,hc
dihedral_coeff	12 at    0.00000    0.00000    0.00000    0.00000    0.00000    0.00000  112.67000  108.40000  # c1,c,c1,cp
dihedral_coeff	13 at   -0.24540    0.00000   -0.11360    0.31130    0.45160   -0.19880  112.67000  110.77000  # c1,c,c1,hc
dihedral_coeff	14 at    0.00000   -4.46830    0.00000    0.00000    3.89870    0.00000  120.05000  118.90000  # c1,cp,cp,cp
dihedral_coeff	15 at    0.00000   -0.12420    0.00000    0.00000    3.46010    0.00000  120.05000  117.94000  # c1,cp,cp,hc
dihedral_coeff	16 at    0.00000    0.00000    0.00000    0.00000    0.00000    0.00000  108.40000  110.77000  # cp,c,c,hc
dihedral_coeff	17 at    0.00000    0.00000    0.00000    0.00000    0.00000    0.00000  108.40000  110.77000  # cp,c1,c,hc
dihedral_coeff	18 at    0.22510    0.65480    0.12370    4.62660    0.16320    0.04610  120.05000  111.00000  # cp,cp,c,hc
dihedral_coeff	19 at    0.22510    0.65480    0.12370    4.62660    0.16320    0.04610  120.05000  111.00000  # cp,cp,c1,hc
dihedral_coeff	20 at    1.97670    1.02390    0.00000    1.97670    1.02390    0.00000  118.90000  118.90000  # cp,cp,cp,cp
dihedral_coeff	21 at    0.00000    2.50140    0.00000    0.00000    2.71470    0.00000  118.90000  117.94000  # cp,cp,cp,hc
dihedral_coeff	22 at   -0.80850    0.55690   -0.24660   -0.80850    0.55690   -0.24660  110.77000  110.77000  # hc,c,c,hc
dihedral_coeff	23 at   -0.80850    0.55690   -0.24660   -0.80850    0.55690   -0.24660  110.77000  110.77000  # hc,c,c1,hc
dihedral_coeff	24 at    0.00000    2.45010    0.00000    0.00000    2.45010    0.00000  117.94000  117.94000  # hc,cp,cp,hc

# AngleAngleTorsion Coeffs

dihedral_coeff	 1 aat  -22.04500  112.67000  112.67000  # c,c,c1,c
dihedral_coeff	 2 aat    0.00000  112.67000  108.40000  # c,c,c1,cp
dihedral_coeff	 3 aat  -16.16400  112.67000  110.77000  # c,c,c1,hc
dihedral_coeff	 4 aat    0.00000  108.40000  120.05000  # c,c,cp,cp
dihedral_coeff	 5 aat  -22.04500  112.67000  112.67000  # c,c1,c,c1
dihedral_coeff	 6 aat  -16.16400  112.67000  110.77000  # c,c1,c,hc
dihedral_coeff	 7 aat    0.00000  108.40000  120.05000  # c,c1,cp,cp
dihedral_coeff	 8 aat  -14.40970  120.05000  118.90000  # c,cp,cp,cp
dihedral_coeff	 9 aat    4.44440  120.05000  117.94000  # c,cp,cp,hc
dihedral_coeff	10 aat    0.00000  112.67000  108.40000  # c1,c,c,cp
dihedral_coeff	11 aat  -16.16400  112.67000  110.77000  # c1,c,c,hc
dihedral_coeff	12 aat    0.00000  112.67000  108.40000  # c1,c,c1,cp
dihedral_coeff	13 aat  -16.16400  112.67000  110.77000  # c1,c,c1,hc
dihedral_coeff	14 aat  -14.40970  120.05000  118.90000  # c1,cp,cp,cp
dihedral_coeff	15 aat    4.44440  120.05000  117.94000  # c1,cp,cp,hc
dihedral_coeff	16 aat    0.00000  108.40000  110.77000  # cp,c,c,hc
dihedral_coeff	17 aat    0.00000  108.40000  110.77000  # cp,c1,c,hc
dihedral_coeff	18 aat   -5.88880  120.05000  111.00000  # cp,cp,c,hc
dihedral_coeff	19 aat   -5.88880  120.05000  111.00000  # cp,cp,c1,hc
dihedral_coeff	20 aat    0.00000  118.90000  118.90000  # cp,cp,cp,cp
dihedral_coeff	21 aat   -4.81410  118.90000  117.94000  # cp,cp,cp,hc
dihedral_coeff	22 aat  -12.56400  110.77000  110.77000  # hc,c,c,hc
dihedral_coeff	23 aat  -12.56400  110.77000  110.77000  # hc,c,c1,hc
dihedral_coeff	24 aat    0.35980  117.94000  117.94000  # hc,cp,cp,hc

# BondBond13 Coeffs

dihedral_coeff	 1 bb13    0.00000    1.53000    1.53000  # c,c,c1,c
dihedral_coeff	 2 bb13    0.00000    1.53000    1.50100  # c,c,c1,cp
dihedral_coeff	 3 bb13    0.00000    1.53000    1.10100  # c,c,c1,hc
dihedral_coeff	 4 bb13    0.00000    1.53000    1.41700  # c,c,cp,cp
dihedral_coeff	 5 bb13    0.00000    1.53000    1.53000  # c,c1,c,c1
dihedral_coeff	 6 bb13    0.00000    1.53000    1.10100  # c,c1,c,hc
dihedral_coeff	 7 bb13    0.00000    1.53000    1.41700  # c,c1,cp,cp
dihedral_coeff	 8 bb13    2.50850    1.50100    1.41700  # c,cp,cp,cp
dihedral_coeff	 9 bb13    0.87430    1.50100    1.09820  # c,cp,cp,hc
dihedral_coeff	10 bb13    0.00000    1.53000    1.50100  # c1,c,c,cp
dihedral_coeff	11 bb13    0.00000    1.53000    1.10100  # c1,c,c,hc
dihedral_coeff	12 bb13    0.00000    1.53000    1.50100  # c1,c,c1,cp
dihedral_coeff	13 bb13    0.00000    1.53000    1.10100  # c1,c,c1,hc
dihedral_coeff	14 bb13    2.50850    1.50100    1.41700  # c1,cp,cp,cp
dihedral_coeff	15 bb13    0.87430    1.50100    1.09820  # c1,cp,cp,hc
dihedral_coeff	16 bb13    0.00000    1.50100    1.10100  # cp,c,c,hc
dihedral_coeff	17 bb13    0.00000    1.50100    1.10100  # cp,c1,c,hc
dihedral_coeff	18 bb13   -3.48260    1.41700    1.10100  # cp,cp,c,hc
dihedral_coeff	19 bb13   -3.48260    1.41700    1.10100  # cp,cp,c1,hc
dihedral_coeff	20 bb13   53.00000    1.41700    1.41700  # cp,cp,cp,cp
dihedral_coeff	21 bb13   -6.27410    1.41700    1.09820  # cp,cp,cp,hc
dihedral_coeff	22 bb13    0.00000    1.10100    1.10100  # hc,c,c,hc
dihedral_coeff	23 bb13    0.00000    1.10100    1.10100  # hc,c,c1,hc
dihedral_coeff	24 bb13   -1.70770    1.09820    1.09820  # hc,cp,cp,hc

# Improper Coeffs

improper_coeff	 1    0.00000    0.00000  # c,c,cp,hc
improper_coeff	 2    0.00000    0.00000  # c,c,hc,c1
improper_coeff	 3    0.00000    0.00000  # c,c,hc,cp
improper_coeff	 4    0.00000    0.00000  # c,c,hc,hc
improper_coeff	 5    0.00000    0.00000  # c,c1,c1,hc
improper_coeff	 6    0.00000    0.00000  # c,c1,hc,hc
improper_coeff	 7    0.00000    0.00000  # c,cp,hc,hc
improper_coeff	 8    0.00000    0.00000  # c,hc,hc,hc
improper_coeff	 9    0.00000    0.00000  # c1,c,c,cp
improper_coeff	10    0.00000    0.00000  # c1,c,c,hc
improper_coeff	11    0.00000    0.00000  # c1,c,cp,hc
improper_coeff	12    7.81530    0.00000  # cp,c,cp,cp
improper_coeff	13    7.81530    0.00000  # cp,c1,cp,cp
improper_coeff	14    4.89120    0.00000  # cp,cp,cp,hc

# AngleAngle Coeffs

improper_coeff	 1 aa    2.04030   -1.82020    1.08270  108.40000  110.77000  111.00000  # c,c,cp,hc
improper_coeff	 2 aa    0.11840   -1.31990   -1.31990  110.77000  112.67000  110.77000  # c,c,hc,c1
improper_coeff	 3 aa    1.08270   -1.82020    2.04030  110.77000  108.40000  111.00000  # c,c,hc,cp
improper_coeff	 4 aa    0.27380   -0.48250    0.27380  110.77000  110.77000  107.66000  # c,c,hc,hc
improper_coeff	 5 aa   -1.31990   -1.31990    0.11840  112.67000  110.77000  110.77000  # c,c1,c1,hc
improper_coeff	 6 aa    0.27380   -0.48250    0.27380  110.77000  110.77000  107.66000  # c,c1,hc,hc
improper_coeff	 7 aa    2.37940    3.01180    2.37940  111.00000  111.00000  107.66000  # c,cp,hc,hc
improper_coeff	 8 aa   -0.31570   -0.31570   -0.31570  107.66000  107.66000  107.66000  # c,hc,hc,hc
improper_coeff	 9 aa    0.00000    0.00000    0.00000  112.67000  108.40000  108.40000  # c1,c,c,cp
improper_coeff	10 aa   -1.31990   -1.31990    0.11840  112.67000  110.77000  110.77000  # c1,c,c,hc
improper_coeff	11 aa    2.04030   -1.82020    1.08270  108.40000  110.77000  111.00000  # c1,c,cp,hc
improper_coeff	12 aa    0.00000    0.00000    0.00000  120.05000  120.05000  118.90000  # cp,c,cp,cp
improper_coeff	13 aa    0.00000    0.00000    0.00000  120.05000  120.05000  118.90000  # cp,c1,cp,cp
improper_coeff	14 aa    0.00000    0.00000    0.00000  118.90000  117.94000  117.94000  # cp,cp,cp,hc


# --- Thermo Output ---
thermo_style custom step time temp press enthalpy etotal ke pe ebond eangle edihed eimp evdwl ecoul elong etail vol lx ly lz density pxx pyy pzz
thermo_modify flush yes
thermo 1000

# --- Trajectory ---
dump dump_npt all custom 1000 npt_cool.dump id type mol x y z ix iy iz vx vy vz

# --- Restart Checkpointing ---
restart 10000 npt_1.rst npt_2.rst

# --- Initial Velocities (optional) ---
# Velocities read from data file

# --- SHAKE Constraints ---
# SHAKE disabled

# --- NPT Thermostat + Barostat (Nose-Hoover) ---
# T_damp = 100.0 fs  (heat bath coupling)
# P_damp = 1000.0 fs  (pressure bath coupling, ~10x T_damp typical)
# Ramp: T=630.0->550.0K  P=1.0->1.0atm
timestep 1.0
fix npt_fix all npt temp 630.0 550.0 100.0 iso 1.0 1.0 1000.0

run 2000000
PPPM Kokkos initialization ...
  using 12-bit tables for long-range coulomb
  G vector (1/distance) = 0.30019335
  grid = 30 30 30
  stencil order = 5
  estimated absolute RMS force accuracy = 0.00029659965
  estimated relative force accuracy = 8.9320103e-07
  using double precision cuFFT
  3d grid and FFT values/proc = 50653 27000
Generated 6 of 6 mixed pair_coeff terms from sixthpower/sixthpower mixing rule
Neighbor list info ...
  update: every = 1 steps, delay = 0 steps, check = yes
  max neighbors/atom: 4000, page size: 100000
  master list distance cutoff = 11.5
  ghost atom cutoff = 11.5
  binsize = 11.5, bins = 4 4 4
  1 neighbor lists, perpetual/occasional/extra = 1 0 0
  (1) pair lj/class2/coul/long/kk, perpetual
      attributes: full, newton off, kokkos_device
      pair build: full/bin/kk/device
      stencil: full/bin/3d
      bin: kk/device
Per MPI rank memory allocation (min/avg/max) = 41.13 | 41.13 | 41.13 Mbytes
   Step          Time           Temp          Press         Enthalpy        TotEng         KinEng         PotEng         E_bond        E_angle        E_dihed        E_impro         E_vdwl         E_coul         E_long         E_tail         Volume           Lx             Ly             Lz          Density          Pxx            Pyy            Pzz      
         0   0              624.40136      405.58382      23173.478      22719.982      11947.183      10772.799      5474.6595      4657.7142     -633.02255      439.48399      884.12123      3849.3423     -3899.5002     -375.15094      76668.597      42.482087      42.482087      42.482087      0.90276196    -165.12192     -929.4133       2311.2867    
      1000   1000           626.81955     -1422.5727      20932.559      22562.553      11993.452      10569.101      5345.3742      4658.8564     -711.96762      421.21179      908.71779      3844.0922     -3897.184      -366.08997      78566.197      42.829721      42.829721      42.829721      0.88095766    -1358.0551     -1403.5481     -1506.1148    
      2000   2000           626.80031      223.23868      23201.213      22945.583      11993.084      10952.498      5413.4054      4932.8582     -757.29097      428.57245      980.60726      3849.8656     -3895.5196     -366.31669      78517.571      42.820883      42.820883      42.820883      0.88150323     1627.375      -276.17528     -681.48365    
      3000   3000           618.61573     -658.17467      21740.161      22486.368      11836.482      10649.886      5377.5195      4789.0151     -804.27014      412.23773      924.6444       3845.7455     -3895.0057     -369.98217      77739.682      42.679002      42.679002      42.679002      0.89032385    -1993.6288      940.7802      -921.67539    
      4000   4000           624.9776      -2354.2662      19942.793      22643.376      11958.209      10685.167      5280.9872      4722.2117     -622.15399      421.03377      934.53325      3844.564      -3896.0088     -365.67682      78654.962      42.845845      42.845845      42.845845      0.87996347    -3152.9252     -1489.8446     -2420.0288    
      5000   5000           633.73588      518.31863      23641.859      23048.337      12125.788      10922.549      5463.2617      4821.876      -758.73439      431.65411      999.68086      3855.2284     -3890.4178     -366.31876      78517.128      42.820802      42.820802      42.820802      0.88150821     455.7705       785.68731      313.49807    
      6000   6000           628.28646      1980.9921      25100.275      22814.487      12021.52       10792.967      5388.914       4852.5336     -815.02931      422.48472      987.00339      3851.1283     -3894.0677     -363.535        79118.37       42.929824      42.929824      42.929824      0.87480939     2234.2697      2295.1681      1413.5386    
      7000   7000           640.27655      898.13691      24148.402      23108.448      12250.936      10857.512      5361.017       4895.4545     -789.13052      404.46959      1023.1412      3851.7208     -3889.161      -362.26621      79395.472      42.979885      42.979885      42.979885      0.87175617     983.09073      1515.511       195.80897    
      8000   8000           634.15368      106.08779      23025.103      22901.73       12133.782      10767.948      5382.2011      4685.5533     -717.33431      441.54984      1026.6316      3841.1128     -3891.7666     -360.69819      79740.618      43.042075      43.042075      43.042075      0.8679829      1064.5844      449.67971     -1196.0008    
      9000   9000           637.43875     -408.81887      22549.209      23023.284      12196.638      10826.646      5310.445       4848.5185     -739.38966      426.26962      1022.5848      3852.4157     -3894.1984     -361.72905      79513.373      43.001149      43.001149      43.001149      0.87046355     592.52696     -1630.3116     -188.67199    
     10000   10000          635.79743     -107.28569      22634.692      22759.669      12165.233      10594.436      5151.5797      4786.9692     -715.65603      421.04533      993.47611      3846.2915     -3889.2697     -360.08994      79875.313      43.066296      43.066296      43.066296      0.86651921    -729.37137     -1898.2295      2305.7438    
     11000   11000          644.03129      2553.2714      26231.318      23284.943      12322.779      10962.164      5315.3067      4987.4377     -781.53034      442.36833      1041.9865      3853.6843     -3897.0892     -363.50334      79125.261      42.931071      42.931071      42.931071      0.8747332      930.88869      3401.4912      3327.4342    
     12000   12000          626.20816     -1233.8179      21279.142      22729.974      11981.754      10748.22       5195.0418      4841.1507     -661.04307      425.27127      990.38621      3846.3791     -3888.966      -356.72477      80628.819      43.201295      43.201295      43.201295      0.85842127    -758.98536     -89.442587     -2853.0259    
     13000   13000          639.87895      98.604483      23147.806      23032.689      12243.328      10789.361      5235.7299      4849.6197     -704.17729      435.57748      1027.1757      3839.7122     -3894.2771     -359.3014       80050.611      43.097778      43.097778      43.097778      0.86462167    -547.6777       339.84416      503.64698    
     14000   14000          633.97973      203.04688      23124.493      22886.953      12130.454      10756.499      5172.6429      4828.2971     -695.98648      433.46323      1074.7899      3837.6502     -3894.3582     -358.55679      80216.852      43.127591      43.127591      43.127591      0.86282984     2228.7465     -870.51444     -749.09139    
     15000   15000          626.65112     -3.0612773      22810.175      22813.799      11990.23       10823.57       5258.6101      4889.6648     -767.85433      426.59764      1072.9343      3836.0019     -3892.3848     -354.35065      81169.024      43.297562      43.297562      43.297562      0.85270821     418.15519     -1613.5081      1186.1691    
     16000   16000          629.90663      507.53808      23380.786      22791.478      12052.52       10738.958      5205.3822      4843.2569     -776.11408      405.67492      1123.6848      3834.1157     -3897.0429     -361.26485      79615.542      43.019559      43.019559      43.019559      0.8693465      1934.2737      998.20978     -1409.8693    
     17000   17000          630.5474       973.37719      24170.755      23044.839      12064.78       10980.058      5380.5884      4883.518      -706.31572      422.5639       1072.8708      3824.5475     -3897.7146     -362.63901      79313.85       42.965151      42.965151      42.965151      0.8726533      2357.4461      203.23474      359.45073    
     18000   18000          622.61482     -382.99414      22238.777      22690.359      11913          10777.36       5317.1844      4727.2541     -678.99145      420.20064      1046.024       3837.2199     -3891.532      -355.75817      80847.888      43.240386      43.240386      43.240386      0.85609525     830.99491     -1207.1214     -772.85598    
     19000   19000          633.18298     -272.75721      22469.009      22779.518      12115.209      10664.309      5263.9787      4760.666      -689.77362      430.4144       957.57367      3839.9371     -3898.4875     -368.46936      78058.855      42.737331      42.737331      42.737331      0.88668343    -1143.364       67.414373      257.67799    
     20000   20000          628.52587     -1415.8034      21103.817      22766.809      12026.101      10740.708      5256.1812      4779.6613     -719.32745      421.94632      1077.9157      3823.4446     -3899.1133     -357.11846      80539.932      43.185414      43.185414      43.185414      0.85936866    -2428.7895     -1264.9622     -553.6586     
     21000   21000          625.68253     -757.47348      21965.56       22838.558      11971.697      10866.861      5257.8268      4922.2048     -670.10933      411.10307      1006.7176      3841.1493     -3902.0313     -363.95992      79025.999      42.913111      42.913111      42.913111      0.87583193    -1536.4624     -410.31226     -325.64579    
     22000   22000          625.21404      105.3647       22878.533      22755.414      11962.733      10792.681      5212.304       4841.3318     -655.8849       422.07469      1040.6282      3835.9568     -3903.7295     -358.97796      80122.736      43.110718      43.110718      43.110718      0.86384336     1118.3452     -30.359625     -771.89148    
     23000   23000          627.05857      1215.4137      24180.633      22779.029      11998.026      10781.003      5315.8536      4833.84       -792.36426      438.41147      1045.0533      3845.9081     -3905.6992     -363.7458       79072.519      42.92153       42.92153       42.92153       0.87531665     842.33139      1995.8772      808.03245    
     24000   24000          623.05496     -1873.4902      20537.749      22747.291      11921.421      10825.87       5224.3913      4762.1222     -530.78789      443.86788      992.42842      3833.481      -3899.6329     -355.67109      80867.681      43.243914      43.243914      43.243914      0.85588571    -2126.381      -2233.6379     -1260.4518    
     25000   25000          622.07834      36.185606      22782.801      22740.47       11902.735      10837.735      5322.1168      4802.0583     -691.11474      440.99597      1012.4707      3846.0657     -3894.8574     -358.57123      80213.62       43.127012      43.127012      43.127012      0.8628646     -469.75621     -854.95438      1433.2674    
     26000   26000          637.13867      584.7188       23727.121      23042.158      12190.896      10851.262      5193.1255      4851.4608     -643.00076      431.88231      1065.6896      3844.0526     -3891.948      -358.07976      80323.714      43.146734      43.146734      43.146734      0.86168193     1056.5828     -348.30312      1045.8767    
     27000   27000          619.47254      1257.9752      24148.46       22692.066      11852.876      10839.19       5347.0559      4801.2787     -775.99187      424.6671       1089.6879      3848.9117     -3896.4196     -362.32025      79383.63       42.977748      42.977748      42.977748      0.87188621     856.86261      514.98817      2402.0747    
     28000   28000          628.67113     -642.26441      22310.967      23063.408      12028.88       11034.528      5364.993       4893.1274     -673.81041      415.41706      1071.3145      3850.2009     -3886.7142     -358.04734      80330.988      43.148036      43.148036      43.148036      0.86160391    -1735.887      -797.81504      606.90879    
     29000   29000          616.36771     -1319.7351      21250.357      22798.997      11793.469      11005.528      5358.8572      4784.3049     -669.94372      434.38223      1141.7411      3846.1202     -3889.9337     -357.46692      80461.422      43.171377      43.171377      43.171377      0.86020718    -1575.0073     -1993.9527     -390.24531    
     30000   30000          636.90747      1479.6244      24873.882      23181.577      12186.473      10995.104      5431.2229      4925.2107     -788.35819      410.39795      1061.6907      3849.6761     -3894.7361     -366.75184      78424.41       42.803941      42.803941      42.803941      0.88255038     983.84593      1756.336       1698.6913    
     31000   31000          623.93285      393.57533      23173.223      22717.302      11938.219      10779.083      5274.2505      4855.0197     -744.20042      421.61731      1012.5005      3845.0421     -3885.1465     -362.10775      79430.216      42.986153      42.986153      42.986153      0.87137486     1946.2708      625.94189     -1391.4867    
     32000   32000          620.82558      380.76467      23168.119      22724.818      11878.765      10846.053      5270.4855      4802.0826     -676.03666      414.82387      1068.3401      3853.2088     -3886.8513     -360.29382      79830.113      43.058171      43.058171      43.058171      0.86700983     1452.3349      143.32026     -453.36116    
     33000   33000          633.35773      669.35822      23741.078      22954.719      12118.553      10836.166      5296.5408      4812.146      -698.53595      419.15449      1041.833       3847.4269     -3882.3987     -357.05691      80553.816      43.187895      43.187895      43.187895      0.85922054    -1219.3344     -140.17191      3367.5809    
     34000   34000          628.763        705.63553      23326.599      22497.737      12030.638      10467.1        5176.8849      4650.9936     -770.47328      415.55319      1028.9269      3846.8286     -3881.6142     -357.10679      80542.563      43.185884      43.185884      43.185884      0.85934058     519.67948     -240.26739      1837.4945    
     35000   35000          634.25755     -315.45494      22635.833      23008.727      12135.77       10872.957      5401.487       4647.664      -708.40744      424.45286      1138.5521      3849.8292     -3880.6203     -354.85533      81053.584      43.277026      43.277026      43.277026      0.85392268    -576.40775     -125.67597     -244.28111    
     36000   36000          625.12464     -1435.5161      21114.597      22791.695      11961.022      10830.673      5258.3503      4795.6085     -698.83626      423.49547      1084.7981      3854.5771     -3887.3201     -359.04509      80107.756      43.108031      43.108031      43.108031      0.86400489     434.13912     -969.05246     -3771.6351    
     37000   37000          619.9691       745.22683      23563.574      22676.502      11862.377      10814.125      5271.3152      4745.5683     -720.96474      410.43588      1156.4422      3837.5226     -3886.1944     -352.39441      81619.616      43.377533      43.377533      43.377533      0.84800072     520.59258     -120.96095      1836.0489    
     38000   38000          619.69803      525.61007      23347.213      22732.38       11857.19       10875.19       5392.3238      4788.9862     -776.86135      405.92315      1115.8386      3836.937      -3887.9576     -358.59629      80208.016      43.126008      43.126008      43.126008      0.86292489     1250.9469      786.50186     -460.61853    
     39000   39000          633.59691     -42.63371       23074.407      23124.58       12123.129      11001.451      5252.2212      4893.9726     -604.12229      425.55887      1066.7732      3853.0966     -3886.0492     -356.43428      80694.53       43.213028      43.213028      43.213028      0.85772224    -454.01327     -678.33441      1004.4466    
     40000   40000          627.89053      456.91289      23271.257      22735.023      12013.944      10721.079      5169.3024      4765.6288     -660.79312      409.29754      1078.4558      3842.1815     -3882.9943     -357.41968      80472.055      43.173279      43.173279      43.173279      0.86009352    -200.05015      1245.7847      325.00414    
     41000   41000          626.17338      452.0717       23240.582      22706.921      11981.088      10725.833      5240.8841      4718.9696     -683.25088      421.49738      1082.541       3832.2229     -3887.0313     -355.33758      80943.582      43.257439      43.257439      43.257439      0.85508315     1955.6582     -1439.4476      840.00446    
     42000   42000          637.28109      743.86289      23993.502      23099.263      12193.622      10905.642      5150.9861      4895.9393     -668.13236      420.047        1163.1994      3826.1043     -3882.5021     -348.9305       82429.872      43.5206        43.5206        43.5206        0.83966518     396.59042      1152.4874      682.51086    
     43000   43000          631.33109     -446.23799      22395.674      22922.598      12079.775      10842.822      5259.5171      4834.3347     -714.6367       415.54799      1106.2756      3832.4039     -3890.6201     -355.23725      80966.444      43.261511      43.261511      43.261511      0.85484171    -2077.2572      1041.8757     -303.33247    
     44000   44000          622.60894      220.53968      22959.805      22699.635      11912.887      10786.748      5279.7771      4683.4234     -667.62398      432.69154      1105.2998      3835.2116     -3882.0316     -355.57363      80889.846      43.247865      43.247865      43.247865      0.85565119    -834.82887      1509.9755     -13.527568    
     45000   45000          629.81703     -506.06089      22089.498      22686.188      12050.805      10635.382      5206.9159      4692.753      -698.10771      399.49859      1083.5807      3836.0827     -3885.3409     -355.7574       80848.063      43.240417      43.240417      43.240417      0.85609339    -63.908101     -44.606806     -1409.6677    
     46000   46000          629.97798      1289.0661      24523.786      22998.091      12053.885      10944.206      5408.6215      4810.3611     -765.80843      414.90266      1125.4874      3840.4546     -3889.8128     -354.41076      81155.258      43.295114      43.295114      43.295114      0.85285285     976.72437      1339.094       1551.3801    
     47000   47000          635.18107      1508.9812      24939.771      23169.559      12153.44       11016.119      5296.0545      4899.1661     -653.21845      425.89792      1089.2387      3843.5702     -3884.5895     -357.56756      80438.775      43.167326      43.167326      43.167326      0.86044936     1660.5424      802.49545      2063.9059    
     48000   48000          634.4873       767.42245      23616.685      22721.358      12140.166      10581.192      5288.4287      4780.6937     -880.23413      414.64666      1025.3771      3838.8949     -3886.6147     -359.54397      79996.604      43.088084      43.088084      43.088084      0.86520539    -433.42746      419.88028      2315.8145    
     49000   49000          621.48916     -1844.4876      20396.13       22575.445      11891.462      10683.984      5223.9052      4742.7516     -689.4699       399.86485      1062.0896      3829.4429     -3884.6005     -355.02184      81015.569      43.270259      43.270259      43.270259      0.85432336    -1432.8474     -3521.1844     -579.43089    
     50000   50000          619.86141      2342.9421      25395.372      22650.416      11860.316      10790.1        5375.7292      4823.8384     -849.30834      401.91852      1081.3158      3848.0627     -3891.4567     -358.03511      80333.733      43.148528      43.148528      43.148528      0.86157447     3184.4309      763.4039       3080.9915    
     51000   51000          626.59857     -889.01725      21904.164      22946.903      11989.224      10957.679      5326.5047      4832.1598     -657.06888      424.09768      1080.2608      3840.4553     -3888.7306     -357.63         80424.732      43.164814      43.164814      43.164814      0.86059961    -1341.2287      754.28281     -2080.1059    
     52000   52000          627.37438     -224.96515      22537.845      22800.372      12004.068      10796.303      5456.2996      4708.294      -764.37906      424.47466      1031.7805      3828.8543     -3889.0206     -359.45252      80016.955      43.091738      43.091738      43.091738      0.86498534    -1914.4427      1938.6572     -699.10992    
     53000   53000          624.87928      1124.6409      24036.612      22706.703      11956.327      10750.375      5276.2273      4816.5187     -725.24844      407.74354      1041.1129      3821.4166     -3887.3954     -354.72469      81083.435      43.282338      43.282338      43.282338      0.85360829     190.56712      1880.9425      1302.4132    
     54000   54000          617.13077     -280.1158       22313.001      22644.556      11808.069      10836.487      5347.3606      4841.5844     -795.05621      426.33674      1049.2158      3850.2023     -3883.1567     -354.39005      81160.001      43.295957      43.295957      43.295957      0.85280301     905.16735     -36.507989     -1709.0068    
     55000   55000          627.83728      1234.5845      24306.435      22877.307      12012.925      10864.381      5442.2835      4776.3363     -748.50558      404.53008      1047.0137      3833.3596     -3890.6362     -362.36745      79373.29       42.975882      42.975882      42.975882      0.8719998      888.72817      3205.6211     -390.59564    
     56000   56000          617.63521      102.42113      22725.074      22604.571      11817.721      10786.85       5345.33        4826.5543     -794.88544      412.10536      1050.5533      3837.175      -3889.9826     -356.52369      80674.294      43.209415      43.209415      43.209415      0.85793739     812.06481     -889.95005      385.14862    
     57000   57000          631.55866      309.65665      23073.371      22713.57       12084.129      10629.44       5302.4432      4682.0689     -752.36947      409.67914      1030.176       3846.2001     -3888.7577     -361.00817      79672.149      43.029752      43.029752      43.029752      0.86872884    -1155.815       1147.5644      937.22051    
     58000   58000          627.03974     -367.80916      22522.672      22955.096      11997.665      10957.431      5343.7445      4822.709      -686.49552      423.00647      1108.0355      3837.8425     -3891.4117     -356.78969      80614.147      43.198674      43.198674      43.198674      0.8585775     -839.14552      612.32235     -876.60431    
     59000   59000          628.12603      236.30926      23261.723      22978.718      12018.45       10960.267      5337.065       4883.4666     -789.09459      410.22076      1165.1497      3838.7715     -3885.3115     -350.25616      82117.888      43.465625      43.465625      43.465625      0.84285525     2030.2184     -2507.7004      1186.4098    
     60000   60000          630.4335      -531.88515      22357.874      22980.363      12062.601      10917.763      5331.5336      4821.9572     -658.93165      423.5413       1045.0696      3845.0581     -3890.4655     -358.41413      80248.781      43.133313      43.133313      43.133313      0.86248654    -314.48739      47.048644     -1328.2167    
     61000   61000          633.06438     -139.93921      22583.598      22749.05       12112.94       10636.11       5115.3222      4789.323      -732.94876      414.35785      1108.8763      3830.7986     -3889.6191     -354.78585      81069.458      43.279851      43.279851      43.279851      0.85375546     330.05167     -1405.0101      655.14078    
     62000   62000          628.51255      461.51768      23350.603      22805.145      12025.846      10779.299      5264.1914      4800.837      -695.20289      428.43409      1042.4897      3824.6748     -3886.1247     -354.91694      81039.514      43.274522      43.274522      43.274522      0.85407093     745.62383      1703.8786     -1064.9494    
     63000   63000          638.70528      313.18741      23467.725      23097.532      12220.872      10876.66       5206.3461      4870.8638     -721.54461      431.93363      1131.6313      3841.037      -3883.6069     -354.8748       81049.138      43.276235      43.276235      43.276235      0.85396951    -729.98481      2032.441      -362.89394    
     64000   64000          635.61469     -60.349343      22542.754      22613.739      12161.737      10452.002      5085.7075      4738.1541     -736.89943      408.47469      1032.2158      3816.2159     -3891.8662     -356.61579      80653.457      43.205695      43.205695      43.205695      0.85815904    -1030.5376      283.59777      565.89182    
     65000   65000          633.41478      169.6871       23159.82       22960.315      12119.644      10840.67       5336.4561      4748.9329     -771.86685      415.8828       1141.5702      3850.5424     -3880.8472     -356.77433      80617.619      43.199295      43.199295      43.199295      0.85854053     1830.2407     -189.74165     -1131.4378    
     66000   66000          624.71185     -1848.3467      20381.628      22528.076      11953.124      10574.952      5218.929       4744.1913     -763.82127      412.13769      1000.095       3848.0562     -3884.6361     -361.21231      79627.121      43.021644      43.021644      43.021644      0.86922009    -2762.304      -868.28685     -1914.4492    
     67000   67000          628.76555     -494.88077      22283.292      22868.1        12030.687      10837.413      5297.1654      4660.1755     -600.44308      430.15644      1092.3126      3839.9219     -3881.8757     -354.96636      81028.231      43.272513      43.272513      43.272513      0.85418985    -1556.9364      1490.4553     -1418.1613    
     68000   68000          630.93774     -2389.1278      20331.645      23161.044      12072.249      11088.795      5415.0387      4784.0795     -555.29959      426.41246      1075.5363      3828.5509     -3885.5228     -354.19681      81204.28       43.30383       43.30383       43.30383       0.852338      -3153.6854     -50.05586      -3963.6422    
     69000   69000          626.80603     -92.062559      22498.557      22604.598      11993.194      10611.404      5225.2377      4748.4392     -735.35843      416.70986      1025.215       3826.218      -3895.0571     -364.1729       78979.783      42.904744      42.904744      42.904744      0.87634443     557.91092     -556.94678     -277.15182    
     70000   70000          632.81922     -157.33147      22557.61       22742.995      12108.249      10634.747      5175.0408      4735.2483     -690.98357      419.57274      1032.7431      3852.3576     -3889.2325     -355.99227      80794.721      43.230905      43.230905      43.230905      0.85665861    -336.90777     -103.70931     -31.377328    
     71000   71000          629.04261     -1414.3667      21316.57       22983.258      12035.988      10947.271      5351.0141      4845.7866     -618.45972      405.76816      1030.4835      3825.0573     -3892.3794     -355.96492      80800.93       43.232013      43.232013      43.232013      0.85659277    -3152.324      -1166.2746      75.498458    
     72000   72000          627.08901     -1345.7434      21320.089      22899.552      11998.608      10900.944      5436.9671      4729.4642     -640.8326       440.14005      989.60091      3838.02       -3892.4153     -357.39806      80476.923      43.174149      43.174149      43.174149      0.86004149    -2866.2691     -94.55239      -1076.4087    
     73000   73000          624.4023       622.18479      23317.263      22591.12       11947.201      10643.919      5303.0375      4650.2183     -720.81795      429.71755      1032.9485      3840.716      -3891.9012     -359.41512      80025.282      43.093232      43.093232      43.093232      0.86489534     457.19344     -541.14564      1950.5066    
     74000   74000          633.95323      613.2599       23579.745      22871.528      12129.947      10741.581      5320.9071      4804.9323     -809.26695      423.04245      1045.4283      3843.5876     -3887.0494     -363.22696      79185.468      42.941957      42.941957      42.941957      0.87406812     2367.78       -1444.9208      916.92044    
     75000   75000          628.96252     -1565.1993      21084.854      22927.121      12034.455      10892.666      5436.4085      4739.6957     -699.63261      433.33913      1000.4343      3868.8681     -3886.4472     -356.38254      80706.244      43.215119      43.215119      43.215119      0.85759774    -1955.2431     -662.14163     -2078.2131    
     76000   76000          629.86876      471.31344      23018.689      22479.803      12051.795      10428.008      5149.7785      4737.9138     -821.84216      414.51536      991.88349      3852.1845     -3896.426      -366.86973      78399.209      42.799355      42.799355      42.799355      0.88283408    -539.322        1354.0859      599.17645    
     77000   77000          634.82541      320.56174      23317.095      22942.232      12146.635      10795.597      5280.1612      4797.1142     -709.49155      430.84106      1049.7586      3834.2928     -3887.0793     -358.70581      80183.526      43.121618      43.121618      43.121618      0.86318844     236.83185     -1206.3643      1931.2177    
     78000   78000          625.59298     -691.13978      21904.835      22713.642      11969.983      10743.659      5361.3283      4720.4915     -699.89649      426.76974      989.20079      3838.6612     -3892.8962     -358.44326      80242.257      43.132144      43.132144      43.132144      0.86255665     1415.9274     -1652.7418     -1836.605     
     79000   79000          621.6582      -1629.0562      20802.87       22694.519      11894.696      10799.823      5209.7419      4828.7413     -641.46291      427.67709      1000.0238      3861.8647     -3886.7626     -361.23923      79621.188      43.020576      43.020576      43.020576      0.86928486    -2441.6854     -2162.9906     -282.49275    
     80000   80000          622.78903     -854.26815      21752.655      22734.028      11916.333      10817.695      5297.8604      4805.4385     -667.28444      434.40246      1014.9823      3828.7524     -3896.4571     -365.14043      78770.506      42.866814      42.866814      42.866814      0.8786727     -761.86982     -1830.6649      29.730318    
     81000   81000          626.87253      291.11208      22943.29       22604.167      11994.466      10609.701      5257.9491      4628.8132     -685.61931      408.19328      1048.8665      3843.8861     -3892.3882     -360.08244      79876.976      43.066595      43.066595      43.066595      0.86650117    -224.74071      1161.9368     -63.85983     
     82000   82000          623.81075      44.195143      22731.074      22679.796      11935.883      10743.913      5384.6777      4725.8981     -767.81274      417.35475      1038.4647      3843.5699     -3898.2391     -361.52622      79557.981      43.009189      43.009189      43.009189      0.86997548     1325.5112      907.18644     -2100.1123    
     83000   83000          634.75878      314.80634      23207.034      22837.205      12145.36       10691.845      5261.6995      4706.3566     -694.41468      434.62051      1039.5561      3839.2617     -3895.2343     -357.06134      80552.815      43.187716      43.187716      43.187716      0.85923121     34.841394      1901.95       -992.37238    
     84000   84000          633.25996      913.63314      23616.971      22566.46       12116.682      10449.778      5208.9962      4702.3255     -844.75947      411.30531      1022.797       3847.5777     -3898.4638     -364.81339      78841.121      42.87962       42.87962       42.87962       0.8778857      1410.8018      1738.1037     -408.0061     
     85000   85000          629.14655      22.314952      22774.385      22748.457      12037.977      10710.48       5351.1416      4797.9177     -809.22543      418.91577      1005.2757      3838.6893     -3892.2343     -361.01711      79670.175      43.029397      43.029397      43.029397      0.86875035    -1007.3856     -750.0424       1824.3729    
     86000   86000          625.27568      1794.3376      24815.496      22729.237      11963.912      10765.325      5178.7667      4814.8825     -746.3986       440.20696      1138.187       3838.8408     -3899.1606     -360.77411      79723.838      43.039056      43.039056      43.039056      0.86816559     1733.3399      1311.1639      2338.5091    
     87000   87000          626.96608     -209.1612       22504.496      22751.805      11996.256      10755.549      5341.6692      4769.7775     -750.64855      429.5664       1022.6877      3833.111      -3890.6143     -354.76565      81074.073      43.280672      43.280672      43.280672      0.85370687     1508.4922     -642.8837      -1493.0921    
     88000   88000          627.94246      548.76475      23586.559      22934.885      12014.938      10919.948      5351.9196      4808.1919     -679.77692      432.86066      1063.5998      3832.2799     -3889.1274     -353.22811      81426.975      43.343379      43.343379      43.343379      0.85000693     575.42648      462.00125      608.86652    
     89000   89000          628.48822      159.50832      23090.67       22904.778      12025.38       10879.397      5330.7524      4784.1615     -741.55821      429.01481      1109.0128      3856.3364     -3888.3224     -359.93321      79910.093      43.072546      43.072546      43.072546      0.86614206    -278.25511      1129.4737     -372.69367    
     90000   90000          633.95        -1429.8468      21246.7        22937.665      12129.885      10807.78       5359.9503      4740.6961     -712.54466      424.01694      1024.6405      3852.9008     -3881.8803     -354.69447      81090.343      43.283567      43.283567      43.283567      0.85353558    -2255.6006     -2713.4335      679.49382    
     91000   91000          622.74413      1223.4706      23954.268      22543.665      11915.474      10628.191      5168.6582      4739.7533     -750.30411      428.17339      1089.0327      3842.8631     -3889.9853     -363.82133      79056.103      42.918559      42.918559      42.918559      0.87549842     576.71281      1193.3154      1900.3837    
     92000   92000          620.4935      -724.01968      21815.171      22661.8        11872.411      10789.389      5245.0836      4729.801      -572.56841      438.00364      1000.2335      3840.5247     -3891.6891     -358.72099      80180.133      43.12101       43.12101       43.12101       0.86322497    -1093.0214     -989.89023     -89.147365    
     93000   93000          633.20569      2872.9577      26199.083      22855.688      12115.643      10740.044      5287.0006      4731.8513     -800.92418      435.57037      1140.6821      3833.4857     -3887.6215     -360.44666      79796.263      43.052085      43.052085      43.052085      0.86737762     3351.1876      2115.4062      3152.2792    
     94000   94000          625.57097     -780.95507      21604.143      22519.154      11969.562      10549.592      5106.5201      4653.332      -645.47616      436.43881      1062.666       3829.9116     -3893.8006     -358.01344      80338.595      43.149398      43.149398      43.149398      0.86152232    -401.93501      316.43251     -2257.3627    
     95000   95000          620.54442      773.5984       23742.335      22831.914      11873.385      10958.529      5467.5137      4736.3095     -675.3679       453.54352      1028.4364      3837.71       -3889.6164     -356.42887      80695.755      43.213247      43.213247      43.213247      0.85770922     3376.3869     -1858.5799      802.98818    
     96000   96000          625.74271      73.41768       22780.141      22692.125      11972.848      10719.277      5189.4406      4665.7647     -664.28023      430.23973      1154.2503      3828.7606     -3884.8984     -349.89639      82202.324      43.480517      43.480517      43.480517      0.84198949     718.70812     -1980.191       1481.7359    
     97000   97000          633.35093     -3653.3172      18723.747      23078.725      12118.422      10960.302      5517.9406      4656.5324     -588.58017      421.7057       1016.3225      3822.7719     -3886.3906     -351.88509      81737.752      43.398451      43.398451      43.398451      0.8467751     -4165.1446     -4758.2458     -2036.5613    
     98000   98000          627.97364      412.88139      23071.828      22592.433      12015.534      10576.899      5273.8985      4706.166      -734.56307      417.5191       959.27343      3837.8921     -3883.2872     -361.26997      79614.413      43.019355      43.019355      43.019355      0.86935883     3228.4163     -693.3949      -1296.3772    
     99000   99000          626.35121      1291.9795      24514.385      23001.803      11984.491      11017.312      5503.1522      4795.4819     -705.79351      413.85853      1034.5846      3856.4995     -3880.4714     -358.29117      80276.319      43.138246      43.138246      43.138246      0.86219066     1395.2133      1230.0635      1250.6616    
    100000   100000         626.2375      -1137.9988      21502.937      22850.384      11982.315      10868.068      5322.6258      4814.3535     -668.89708      398.79575      1048.5085      3832.9121     -3880.2302     -354.26615      81188.386      43.301004      43.301004      43.301004      0.85250486    -323.00081     -2226.1346     -864.86107    
    101000   101000         623.57705      26.853999      22614.64       22583.665      11931.411      10652.254      5234.2798      4846.6613     -725.58289      401.79983      952.73751      3832.2873     -3889.9287     -363.66549      79089.981      42.924689      42.924689      42.924689      0.87512339     830.84074      258.18034     -1008.4591    
    102000   102000         624.97162      609.27354      23392.994      22681.111      11958.094      10723.017      5439.4597      4646.2542     -701.21319      428.40596      960.25333      3837.1767     -3887.3202     -359.00697      80116.261      43.109557      43.109557      43.109557      0.86391317     497.54441     -594.17824      1924.4545    
    103000   103000         628.95067     -966.8093       21740.66       22863.199      12034.229      10828.97       5373.5855      4799.7885     -709.34644      420.18108      996.78704      3837.6349     -3889.6608     -361.27583      79613.122      43.019123      43.019123      43.019123      0.86937293    -2678.188      -383.7067       161.4668     
    104000   104000         622.48525     -491.38324      22143.204      22725.963      11910.52       10815.442      5343.3493      4725.0753     -676.23172      435.58166      1039.3647      3835.028      -3886.725      -353.6969       81319.052      43.324222      43.324222      43.324222      0.85113502    -1328.5661     -123.89874     -21.684916    
    105000   105000         625.27604     -502.57999      21880.077      22463.965      11963.919      10500.046      5174.8077      4723.352      -728.0747       409.46778      989.21198      3826.646      -3895.3647     -361.05638      79661.511      43.027837      43.027837      43.027837      0.86884484    -1474.2323     -1131.2036      1097.6959    
    106000   106000         626.67518     -2017.164       20456.802      22841.819      11990.69       10851.129      5460.2764      4689.3141     -707.19255      432.55637      1039.7094      3828.6876     -3892.2223     -354.77187      81072.652      43.280419      43.280419      43.280419      0.85372183    -3711.8888     -692.37551     -1647.2278    
    107000   107000         623.96629     -1226.9339      21141.363      22584.994      11938.858      10646.136      5305.3796      4637.7325     -736.90799      411.29239      1069.1667      3844.0174     -3884.545      -356.50409      80678.727      43.210207      43.210207      43.210207      0.85789024     145.81226     -1799.5646     -2027.0493    
    108000   108000         631.50473      659.79619      23379.078      22598.166      12083.098      10515.068      5307.1614      4620.5484     -838.46827      418.20398      1060.6788      3832.8439     -3885.9003     -354.4109       81155.224      43.295108      43.295108      43.295108      0.8528532     -491.18079      922.2481       1548.3213    
    109000   109000         627.1674      -509.42784      21984.519      22585.441      12000.108      10585.333      5247.3957      4642.133      -753.49957      418.26057      1071.1234      3841.1279     -3881.208      -355.60164      80883.476      43.246729      43.246729      43.246729      0.85571858    -853.45652     -351.24889     -323.5781     
    110000   110000         633.16835     -1391.3776      21034.071      22675.18       12114.929      10560.251      5240.7206      4638.7702     -720.01188      401.35534      1053.8936      3833.9339     -3888.4111     -355.63716      80875.397      43.245289      43.245289      43.245289      0.85580406    -663.46869     -2467.2692     -1043.3949    
    111000   111000         614.0901       759.05059      23586.414      22688.879      11749.889      10938.99       5450.4369      4778.333      -734.92924      429.7719       1050.6187      3844.6255     -3879.8667     -354.74707      81078.32       43.281428      43.281428      43.281428      0.85366215     125.95384      172.35104      1978.8469    
    112000   112000         624.27341     -556.53108      22081.946      22742.331      11944.735      10797.597      5261.7578      4749.5867     -696.38653      420.95903      1102.621       3844.0235     -3884.965      -353.50164      81363.97       43.332197      43.332197      43.332197      0.85066514    -1570.9116     -21.324661     -77.356984    
    113000   113000         620.9668       3033.3125      26146.465      22601.877      11881.467      10720.411      5288.5961      4744.9297     -788.37744      425.43495      1104.8715      3837.9481     -3892.9923     -358.96403      80125.846      43.111276      43.111276      43.111276      0.86380983     1492.4342      3374.9999      4232.5033    
    114000   114000         630.05544     -1976.8722      20520.724      22844.488      12055.367      10789.12       5240.6332      4820.0996     -709.19577      416.58247      1084.0349      3831.0985     -3894.1325     -356.85028      80600.46       43.19623       43.19623       43.19623       0.8587233     -1945.1358     -2575.1045     -1410.3764    
    115000   115000         630.07594      183.64419      22985.435      22767.308      12055.759      10711.548      5354.569       4627.3172     -774.60488      420.42851      1119.206       3846.7377     -3882.1054     -353.15603      81443.595      43.346328      43.346328      43.346328      0.84983347     1048.3765     -72.922007     -424.52191    
    116000   116000         636.9057       1134.3325      24168.461      22824.437      12186.439      10637.998      5238.4925      4662.4084     -765.0369       409.54981      1121.2351      3848.5834     -3877.2341     -354.02402      81243.912      43.310873      43.310873      43.310873      0.85192221     1217.9487     -175.80229      2360.8512    
    117000   117000         623.54485     -1056.5625      21487.225      22734.04       11930.795      10803.245      5131.0498      4843.8536     -668.37604      413.00395      1132.4544      3835.8503     -3884.5906     -355.46149      80915.367      43.252412      43.252412      43.252412      0.85538132    -951.92686     -1480.4581     -737.30245    
    118000   118000         630.72657      258.54352      23216.759      22906.174      12068.209      10837.966      5327.8171      4710.8512     -743.02505      424.64844      1169.4948      3830.329      -3882.1497     -349.18243      82370.4        43.510131      43.510131      43.510131      0.84027142     1259.9643      100.61655     -584.95031    
    119000   119000         622.46721      2224.2984      25213.802      22627.502      11910.175      10717.327      5290.0187      4771.5753     -797.47102      425.64155      1086.9658      3837.1415     -3896.5449     -360.756        79727.839      43.039775      43.039775      43.039775      0.86812203     2684.7983      1927.7738      2060.3233    
    120000   120000         621.15697     -182.94754      22278.952      22495.048      11885.106      10609.942      5290.9788      4719.0295     -777.84031      408.02372      1012.674       3841.6603     -3884.5836     -355.12377      80992.315      43.266119      43.266119      43.266119      0.85456865     439.34229     -327.72044     -660.46447    
    121000   121000         624.83545     -1936.3187      20423.361      22709.667      11955.489      10754.178      5260.0008      4799.8092     -698.39486      415.92996      1039.381       3818.157      -3880.7049     -355.25647      80962.062      43.260731      43.260731      43.260731      0.85488797    -1324.6556     -1458.3288     -3025.9717    
    122000   122000         629.98518      850.51834      23898.253      22896.344      12054.023      10842.321      5378.8967      4702.0178     -688.83919      435.69588      1084.4134      3825.583      -3895.4464     -356.08588      80773.482      43.227117      43.227117      43.227117      0.85688386    -698.60136      1055.5152      2194.6412    
    123000   123000         623.9172      -613.94531      21970.015      22697.365      11937.919      10759.445      5322.3634      4727.083      -695.28426      428.85656      1028.4706      3836.1921     -3888.236      -354.06754      81233.926      43.309099      43.309099      43.309099      0.85202694    -1973.0064     -292.81567      423.98614    
    124000   124000         622.52767      346.03621      23121.264      22717.634      11911.332      10806.302      5299.6124      4800.0925     -762.33833      432.76021      1102.7799      3833.7085     -3900.3136     -359.61504      79980.794      43.085245      43.085245      43.085245      0.86537641     1560.0448      780.01413     -1301.9503    
    125000   125000         635.91797      1588.0985      24676.741      22829.45       12167.54       10661.91       5317.532       4756.9962     -833.46351      405.53842      1090.6         3821.9801     -3897.273      -360.61319      79759.412      43.045456      43.045456      43.045456      0.86777837     1301.7372      1859.3458      1603.2124    
    126000   126000         612.75604     -513.76973      21963.581      22570.139      11724.364      10845.776      5301.9973      4757.276      -702.6439       433.75044      1113.2932      3833.0804     -3890.978      -355.30036      80952.06       43.258949      43.258949      43.258949      0.85499359    -3526.9247      27.019657      1958.5958    
    127000   127000         612.46334     -932.07122      21292.263      22381.744      11718.763      10662.981      5412.9145      4532.2365     -723.893        427.03318      1061.8345      3843.9987     -3891.1439     -358.86335      80148.324      43.115307      43.115307      43.115307      0.86356756    -1209.7376     -1883.2044      296.72835    
    128000   128000         630.94971     -1203.6337      21393.564      22810.987      12072.478      10738.509      5201.3539      4697.0182     -629.141        437.83368      1086.5005      3838.2702     -3893.3268     -356.20042      80747.51       43.222483      43.222483      43.222483      0.85715947    -1890.4315     -2186.5384      466.06886    
    129000   129000         619.57709     -1543.9345      20830.79       22640.508      11854.876      10785.631      5310.1137      4812.6537     -666.11371      420.5717       982.97344      3819.2167     -3893.7842     -357.86366      80372.22       43.155417      43.155417      43.155417      0.8611619      134.72959     -2988.339      -1778.1941    
    130000   130000         616.85522     -1462.2796      20705.418      22421.636      11802.797      10618.84       5308.4808      4611.0445     -716.46754      442.10698      1043.0502      3825.0207     -3894.396      -357.40234      80475.959      43.173977      43.173977      43.173977      0.86005179    -2151.9646     -1072.8521     -1162.0222    
    131000   131000         629.82668     -728.13437      21850.993      22717.027      12050.99       10666.036      5130.5013      4780.5527     -706.63899      416.86347      1095.1251      3835.0332     -3885.4004     -352.67624      81554.393      43.365975      43.365975      43.365975      0.84867891    -2956.1615     -783.00644      1554.7649    
    132000   132000         627.55537     -1512.8686      20675.916      22448.479      12007.531      10440.947      5175.4548      4524.6482     -709.53311      414.20739      1098.41        3830.6252     -3892.8652     -358.01327      80338.632      43.149405      43.149405      43.149405      0.86152193    -2642.4983     -209.17061     -1686.9371    
    133000   133000         620.38394     -748.49226      21721.852      22607.318      11870.314      10737.004      5144.8211      4793.9336     -655.62273      420.38711      1097.5795      3828.3675     -3892.462      -354.5802       81116.476      43.288216      43.288216      43.288216      0.8532606      1519.0574     -645.72844     -3118.8058    
    134000   134000         628.59118     -355.42184      22499.726      22923.134      12027.35       10895.784      5387.6967      4751.4619     -702.69739      441.45021      1078.6808      3830.955      -3891.7634     -352.11463      81684.469      43.389019      43.389019      43.389019      0.84732745    -890.49722     -476.796        301.02769    
    135000   135000         630.52397      2245.5177      25689.12       22978.655      12064.332      10914.323      5284.7945      4837.8438     -796.23073      422.14221      1226.2569      3830.8933     -3891.3767     -347.51393      82765.881      43.579654      43.579654      43.579654      0.83625634     411.76174      3117.8871      3206.9042    
    136000   136000         624.85233      693.71081      23516.91       22712.27       11955.812      10756.458      5284.9742      4704.113      -673.50255      398.91837      1099.5175      3835.3093     -3892.8714     -361.64003      79532.945      43.004677      43.004677      43.004677      0.87024934     1778.8159      1210.0429     -907.72638    
    137000   137000         635.01155      1023.25        24154.032      22947.216      12150.196      10797.019      5378.4885      4697.5251     -811.82917      409.1469       1190.6923      3825.0232     -3892.0275     -355.66411      80869.269      43.244197      43.244197      43.244197      0.85586891     1471.3047      1338.2238      260.22159    
    138000   138000         615.52661     -1590.4693      20708.007      22581.89       11777.375      10804.515      5331.7462      4736.4119     -687.81797      410.97293      1068.009       3837.8586     -3892.6654     -356.02635      80786.988      43.229526      43.229526      43.229526      0.85674061    -47.096607     -2243.5434     -2480.768     
    139000   139000         630.53032      1719.6081      24591.723      22566.188      12064.453      10501.735      5143.1265      4612.6599     -763.19662      428.45669      1136.8363      3831.5376     -3887.6853     -356.11414      80767.071      43.225973      43.225973      43.225973      0.85695187     3696.5032      948.92036      513.40066    
    140000   140000         624.7546       1062.5284      24146.688      22880.426      11953.942      10926.484      5344.6539      4797.614      -776.98013      423.85525      1188.1173      3834.7097     -3885.4856     -351.97887      81715.976      43.394597      43.394597      43.394597      0.84700075     1555.2384      999.66732      632.67934    
    141000   141000         628.80998     -380.45199      22395.877      22846.837      12031.537      10815.3        5212.0819      4824.2539     -664.34969      424.03009      1069.1724      3838.9127     -3888.8015     -353.8846       81275.92       43.31656       43.31656       43.31656       0.85158671    -1440.4207      808.28151     -509.21683    
    142000   142000         614.16686     -216.94019      22364.101      22618.101      11751.358      10866.743      5297.8595      4934.5576     -801.53604      424.34644      1061.5786      3846.0837     -3896.1472     -358.26684      80281.772      43.139223      43.139223      43.139223      0.8621321     -372.11531     -427.66238      148.95713    
    143000   143000         624.53021      326.09685      23102.761      22720.534      11949.648      10770.885      5248.6952      4813.4175     -755.01545      416.52249      1096.2881      3840.354      -3889.3766     -357.86942      80370.925      43.155186      43.155186      43.155186      0.86117577    -1060.3901      1182.1956      856.48497    
    144000   144000         637.54199      25.318696      23098.616      23068.55       12198.613      10869.936      5234.9768      4841.635      -694.23962      426.16702      1107.5223      3837.339      -3883.464      -353.23372      81425.681      43.34315       43.34315       43.34315       0.85002044    -1113.38        699.99386      489.34218    
    145000   145000         624.2154       395.72216      23237.466      22761.949      11943.625      10818.324      5303.7816      4753.8333     -764.74499      403.6726       1172.1681      3835.9539     -3886.3409     -349.07897      82394.812      43.514429      43.514429      43.514429      0.84002246     1078.0155     -1133.7767      1242.9276    
    146000   146000         623.60393      1184.5242      24109.873      22695.868      11931.925      10763.943      5186.6347      4809.2673     -802.90781      420.16815      1187.9649      3846.5092     -3883.6938     -351.39245      81852.347      43.418723      43.418723      43.418723      0.8455896      692.47388     -104.41955      2965.5182    
    147000   147000         630.45321      169.65976      23122.796      22921.302      12062.978      10858.324      5180.6126      4836.776      -683.1917       440.87584      1125.1832      3844.6543     -3886.5858     -353.19785      81433.952      43.344617      43.344617      43.344617      0.8499341      230.84918     -278.96173      557.09184    
    148000   148000         620.80078     -220.00654      22254.241      22514.824      11878.29       10636.533      5133.3213      4774.504      -690.14198      401.11927      1057.683       3848.5732     -3888.5255     -354.1517       81214.622      43.305668      43.305668      43.305668      0.85222946     13.389827      1509.7652     -2183.1747    
    149000   149000         623.86678      699.01321      23674.82       22851.939      11936.955      10914.984      5332.7761      4795.5691     -660.74046      420.29691      1090.9794      3827.0861     -3890.9828     -356.32635      80718.972      43.217391      43.217391      43.217391      0.85746252     46.089693     -245.2577       2296.2076    
    150000   150000         626.43095      139.30244      22773.48       22606.724      11986.017      10620.707      5276.9019      4543.9623     -747.72715      423.11455      1157.9006      3841.9205     -3875.3659     -350.40994      82081.851      43.459265      43.459265      43.459265      0.8432253     -1046.6821      772.8361       691.75329    
[...]
   1955000   1955000        555.71004      611.76249      20426.851      19727.31       10632.856      9094.4544      4690.4725      4373.0237     -1122.3666      372.23962      846.40887      3836.8879     -3902.2116     -366.83347      78406.959      42.800765      42.800765      42.800765      0.88274681     1419.2401     -1350.2082      1766.2556    
   1956000   1956000        549.04483     -1298.7159      18022.067      19507.623      10505.325      9002.298       4673.862       4235.4765     -1006.6623      371.89985      797.98836      3826.6114     -3896.8778     -366.71157      78433.022      42.805507      42.805507      42.805507      0.88245348    -1533.5942     -611.33553     -1751.218     
   1957000   1957000        544.4481       149.6856       19773.071      19604.387      10417.372      9187.0154      4743.4331      4297.1664     -982.45527      363.42076      833.59417      3831.9013     -3900.0451     -372.22462      77271.343      42.593123      42.593123      42.593123      0.89572007    -13.149281      1631.6942     -1169.4881    
   1958000   1958000        551.90227     -726.51975      18907.34       19742.938      10559.999      9182.9394      4814.8145      4149.5961     -980.78504      367.18643      914.69542      3817.2736     -3899.8415     -364.71171      78863.102      42.883605      42.883605      42.883605      0.87764102     403.52505     -1533.6225     -1049.4618    
   1959000   1959000        546.72993      270.22634      19670.255      19361.329      10461.032      8900.2969      4633.2236      4041.6206     -1039.852       378.03015      948.1927       3839.1651     -3900.0832     -366.92115      78388.223      42.797356      42.797356      42.797356      0.88295781    -107.20092      840.42064      77.459289    
   1960000   1960000        545.41672      686.88508      20386.638      19595.369      10435.905      9159.4638      4743.069       4254.6318     -1021.0749      373.63781      887.63769      3815.3818     -3893.8194     -364.13255      78988.535      42.906328      42.906328      42.906328      0.87624734     1167.2315      1716.6687     -823.24499    
   1961000   1961000        550.5419       340.17779      20082.782      19699.2        10533.969      9165.231       4830.1061      4292.2502     -1075.9868      381.79277      801.78328      3839.3325     -3904.0469     -372.00369      77317.234      42.601554      42.601554      42.601554      0.89518842     1431.9947     -1407.8219      996.36059    
   1962000   1962000        565.65491      348.26495      20191.683      19791.414      10823.139      8968.2753      4619.3535      4178.9356     -1043.9669      375.5128       924.16965      3817.8492     -3903.5785     -364.97064      78807.151      42.873461      42.873461      42.873461      0.87826412     541.06437     -16.665225      520.3957     
   1963000   1963000        544.0017      -770.55477      18767.849      19660.601      10408.83       9251.7702      4846.2886      4162.5204     -967.58114      385.57929      891.24104      3833.7275     -3900.0054     -362.05296      79442.234      42.988321      42.988321      42.988321      0.87124303    -494.07357      42.927583     -1860.5183    
   1964000   1964000        557.92488      1866.3343      21675.971      19604.105      10675.234      8928.8713      4568.7435      4230.1125     -1106.0341      378.65118      944.54991      3815.7639     -3902.9156     -377.85691      76119.547      42.380434      42.380434      42.380434      0.90927358     1697.121       1479.4649      2422.417     
   1965000   1965000        555.86332     -83.567485      19682.191      19778.449      10635.789      9142.6601      4688.3438      4235.1588     -991.91373      364.46973      929.37897      3822.652      -3905.4295     -364.167        78981.063      42.904975      42.904975      42.904975      0.87633023     584.4288      -1069.2068      234.07554    
   1966000   1966000        553.10899     -152.39323      19453.828      19627.089      10583.088      9044.0007      4623.5518      4238.0385     -984.82652      386.83552      852.42992      3833.6707     -3905.6992     -368.9487       77957.441      42.718815      42.718815      42.718815      0.8878369     -560.15344     -765.95779      868.93154    
   1967000   1967000        551.56535     -1234.8388      18401.368      19796.589      10553.552      9243.0372      4751.9646      4253.1613     -924.85714      370.9511       851.11854      3842.7973     -3902.0985     -371.2503       77474.137      42.630352      42.630352      42.630352      0.89337546     752.31211     -1872.9077     -2583.9209    
   1968000   1968000        538.11506     -1575.4758      17626.676      19404.609      10296.196      9108.4128      4740.3101      4213.4808     -949.48681      363.89127      815.53598      3835.542      -3910.8606     -371.70277      77379.829      42.613047      42.613047      42.613047      0.89446428    -1651.2871     -2043.5872     -1031.5531    
   1969000   1969000        549.42207     -1111.7879      18218.996      19479.173      10512.543      8966.6303      4726.1543      4139.9654     -1011.8864      365.86446      826.73507      3831.607      -3911.8095     -370.07491      77720.201      42.675437      42.675437      42.675437      0.89054701    -1695.9565     -1969.5416      330.13446    
   1970000   1970000        550.4889       133.94126      19732.469      19583.061      10532.955      9050.1058      4629.1825      4259.0715     -955.71703      379.07174      804.84896      3840.6433     -3906.9951     -376.04499      76486.318      42.448393      42.448393      42.448393      0.90491339     419.4248      -167.01082      149.40979    
   1971000   1971000        560.36923      558.56733      20338.44       19705.961      10722.004      8983.9574      4639.6418      4268.2414     -1051.3498      377.46122      838.17273      3822.2505     -3910.4604     -370.44954      77641.604      42.661046      42.661046      42.661046      0.89144852     1529.3313      41.813516      104.55722    
   1972000   1972000        543.6604       10.42633       19365.677      19353.872      10402.3        8951.5721      4714.1705      4175.3446     -1038.6674      356.35859      820.89318      3835.3052     -3911.8326     -370.49005      77633.115      42.659491      42.659491      42.659491      0.891546       391.68681     -478.21778      117.80996    
   1973000   1973000        550.8445      -250.92992      19246.423      19526.31       10539.759      8986.5511      4680.516       4229.0406     -1039.0885      370.67733      809.33689      3844.5861     -3908.5173     -376.06995      76481.24       42.447453      42.447453      42.447453      0.90497346    -645.72762      140.27379     -247.33593    
   1974000   1974000        557.83781      656.78811      20530.477      19777.011      10673.568      9103.4424      4627.8009      4281.6051     -1001.2379      354.99715      919.04135      3822.9113     -3901.6755     -365.64609      78661.573      42.847045      42.847045      42.847045      0.87988951     1567.9362      1000.0514     -597.62328    
   1975000   1975000        563.10398     -588.48099      19095.206      19757.715      10774.33       8983.3849      4612.6077      4304.3531     -1050.3529      366.73866      822.8288       3832.7679     -3905.5583     -372.59778      77193.957      42.5789        42.5789        42.5789        0.89661803     120.57582      610.92546     -2496.9443    
   1976000   1976000        542.33496     -279.06375      19343.161      19658.174      10376.939      9281.2347      4855.9881      4291.6809     -1047.4184      378.10862      884.63406      3830.4675     -3912.226      -371.59849      77401.542      42.617032      42.617032      42.617032      0.89421336     449.33487     -1787.7176      501.19145    
   1977000   1977000        556.87332      1912.6543      21721.317      19573.526      10655.114      8918.4122      4686.4767      4113.5535     -1061.3648      384.71399      860.1855       3840.4265     -3905.5792     -373.5458       76998.046      42.542849      42.542849      42.542849      0.89889935     3735.2565     -156.27293      2158.9793    
   1978000   1978000        549.02821     -1477.8582      18002.274      19693.879      10505.007      9188.8722      4861.1392      4138.1576     -907.4434       379.16133      805.20624      3817.9607     -3905.3095     -366.46565      78485.655      42.81508       42.81508       42.81508       0.8818617     -690.19479     -2167.6579     -1575.7221    
   1979000   1979000        550.63994      1645.5843      21543.63       19695.469      10535.845      9159.6233      4903.3932      4202.1449     -1110.4329      371.02239      866.02781      3830.388      -3902.9201     -373.49067      77009.41       42.544942      42.544942      42.544942      0.8987667      949.93314      1293.9279      2692.892     
   1980000   1980000        552.05443     -1664.994       17785.708      19678.482      10562.91       9115.5716      4643.4178      4303.4128     -964.96398      388.20772      825.46197      3830.7756     -3910.7402     -368.98906      77948.915      42.717257      42.717257      42.717257      0.88793401    -4051.0703     -1570.9348      627.02324    
   1981000   1981000        550.43963      1529.3958      21152.189      19435.473      10532.013      8903.4607      4695.0789      4150.3234     -1143.6515      380.13836      896.05013      3836.0548     -3910.5334     -373.69805      76966.676      42.537071      42.537071      42.537071      0.89926572     1598.1065      350.18399      2639.8968    
   1982000   1982000        553.38852     -2107.0535      17347.622      19740.396      10588.436      9151.9601      4757.2549      4224.0473     -948.9987       369.4588       805.00107      3847.2774     -3902.0806     -369.37986      77866.444      42.702187      42.702187      42.702187      0.88887446    -2352.3554     -107.17282     -3861.6324    
   1983000   1983000        542.175        1569.6622      21292.072      19534.523      10373.879      9160.6441      4766.9053      4235.2356     -996.4264       381.54977      836.91674      3838.817      -3902.3539     -374.62628      76775.972      42.501909      42.501909      42.501909      0.9014994      2090.5809      1036.0543      1582.3514    
   1984000   1984000        552.81819      93.440496      19951.97       19845.374      10577.524      9267.8499      4777.6434      4271.6481     -965.794        366.59096      890.66462      3831.6495     -3904.5526     -367.69974      78222.238      42.767127      42.767127      42.767127      0.88483141     540.28146      381.06465     -641.02462    
   1985000   1985000        549.30001      66.828338      19603.511      19528.522      10510.207      9018.3144      4654.5312      4189.5908     -995.57454      365.24854      880.6313       3832.8801     -3908.993      -373.81933      76941.704      42.53247       42.53247       42.53247       0.89955758    -1166.8621      987.46514      379.88199    
   1986000   1986000        551.00285     -1360.9773      17963.855      19484.272      10542.789      8941.4825      4581.5121      4227.7067     -971.26519      361.76272      826.97091      3831.0235     -3916.2283     -375.48078      76601.249      42.469644      42.469644      42.469644      0.90355567    -3495.6078      1411.5741     -1998.8982    
   1987000   1987000        554.356        49.755949      19845.56       19789.189      10606.948      9182.2408      4713.2612      4300.8        -976.29433      383.5078       824.29209      3838.4252     -3901.7512     -370.24154      77685.222      42.669033      42.669033      42.669033      0.890948       605.96168     -790.25098      333.55715    
   1988000   1988000        555.96507     -366.18983      19214.726      19631.625      10637.735      8993.8899      4660.8308      4164.4683     -969.96569      374.04681      834.19333      3836.1254     -3905.809      -368.44653      78063.692      42.738213      42.738213      42.738213      0.88662849    -57.694189     -842.22352     -198.65177    
   1989000   1989000        540.01245     -616.04273      18698.218      19392.378      10332.501      9059.8775      4850.7618      4260.3764     -1062.2575      363.59807      726.56283      3826.596      -3905.7601     -372.2633       77263.315      42.591648      42.591648      42.591648      0.89581314    -1509.9532     -823.34588      485.17093    
   1990000   1990000        550.65107     -64.96915       19629.878      19704.776      10536.058      9168.7172      4783.5405      4273.3218     -1040.4291      362.43942      867.75326      3824.7921     -3902.7009     -363.86567      79046.468      42.916816      42.916816      42.916816      0.87560513     732.62365      62.163907     -989.69501    
   1991000   1991000        546.5017       2050.9228      21832.549      19500.225      10456.665      9043.5604      4702.6012      4222.3515     -1117.3548      366.75948      952.1806       3818.4293     -3901.4068     -368.85857      77976.489      42.722293      42.722293      42.722293      0.88762002     1519.6782      2329.9979      2303.0925    
   1992000   1992000        543.60658     -1328.0503      18012.885      19530.008      10401.27       9128.7381      4758.6432      4275.3038     -1011.0787      366.60005      815.18006      3822.901      -3898.8113     -367.19186      78330.431      42.786836      42.786836      42.786836      0.88360925    -1638.953      -2417.296       72.098179    
   1993000   1993000        558.63773      739.04666      20635.428      19802.142      10688.874      9113.2686      4836.2375      4207.3799     -1095.6041      380.89868      833.0516       3849.8084     -3898.5033     -372.02948      77311.875      42.600569      42.600569      42.600569      0.89525048     189.9373       634.1038       1393.0989    
   1994000   1994000        555.3392      -206.79526      19463.882      19699.125      10625.76       9073.3644      4702.6517      4266.5953     -1053.7417      356.54277      879.07339      3824.7246     -3902.4817     -368.74381      78000.756      42.726725      42.726725      42.726725      0.88734387    -296.75933      369.19123     -692.81768    
   1995000   1995000        548.64099      79.91138       19544.687      19454.763      10497.598      8957.1656      4763.9348      4231.8378     -1147.7292      357.74502      836.62729      3824.3794     -3909.6295     -372.76351      77159.635      42.572588      42.572588      42.572588      0.89701686    -906.92949     -219.96721      1366.6308    
   1996000   1996000        557.88784     -1561.4557      18040.405      19848.039      10674.525      9173.5133      4739.4569      4222.1811     -930.02187      370.11854      841.50175      3832.7664     -3902.4895     -362.34198      79378.868      42.976888      42.976888      42.976888      0.87193852     513.71833     -2332.3626     -2865.7229    
   1997000   1997000        551.55758      1187.3038      20937.921      19604.37       10553.403      9050.9665      4776.0881      4173.8285     -1039.5041      351.18903      865.76632      3828.9167     -3905.318      -373.46636      77014.423      42.545865      42.545865      42.545865      0.89870819     909.31889      2099.1189      553.47368    
   1998000   1998000        554.10997      512.97573      20283.826      19705.205      10602.24       9102.9652      4794.6237      4202.5274     -1083.188       364.45766      894.88693      3840.4982     -3910.8406     -371.87966      77343.021      42.606289      42.606289      42.606289      0.89488996     269.34606     -426.24001      1695.8211    
   1999000   1999000        548.04496     -473.91646      18946.908      19478.562      10486.193      8992.3682      4700.5246      4283.5879     -1117.5049      366.05948      838.50877      3828.0249     -3906.8325     -373.91475      76922.07       42.528852      42.528852      42.528852      0.89978718    -1618.7057     -85.107779      282.06413    
   2000000   2000000        550.32448      822.764        20561.863      19641.406      10529.809      9111.5963      4719.8816      4244.3021     -986.4302       374.42997      844.58128      3826.4014     -3911.5698     -374.9481       76710.074      42.489746      42.489746      42.489746      0.90227384    -352.74713      346.60981      2474.4293    
Loop time of 4467.69 on 1 procs for 2000000 steps with 6420 atoms

Performance: 38.678 ns/day, 0.621 hours/ns, 447.658 timesteps/s, 2.874 Matom-step/s
100.0% CPU use with 1 MPI tasks x 1 OpenMP threads

MPI task timing breakdown:
Section |  min time  |  avg time  |  max time  |%varavg| %total
---------------------------------------------------------------
Pair    | 409.11     | 409.11     | 409.11     |   0.0 |  9.16
Bond    | 569.75     | 569.75     | 569.75     |   0.0 | 12.75
Kspace  | 1957.4     | 1957.4     | 1957.4     |   0.0 | 43.81
Neigh   | 672.05     | 672.05     | 672.05     |   0.0 | 15.04
Comm    | 111.94     | 111.94     | 111.94     |   0.0 |  2.51
Output  | 20.076     | 20.076     | 20.076     |   0.0 |  0.45
Modify  | 641.75     | 641.75     | 641.75     |   0.0 | 14.36
Other   |            | 85.6       |            |       |  1.92

Nlocal:           6420 ave        6420 max        6420 min
Histogram: 1 0 0 0 0 0 0 0 0 0
Nghost:          17090 ave       17090 max       17090 min
Histogram: 1 0 0 0 0 0 0 0 0 0
Neighs:              0 ave           0 max           0 min
Histogram: 1 0 0 0 0 0 0 0 0 0
FullNghs:  3.41737e+06 ave 3.41737e+06 max 3.41737e+06 min
Histogram: 1 0 0 0 0 0 0 0 0 0

Total # of neighbors = 3417372
Ave neighs/atom = 532.30093
Ave special neighs/atom = 5.8598131
Neighbor list builds = 129052
Dangerous builds = 0

# --- Cleanup ---
unfix npt_fix

undump dump_npt

# --- Write Output ---
write_dump all custom npt_cool_last.dump id type mol x y z xu yu zu vx vy vz modify sort id
write_data /home/alexzhao/PolyJarvis/data/PS2/lammps/equil/npt_cool/npt_cool_out.data
System init for write_data ...
PPPM Kokkos initialization ...
  using 12-bit tables for long-range coulomb
  G vector (1/distance) = 0.30017842
  grid = 30 30 30
  stencil order = 5
  estimated absolute RMS force accuracy = 0.0002967605
  estimated relative force accuracy = 8.9368544e-07
  using double precision cuFFT
  3d grid and FFT values/proc = 50653 27000
Generated 6 of 6 mixed pair_coeff terms from sixthpower/sixthpower mixing rule

print "STAGE COMPLETE: NPT T=630.0->550.0K P=1.0->1.0atm steps=2000000"
STAGE COMPLETE: NPT T=630.0->550.0K P=1.0->1.0atm steps=2000000
quit
         |       |  1.92

Nlocal:           6420 ave        6420 max        6420 min
Histogram: 1 0 0 0 0 0 0 0 0 0
Nghost:          17090 ave       17090 max       17090 min
Histogram: 1 0 0 0 0 0 0 0 0 0
Neighs:              0 ave           0 max           0 min
Histogram: 1 0 0 0 0 0 0 0 0 0
FullNghs:  3.41737e+06 ave 3.41737e+06 max 3.41737e+06 min
Histogram: 1 0 0 0 0 0 0 0 0 0

Total # of neighbors = 3417372
Ave neighs/atom = 532.30093
Ave special neighs/atom = 5.8598131
Neighbor list builds = 129052
Dangerous builds = 0
System init for write_data ...
PPPM Kokkos initialization ...
  using 12-bit tables for long-range coulomb
  G vector (1/distance) = 0.30017842
  grid = 30 30 30
  stencil order = 5
  estimated absolute RMS force accuracy = 0.0002967605
  estimated relative force accuracy = 8.9368544e-07
  using double precision cuFFT
  3d grid and FFT values/proc = 50653 27000
Generated 6 of 6 mixed pair_coeff terms from sixthpower/sixthpower mixing rule
STAGE COMPLETE: NPT T=630.0->550.0K P=1.0->1.0atm steps=2000000
