LAMMPS (22 Jul 2025 - Update 3)
KOKKOS mode with Kokkos version 4.6.2 is enabled
  will use up to 1 GPU(s) per node
  using 1 OpenMP thread(s) per MPI task
Reading data file ...
  orthogonal box = (6.2624668 6.2624668 6.2624668) to (42.123028 42.123028 42.123028)
  1 by 1 by 1 MPI processor grid
  reading atoms ...
  3620 atoms
  reading velocities ...
  3620 velocities
  scanning bonds ...
  4 = max bonds/atom
  scanning angles ...
  12 = max angles/atom
  scanning dihedrals ...
  24 = max dihedrals/atom
  scanning impropers ...
  10 = max impropers/atom
  orthogonal box = (6.2624668 6.2624668 6.2624668) to (42.123028 42.123028 42.123028)
  1 by 1 by 1 MPI processor grid
  reading bonds ...
  3610 bonds
  reading angles ...
  7200 angles
  reading dihedrals ...
  10710 dihedrals
  reading impropers ...
  4800 impropers
Finding 1-2 1-3 1-4 neighbors ...
  special bond factors lj:    0        0        1       
  special bond factors coul:  0        0        1       
     4 = max # of 1-2 neighbors
     6 = max # of 1-3 neighbors
    10 = max # of special neighbors
  special bonds CPU = 0.002 seconds
  read_data CPU = 0.194 seconds
Finding SHAKE clusters ...
     590 = # of size 2 clusters
     600 = # of size 3 clusters
      10 = # of size 4 clusters
       0 = # of frozen angles
  find clusters CPU = 0.001 seconds
PPPM Kokkos initialization ...
  using 12-bit tables for long-range coulomb
  G vector (1/distance) = 0.29543835
  grid = 24 24 24
  stencil order = 5
  estimated absolute RMS force accuracy = 0.00037623808
  estimated relative force accuracy = 1.1330298e-06
  using double precision cuFFT
  3d grid and FFT values/proc = 29791 13824
Generated 6 of 6 mixed pair_coeff terms from sixthpower/sixthpower mixing rule
Neighbor list info ...
  update: every = 1 steps, delay = 0 steps, check = yes
  max neighbors/atom: 4000, page size: 100000
  master list distance cutoff = 11.5
  ghost atom cutoff = 11.5
  binsize = 11.5, bins = 4 4 4
  1 neighbor lists, perpetual/occasional/extra = 1 0 0
  (1) pair lj/class2/coul/long/kk, perpetual
      attributes: full, newton off, kokkos_device
      pair build: full/bin/kk/device
      stencil: full/bin/3d
      bin: kk/device
Setting up Verlet run ...
  Unit style    : real
  Current step  : 0
  Time step     : 1
Per MPI rank memory allocation (min/avg/max) = 24.92 | 24.92 | 24.92 Mbytes
   Step          Time           Temp          Press         Enthalpy        TotEng         KinEng         PotEng         E_bond        E_angle        E_dihed        E_impro         E_vdwl         E_coul         E_long         E_tail         Volume           Lx             Ly             Lz          Density          Pxx            Pyy            Pzz      
         0   0              362.13356      1962.853       251.33401     -1068.7906      3251.6673     -4320.4579      632.47098      1983.4101     -2098.1017      15.616065     -988.87862     -1613.9477     -2251.0269     -274.41597      46115.96       35.860561      35.860561      35.860561      1.3510051      1924.2025      1395.6271      2568.7294    
       100   100            300.68728     -1673.2208     -2679.562      -1549.6719      2699.9293     -4249.6012      687.81516      1984.0421     -2053.5223      15.978043     -1020.3661     -1612.1645     -2251.3837     -273.30878      46302.778      35.90892       35.90892       35.90892       1.3455542     -1174.3131     -2276.087      -1569.2625    
       200   200            300.79361     -451.79298     -1839.1285     -1531.7724      2700.884      -4232.6563      673.89386      2001.3418     -2054.4678      15.739429     -1003.2394     -1612.3708     -2253.5534     -271.29017      46647.306      35.997764      35.997764      35.997764      1.3356162      1922.6605     -458.22897     -2819.8105    
       300   300            303.11064     -217.04391     -1651.1506     -1502.1977      2721.6891     -4223.8868      653.30569      2026.29       -2048.5328      15.76894      -1005.1171     -1612.7132     -2252.8883     -268.92746      47057.134      36.102878      36.102878      36.102878      1.3239841      1182.2144     -895.96527     -937.38085    
       400   400            300.90561     -653.01884     -1947.4114     -1496.3397      2701.8897     -4198.2294      685.45087      2002.4912     -2075.5523      15.855079     -971.43404     -1604.614      -2250.4262     -267.18779      47363.525      36.181064      36.181064      36.181064      1.3154194     -1032.6722     -883.03802     -43.34627     
       500   500            296.39891     -441.13678     -1834.9438     -1528.5616      2661.4232     -4189.9848      654.92102      2008.3646     -2068.368       15.50197      -945.63737     -1605.5634     -2249.2036     -265.73348      47622.737      36.246949      36.246949      36.246949      1.3082595      66.979135     -596.41982     -793.96966    
       600   600            301.07656     -2465.3582     -3266.097      -1545.7515      2703.4247     -4249.1762      670.81621      1952.4098     -2057.5659      14.819364     -981.31382     -1597.9386     -2250.4032     -264.48489      47847.556      36.303898      36.303898      36.303898      1.3021124     -2387.7798     -1841.3569     -3166.9378    
       700   700            299.49812     -1087.647      -2281.1438     -1522.612       2689.2515     -4211.8635      692.06599      1961.7213     -2056.8045      15.595901     -967.70303     -1603.8351     -2252.9041     -264.63708      47820.041      36.296937      36.296937      36.296937      1.3028617     -1613.3805     -1692.0626      42.50206     
       800   800            299.86545     -1006.8964     -2154.3728     -1454.9451      2692.5499     -4147.4949      684.81826      2037.3011     -2066.7923      15.193599     -955.6342      -1608.4817     -2253.8997     -265.692        47630.173      36.248835      36.248835      36.248835      1.3080553      229.63061     -2034.2319     -1216.0879    
       900   900            308.55631     -332.05307     -1640.9117     -1411.3578      2770.5868     -4181.9446      678.39887      1990.258      -2068.7908      15.160694     -928.8987      -1611.9126     -2256.16       -266.968        47402.52       36.190991      36.190991      36.190991      1.3143373      652.62085     -266.32004     -1382.46      
      1000   1000           302.35479     -1054.9577     -2190.7504     -1461.825       2714.9022     -4176.7271      714.68727      1958.7548     -2047.3956      15.303369     -958.63623     -1605.604      -2253.8368     -267.10895      47377.505      36.184624      36.184624      36.184624      1.3150312     -2752.7039     -1141.8882      729.71905    
      1100   1100           298.10983      269.02205     -1379.8558     -1565.7247      2676.7858     -4242.5105      652.24054      1955.6369     -2072.625       15.184205     -926.42773     -1614.0193     -2252.5001     -267.1269       47374.321      36.183813      36.183813      36.183813      1.3151196     -486.24202     -305.92507      1599.2333    
      1200   1200           297.86229     -1304.8323     -2463.6963     -1559.4918      2674.5632     -4234.055       693.55022      1993.5216     -2060.5931      16.262911     -1015.2993     -1608.578      -2252.9193     -266.33276      47515.581      36.219742      36.219742      36.219742      1.3112099     -1380.9172     -2249.8823     -283.69734    
      1300   1300           294.69966      142.39021     -1423.8629     -1522.2267      2646.1653     -4168.392       684.89479      2028.1689     -2076.9314      15.429949     -955.52232     -1610.2676     -2254.1644     -267.16617      47367.358      36.18204       36.18204       36.18204       1.3153129      397.76904     -382.85197      412.25355    
      1400   1400           302.46105     -822.96524     -2033.8067     -1465.0374      2715.8563     -4180.8936      658.2012       2038.8519     -2066.2888      16.523376     -965.18675     -1610.2411     -2252.7534     -267.0434       47389.135      36.187584      36.187584      36.187584      1.3147085     -1898.1578     -421.78309     -148.95484    
      1500   1500           307.24475     -721.85234     -1955.3362     -1456.1925      2758.8101     -4215.0026      671.40987      2003.3037     -2057.2205      15.931108     -981.5258      -1614.0517     -2252.8493     -266.90662      47413.42       36.193765      36.193765      36.193765      1.3140351     -578.25523      151.37413     -1738.6759    
      1600   1600           298.956       -680.99508     -2049.5407     -1579.2048      2684.3837     -4263.5886      677.55408      1973.1708     -2071.4204      15.922782     -998.05798     -1606.9277     -2253.8302     -267.22212      47357.442      36.179515      36.179515      36.179515      1.3155883     -867.30421     -1164.957      -10.724019    
      1700   1700           301.21258     -1166.3263     -2407.1537     -1604.115       2704.646      -4308.761       682.70232      1913.9292     -2065.5461      15.043761     -997.13427     -1605.1335     -2252.6224     -268.05265      47210.71       36.142111      36.142111      36.142111      1.3196772      472.65925     -771.29604     -3200.3421    
      1800   1800           296.72371     -1287.708      -2442.1484     -1557.9767      2664.3396     -4222.3163      692.19154      1980.4912     -2067.3985      15.574059     -978.57914     -1610.9368     -2253.6587     -268.79259      47080.747      36.108916      36.108916      36.108916      1.3233201     -2177.6026     -571.03199     -1114.4894    
      1900   1900           296.49185     -176.08483     -1618.8883     -1498.0636      2662.2577     -4160.3213      690.0938       2036.8279     -2070.7421      15.740081     -962.6138      -1615.8354     -2253.7919     -268.96949      47049.781      36.100998      36.100998      36.100998      1.324191      -525.41205      686.7354      -689.57784    
      2000   2000           294.30356     -1444.5263     -2491.4386     -1499.1457      2642.6086     -4141.7543      710.54144      2031.9459     -2072.3305      17.022818     -974.82821     -1602.3351     -2251.7707     -268.67179      47101.915      36.114327      36.114327      36.114327      1.3227254     -3044.9642      89.054418     -1377.6692    
      2100   2100           301.77038     -770.44875     -2057.2476     -1527.9047      2709.6546     -4237.5593      670.15344      1976.3966     -2083.3869      15.951533     -970.44289     -1597.3544     -2248.8767     -268.62296      47110.477      36.116515      36.116515      36.116515      1.322485      -1990.8868      515.99879     -836.45823    
      2200   2200           292.14424     -1259.9787     -2511.943      -1644.0124      2623.2196     -4267.232       692.04401      1968.163      -2094.4432      15.884155     -1000.8081     -1599.7986     -2248.2732     -267.9259       47233.044      36.147809      36.147809      36.147809      1.3190532     -471.94992     -1525.8833     -1782.1028    
      2300   2300           300.06871     -1179.8789     -2461.0342     -1646.3089      2694.375      -4340.6839      699.52045      1884.3117     -2088.9923      14.994254     -998.58466     -1601.3471     -2250.5862     -267.27774      47347.587      36.177005      36.177005      36.177005      1.3158622     -1030.7964     -280.91951     -2227.9209    
      2400   2400           297.75523     -1792.6325     -2800.2004     -1560.7944      2673.6019     -4234.3962      703.78589      1930.1969     -2077.7745      15.159311     -953.18173     -1601.6865     -2250.8956     -266.94033      47407.433      36.192242      36.192242      36.192242      1.314201      -2722.3532     -78.969076     -2576.5752    
      2500   2500           296.58463     -1812.0534     -2758.0345     -1503.1369      2663.0908     -4166.2277      719.20971      1991.8466     -2060.4333      15.268503     -974.14497     -1606.2284     -2251.7458     -266.50124      47485.542      36.212107      36.212107      36.212107      1.3120393     -557.85245     -1997.5584     -2880.7494    
      2600   2600           299.90395     -2198.9736     -3004.256      -1478.9521      2692.8956     -4171.8478      729.31394      1962.2829     -2065.0768      14.994977     -953.34825     -1607.3276     -2252.6869     -266.0726       47562.04       36.231543      36.231543      36.231543      1.309929      -2853.5437     -1959.287      -1784.0902    
      2700   2700           301.49971     -731.36048     -2000.3461     -1492.7583      2707.2242     -4199.9825      699.47032      1966.4286     -2090.0957      14.96408      -934.02548     -1606.651      -2250.0734     -265.92356      47588.697      36.23831       36.23831       36.23831       1.3091953     -1311.1298     -445.60648     -437.34513    
      2800   2800           297.78524     -1855.1378     -2870.2423     -1579.219       2673.8713     -4253.0903      719.99175      1929.3589     -2093.1495      15.616513     -971.53922     -1603.6909     -2249.6779     -265.20311      47717.976      36.271095      36.271095      36.271095      1.3056484     -1436.3409     -2187.6405     -1941.432     
      2900   2900           297.11311     -1047.5334     -2336.8391     -1608.2904      2667.8361     -4276.1265      675.06029      1952.8822     -2097.0898      15.335719     -956.61778     -1614.8323     -2250.8648     -265.36633      47688.627      36.263658      36.263658      36.263658      1.3064519     -930.2854      -1361.889      -850.42586    
      3000   3000           296.09861     -1276.9575     -2441.6085     -1554.9212      2658.7267     -4213.6479      718.51731      1980.966      -2095.1614      16.156794     -973.45061     -1610.4988     -2250.1773     -265.79235      47612.189      36.244272      36.244272      36.244272      1.3085493     -1228.5587     -1276.7252     -1325.5885    
      3100   3100           297.061       -221.66537     -1663.8186     -1510.3415      2667.3682     -4177.7097      689.35267      2023.0611     -2092.3757      16.431892     -951.66703     -1610.7413     -2251.7714     -266.55732      47475.552      36.209568      36.209568      36.209568      1.3123154     -1308.7216      49.655817      594.0697     
      3200   3200           299.1813      -997.04301     -2192.8506     -1503.3561      2686.4068     -4189.7629      708.43597      2006.0095     -2090.437       15.999716     -964.29749     -1612.9811     -2252.4924     -266.88219      47417.76       36.194869      36.194869      36.194869      1.3139148     -1280.0745     -1172.1331     -538.92143    
      3300   3300           301.29008     -1170.0977     -2336.5238     -1527.8447      2705.3419     -4233.1866      680.69556      1943.3499     -2067.4557      15.781748     -942.08259     -1613.322      -2250.1535     -267.04376      47389.072      36.187568      36.187568      36.187568      1.3147102     -1435.9524     -649.74139     -1424.5994    
      3400   3400           304.38544     -486.48004     -1907.3916     -1570.717       2733.1357     -4303.8528      661.12452      1906.7292     -2073.0252      14.943565     -952.74641     -1611.3408     -2249.5377     -266.68045      47453.632      36.203994      36.203994      36.203994      1.3129216     -218.54346     -1579.9133      339.01662    
      3500   3500           301.01617     -713.11553     -2081.5722     -1586.1961      2702.8824     -4289.0785      618.71562      1972.2946     -2060.1554      15.877849     -979.92166     -1604.888      -2251.0015     -265.68152      47632.051      36.249311      36.249311      36.249311      1.3080037     -152.81768     -421.13217     -1565.3968    
      3600   3600           300.34138     -541.48057     -1884.7036     -1508.0155      2696.8234     -4204.8389      665.06997      1985.6807     -2065.4586      15.965252     -949.43164     -1606.1828     -2250.4818     -265.30014      47700.524      36.266673      36.266673      36.266673      1.3061261     -319.94478     -1360.6094      56.112511    
      3700   3700           307.45616     -1924.8364     -2772.2952     -1433.7971      2760.7083     -4194.5054      729.07623      1932.0615     -2048.2986      15.504835     -966.8573      -1604.0967     -2251.8954     -265.40713      47681.296      36.261799      36.261799      36.261799      1.3066528     -1801.9205     -1525.8463     -2446.7423    
      3800   3800           304.6588      -1051.9174     -2173.7582     -1444.6803      2735.5903     -4180.2707      701.20491      2001.907      -2085.6008      15.77427      -954.10331     -1606.8022     -2252.6505     -266.2835       47524.371      36.221975      36.221975      36.221975      1.3109673     -1621.1691     -911.97939     -622.60369    
      3900   3900           297.75141     -619.82775     -1953.4307     -1525.3581      2673.5675     -4198.9256      718.8598       1976.839      -2099.6962      15.9062       -957.08986     -1603.2875     -2250.457      -267.23301      47355.51       36.179023      36.179023      36.179023      1.315642      -1151.2847      279.61054     -987.80911    
      4000   4000           294.10785     -1366.7889     -2506.0891     -1565.4947      2640.8513     -4206.346       685.79891      2022.0637     -2070.3027      16.604309     -1012.4218     -1598.0681     -2250.0204     -268.18566      47187.295      36.136135      36.136135      36.136135      1.320332      -2360.1102     -1471.1655     -269.09091    
      4100   4100           301.29415     -505.17984     -1896.2598     -1550.547       2705.3785     -4255.9255      680.38725      1927.0509     -2060.8453      15.770089     -957.74629     -1608.3899     -2252.1522     -269.69137      46923.844      36.068759      36.068759      36.068759      1.327745      -490.04279      192.67489     -1218.1716    
      4200   4200           300.37205     -800.99111     -2083.4077     -1536.5561      2697.0988     -4233.6549      725.76105      1958.0034     -2070.3204      15.86344      -998.27515     -1610.4861     -2254.2012     -270.33029      46812.94       36.04032       36.04032       36.04032       1.3308905     -1652.8728      228.03479     -978.13527    
      4300   4300           297.59603     -775.07432     -2049.4685     -1520.4845      2672.1723     -4192.6568      736.84236      1974.4587     -2062.6145      16.117041     -991.27028     -1613.3483     -2252.8418     -270.41909      46797.569      36.036375      36.036375      36.036375      1.3313277     -1687.7984      156.67302     -794.09754    
      4400   4400           304.82829     -550.48171     -1828.2233     -1451.7966      2737.1122     -4188.9088      722.31063      1958.4178     -2050.5818      14.600903     -969.69272     -1610.5741     -2253.3895     -269.89758      46887.993      36.05957       36.05957       36.05957       1.3287602     -93.351444     -392.70381     -1165.3899    
      4500   4500           303.08111     -1548.1302     -2478.6229     -1413.6833      2721.4239     -4135.1072      723.30542      2005.837      -2058.0013      14.871729     -961.14944     -1605.3565     -2254.6142     -268.29899      47167.362      36.131046      36.131046      36.131046      1.32089       -469.04792     -1945.3278     -2230.0149    
      4600   4600           302.74605     -685.53731     -1947.8632     -1472.4731      2718.4153     -4190.8885      680.13362      2003.5361     -2067.2341      15.534992     -962.40316     -1608.0794     -2252.3766     -266.14452      47549.188      36.228279      36.228279      36.228279      1.3102831     -1207.1832     -323.60936     -525.81933    
      4700   4700           295.20273     -1168.4041     -2357.9488     -1541.3455      2650.6824     -4192.0279      695.58252      2000.0933     -2070.6337      15.173023     -973.66362     -1608.726      -2249.8534     -264.06965      47922.796      36.322917      36.322917      36.322917      1.3000681     -2296.8286      276.74798     -1485.1318    
      4800   4800           296.8172      -1208.063      -2391.9387     -1544.772       2665.1791     -4209.951       682.68471      1992.3512     -2083.374       16.015689     -963.80486     -1605.465      -2248.3588     -263.18261      48084.317      36.363679      36.363679      36.363679      1.295701      -1366.7454     -1252.238      -1005.2056    
      4900   4900           298.10713     -1415.8977     -2501.6651     -1509.136       2676.7616     -4185.8976      688.3925       2001.4065     -2079.7366      15.994116     -959.01973     -1602.8825     -2250.0519     -263.28442      48065.723      36.358991      36.358991      36.358991      1.2962023     -2546.9835     -2150.5561      449.84645    
      5000   5000           302.5702      -956.82774     -2112.5057     -1444.8844      2716.8364     -4161.7208      691.93306      2024.458      -2092.4199      16.146302     -953.25766     -1599.4752     -2249.1054     -264.50878      47843.235      36.302805      36.302805      36.302805      1.30223        598.69885     -658.97853     -2810.2036    
      5100   5100           310.86028     -214.75403     -1494.5651     -1345.4098      2791.2746     -4136.6844      672.83342      2043.1062     -2070.1323      15.499441     -949.18324     -1598.9558     -2249.8521     -265.72911      47623.52       36.247147      36.247147      36.247147      1.308238       127.00539     -971.32651      200.05903    
      5200   5200           307.13888      201.78861     -1227.6886     -1367.4309      2757.8595     -4125.2903      674.74573      2047.4398     -2062.4229      15.579484     -944.34325     -1606.4774     -2249.8119     -266.50497      47484.876      36.211938      36.211938      36.211938      1.3120577      22.965313      46.99473       535.40579    
      5300   5300           300.70479     -950.41191     -2143.0916     -1485.2768      2700.0865     -4185.3634      701.0107       1984.3206     -2069.8077      15.725427     -958.52343     -1608.0968     -2249.9922     -266.65197      47458.7        36.205283      36.205283      36.205283      1.3127814     -2177.7605     -354.44433     -319.03085    
      5400   5400           299.19502     -374.54808     -1781.6408     -1522.545       2686.5299     -4209.0749      679.46063      2014.6531     -2079.7052      17.015848     -978.95128     -1611.4827     -2250.0652     -266.79872      47432.595      36.198643      36.198643      36.198643      1.3135039     -512.40173     -682.88195      71.639456    
      5500   5500           297.59551     -119.86813     -1637.1496     -1554.398       2672.1677     -4226.5657      646.21331      2018.1121     -2097.194       15.462874     -943.14817     -1614.954      -2251.0577     -267.3398       47336.594      36.174206      36.174206      36.174206      1.3161677      604.92734     -508.74743     -455.78431    
      5600   5600           298.63378     -793.01298     -2106.7683     -1558.7006      2681.4905     -4240.1911      677.43219      1983.9407     -2076.6087      16.228267     -977.90656     -1609.3664     -2253.9105     -267.04382      47389.06       36.187565      36.187565      36.187565      1.3147106     -383.16392     -152.23079     -1843.6442    
      5700   5700           300.5333      -1401.4698     -2481.039      -1514.0083      2698.5467     -4212.555       688.86827      2020.5771     -2073.9234      16.750805     -1004.8658     -1608.1637     -2251.7982     -267.47303      47313.016      36.168199      36.168199      36.168199      1.3168236     -1181.8079     -1420.616      -1601.9854    
      5800   5800           298.91202     -501.20328     -1791.9895     -1447.8897      2683.9888     -4131.8786      723.38711      2036.8857     -2085.7753      16.111041     -963.89209     -1607.5468     -2251.0482     -268.82278      47075.46       36.107564      36.107564      36.107564      1.3234687      541.26979     -623.60036     -1421.2793    
      5900   5900           305.50317      156.06755     -1323.2713     -1430.2001      2743.1721     -4173.3722      672.64113      1985.4183     -2062.3154      14.597279     -922.82516     -1609.5988     -2251.2895     -269.37334      46979.244      36.082948      36.082948      36.082948      1.3261792      798.60361     -110.85748     -219.54348    
      6000   6000           297.31561     -1159.4143     -2319.8927     -1523.1019      2669.6544     -4192.7562      705.31947      1988.3779     -2072.7562      15.900006     -970.41984     -1606.5042     -2252.6734     -268.55353      47122.656      36.119627      36.119627      36.119627      1.3221432     -1322.6407     -1519.9249     -635.67745    
      6100   6100           296.38432     -1150.9092     -2370.9855     -1577.9236      2661.2921     -4239.2158      682.84672      1967.3652     -2078.6296      15.847669     -969.0141      -1605.7887     -2251.843      -267.83696      47248.729      36.15181       36.15181       36.15181       1.3186153     -2043.0221     -315.64429     -1094.0612    
      6200   6200           303.68671     -1850.6493     -2819.8937     -1539.1066      2726.8617     -4265.9683      693.21065      1923.9737     -2054.6966      15.939435     -986.7379      -1606.7847     -2250.8729     -266.67584      47454.452      36.204203      36.204203      36.204203      1.3128989     -1254.5683     -2244.0071     -2053.3723    
      6300   6300           302.69773     -1222.7477     -2345.9415     -1499.4788      2717.9815     -4217.4603      699.23275      1989.3625     -2086.0774      15.834746     -980.22719     -1606.8413     -2248.7443     -266.6033       47467.363      36.207486      36.207486      36.207486      1.3125418     -1193.4429      357.1567      -2831.9568    
      6400   6400           301.33605     -1467.4623     -2491.6427     -1475.8626      2705.7547     -4181.6173      723.57223      1971.7518     -2089.9105      14.790914     -955.79436     -1599.1941     -2246.8334     -266.62677      47463.185      36.206423      36.206423      36.206423      1.3126573     -1925.3584     -2005.1771     -471.85146    
      6500   6500           307.64754     -1785.1337     -2632.2932     -1394.9824      2762.4268     -4157.4092      718.93829      1991.969      -2076.0471      14.773833     -953.79101     -1604.821      -2248.4312     -266.27381      47526.099      36.222414      36.222414      36.222414      1.3109197     -1930.1715     -1307.7795     -2117.4502    
      6600   6600           310.12305     -1572.3764     -2479.1825     -1388.3155      2784.6549     -4172.9704      720.06808      1964.4386     -2078.6421      15.714889     -945.15867     -1602.6028     -2246.7883     -266.02424      47570.686      36.233738      36.233738      36.233738      1.309691      -972.0977      -686.40161     -3058.6298    
      6700   6700           299.93196     -1502.8305     -2529.055      -1485.0125      2693.1471     -4178.1596      683.86035      1976.2343     -2078.1711      15.434096     -925.4785      -1604.8516     -2245.1871     -265.66133      47635.672      36.25023       36.25023       36.25023       1.3079043     -2361.3335     -1950.7697     -196.38823    
      6800   6800           304.3208      -1478.4503     -2538.6709     -1509.2312      2732.5553     -4241.7865      712.94517      1916.8704     -2067.6641      15.138554     -967.04517     -1603.1538     -2248.8776     -265.05886      47743.945      36.277674      36.277674      36.277674      1.3049382     -1635.954      -1021.4908     -1777.906     
      6900   6900           301.60672     -1074.2753     -2258.8992     -1511.8764      2708.1851     -4220.0615      691.05667      1955.9099     -2064.037       16.468647     -963.58589     -1604.48       -2251.3938     -265.41057      47680.677      36.261642      36.261642      36.261642      1.3066698     -1576.6581     -375.15815     -1271.0095    
      7000   7000           300.23633     -458.37293     -1784.3448     -1466.5237      2695.8801     -4162.4038      698.48694      1982.4467     -2057.9285      14.987554     -947.03723     -1603.5739     -2249.7853     -266.17839      47543.137      36.226742      36.226742      36.226742      1.3104499     -389.82277      479.90294     -1465.199     
      7100   7100           306.55867     -564.2426      -1769.9311     -1379.165       2752.6496     -4131.8146      666.01932      2044.5679     -2049.4147      15.880623     -959.8151      -1601.515      -2247.5377     -266.49282      47487.042      36.212489      36.212489      36.212489      1.3119979     -431.74395     -959.72165     -301.2622     
      7200   7200           301.91631     -1451.37       -2419.6511     -1416.8455      2710.9649     -4127.8105      704.33935      2036.3191     -2057.0854      15.82788      -979.70508     -1598.907      -2248.5992     -267.11479      47376.47       36.18436       36.18436       36.18436       1.3150599     -2810.3796     -59.722257     -1484.0083    
      7300   7300           304.83787     -1228.9717     -2332.6534     -1486.6959      2737.1982     -4223.8941      711.29343      1946.2607     -2058.5338      14.814507     -986.39071     -1601.6909     -2249.6473     -268.12039      47198.782      36.139066      36.139066      36.139066      1.3200107     -1227.8073      67.032204     -2526.14      
      7400   7400           304.08336     -799.53883     -2063.5531     -1516.037       2730.4234     -4246.4604      686.31443      1959.8396     -2073.9586      15.672707     -975.5178      -1606.4029     -2252.4079     -269.51268      46954.956      36.076728      36.076728      36.076728      1.3268652     -120.74964     -1590.6422     -687.22461    
      7500   7500           294.11153      299.13692     -1348.6038     -1552.8285      2640.8843     -4193.7128      683.68543      1978.5405     -2061.1808      15.135271     -952.28222     -1604.9038     -2252.7072     -270.33247      46812.564      36.040223      36.040223      36.040223      1.3309012      1088.6761      351.28995     -542.55531    
      7600   7600           299.07674     -1202.1431     -2411.1456     -1588.2796      2685.4679     -4273.7476      697.7477       1948.4623     -2074.3055      15.94445      -1013.5356     -1598.6521     -2249.4089     -269.62711      46935.028      36.071624      36.071624      36.071624      1.3274286     -836.80953     -964.37707     -1805.2426    
      7700   7700           296.20913     -891.09249     -2214.117      -1601.7641      2659.7191     -4261.4832      690.41961      1933.0755     -2071.0133      14.270464     -974.80847     -1604.6174     -2248.8096     -268.57003      47119.761      36.118887      36.118887      36.118887      1.3222244     -121.48567     -1959.0477     -592.74407    
      7800   7800           300.11266     -943.8748      -2211.0796     -1559.116       2694.7696     -4253.8856      681.57805      1937.6468     -2074.5057      15.210604     -953.75604     -1609.1331     -2250.9263     -267.19452      47362.333      36.180761      36.180761      36.180761      1.3154525     -430.45207     -1832.8875     -568.28486    
      7900   7900           299.2623      -715.09786     -1971.6639     -1475.6502      2687.1341     -4162.7843      703.12448      2013.5874     -2066.2339      15.547753     -975.23092     -1604.6581     -2248.9211     -266.07761      47561.145      36.231315      36.231315      36.231315      1.3099537      395.14951      537.87209     -3078.3152    
      8000   8000           299.43177     -144.21979     -1555.3865     -1455.338       2688.6558     -4143.9938      669.42077      2000.5178     -2067.6722      15.766899     -900.55632     -1611.242      -2250.2287     -266.04235      47567.448      36.232916      36.232916      36.232916      1.3097801      1265.0776     -314.91934     -1382.8176    
      8100   8100           301.83331     -303.08464     -1677.9953     -1467.9055      2710.2197     -4178.1251      691.27488      1989.0201     -2068.7859      15.543712     -939.0434      -1614.1497     -2251.9848     -266.25354      47529.718      36.223333      36.223333      36.223333      1.3108199     -1357.6788     -53.651642      502.07654    
      8200   8200           299.01413      132.17396     -1480.6814     -1572.2093      2684.9058     -4257.1151      677.84784      1974.1562     -2078.1733      16.63139      -982.23947     -1612.9422     -2252.3956     -266.51951      47482.286      36.21128       36.21128       36.21128       1.3121293      36.678768      900.80069     -540.95759    
      8300   8300           295.75367     -779.566       -2141.7941     -1602.873       2655.6294     -4258.5024      673.08674      1926.9414     -2057.0925      14.789319     -948.24247     -1615.3264     -2252.6584     -266.97104      47401.979      36.190854      36.190854      36.190854      1.3143522     -629.53606     -553.74378     -1155.4182    
      8400   8400           300.51895     -705.86486     -2036.9162     -1549.095       2698.4178     -4247.5129      688.36884      1932.4599     -2083.6991      15.190629     -938.32801     -1611.1116     -2250.3935     -267.05301      47387.43       36.187151      36.187151      36.187151      1.3147558     -106.06101     -935.34594     -1076.1876    
      8500   8500           301.26302     -682.33258     -1967.5978     -1495.2247      2705.0989     -4200.3236      713.8514       1938.9338     -2051.7037      15.067919     -955.90144     -1609.5651     -2251.0064     -266.59225      47469.331      36.207986      36.207986      36.207986      1.3124874     -1076.8332     -153.39099     -816.77351    
      8600   8600           300.80453     -474.07839     -1805.0836     -1476.0865      2700.9821     -4177.0686      700.32699      1957.0914     -2074.6295      14.856572     -916.87903     -1610.1106     -2247.7245     -265.94676      47584.546      36.237256      36.237256      36.237256      1.3093095      272.44996      153.76236     -1848.4475    
      8700   8700           297.91714     -1105.0016     -2243.4213     -1473.2262      2675.0556     -4148.2818      707.07525      1974.5147     -2063.7869      15.388229     -925.52992     -1606.3864     -2249.5568     -264.78823      47792.744      36.290029      36.290029      36.290029      1.3036058     -1020.1543     -1380.6146     -914.23604    
      8800   8800           295.3354      -2512.3956     -3249.1719     -1492.3681      2651.8737     -4144.2418      751.53033      1984.9792     -2065.2814      14.988531     -971.05502     -1609.5182     -2249.8853     -263.9376       47946.77       36.328973      36.328973      36.328973      1.299418      -1847.5586     -3574.8435     -2114.7847    
      8900   8900           296.33419     -872.18936     -2184.3588     -1575.3193      2660.842      -4236.1613      718.77125      1933.7483     -2093.0761      15.389695     -950.93557     -1609.4533     -2250.6055     -264.30282      47880.516      36.312232      36.312232      36.312232      1.3012161     -608.7045      -612.4957      -1395.3679    
      9000   9000           292.1755      -833.93895     -2222.0355     -1641.4553      2623.5003     -4264.9556      641.65696      1937.4416     -2064.5933      14.537964     -938.78307     -1607.9219     -2247.2937     -265.09927      47736.667      36.27583       36.27583       36.27583       1.3051372     -447.45221     -1534.8407     -519.5239     
      9100   9100           297.45202     -1190.5079     -2411.4138     -1584.4086      2670.8792     -4255.2878      690.97242      1923.8304     -2080.985       14.528207     -957.50261     -1600.3959     -2245.7354     -265.68102      47632.141      36.249334      36.249334      36.249334      1.3080012     -1320.0872     -1141.4784     -1109.9582    
      9200   9200           299.48929     -2186.6811     -3067.6698     -1551.5593      2689.1723     -4240.7316      713.35201      1950.342      -2065.7439      15.214838     -1008.7758     -1598.6492     -2246.4716     -266.18962      47541.131      36.226233      36.226233      36.226233      1.3105052     -2119.3443     -1739.672      -2701.027     
      9300   9300           293.88427     -361.72658     -1774.5487     -1525.2113      2638.8437     -4164.055       683.24343      1978.6028     -2060.2919      14.816322     -929.06647     -1604.7968     -2246.5624     -267.75002      47264.07       36.155722      36.155722      36.155722      1.3181873     -2.0082131     -1024.4094     -58.762105    
      9400   9400           302.94462     -608.07138     -1877.6591     -1459.0446      2720.1983     -4179.2429      698.28308      2002.9168     -2085.2288      15.684426     -959.12591     -1603.2882     -2248.4843     -268.08765      47204.546      36.140538      36.140538      36.140538      1.3198495     -1950.7585     -367.04687      493.59123    
      9500   9500           304.78662     -644.51306     -1890.1312     -1445.9827      2736.738      -4182.7207      698.79972      1967.3596     -2062.8124      14.729606     -938.18426     -1610.7556     -2251.8574     -267.81813      47252.05       36.152657      36.152657      36.152657      1.3185227      233.76716     -1064.9778     -1102.3286    
      9600   9600           298.14398      65.688837     -1484.4336     -1529.875       2677.0925     -4206.9675      697.43495      1986.3329     -2071.8036      15.764443     -967.1149      -1613.2553     -2254.326      -266.79407      47433.422      36.198854      36.198854      36.198854      1.313481      -458.77177      340.13644      315.70184    
      9700   9700           297.51086     -957.782       -2266.079      -1600.8989      2671.4076     -4272.3065      659.40094      1943.1122     -2063.0775      14.966076     -959.71209     -1612.75       -2254.2461     -265.74429      47620.8        36.246457      36.246457      36.246457      1.3083127     -1685.0996     -663.7389      -524.5075     
      9800   9800           297.12254     -2415.2199     -3256.5746     -1575.3473      2667.9207     -4243.2681      691.3055       1943.7682     -2051.7743      14.608789     -978.88659     -1609.9715     -2252.3182     -265.13482      47730.266      36.274209      36.274209      36.274209      1.3053122     -2380.3448     -2428.3581     -2436.9567    
      9900   9900           300.25686     -1140.745      -2303.4339     -1509.8052      2696.0645     -4205.8697      709.78787      1944.9976     -2057.675       15.303534     -956.13006     -1609.41       -2252.7436     -265.28198      47703.789      36.267501      36.267501      36.267501      1.3060367     -764.7326       124.32277     -2781.8252    
     10000   10000          300.90115     -650.69741     -1911.3324     -1459.2597      2701.8497     -4161.1094      686.79672      1972.6842     -2049.1842      14.826428     -920.80769     -1612.563      -2252.8619     -265.64846      47637.979      36.250815      36.250815      36.250815      1.3078409      19.411227     -1434.0786     -537.42489    
     10100   10100          297.19357     -1383.9614     -2424.7732     -1463.0206      2668.5586     -4131.5792      705.7467       1992.0555     -2050.278       15.785395     -926.53639     -1612.6961     -2255.6563     -265.58108      47650.065      36.25388       36.25388       36.25388       1.3075092     -1311.821      -1540.6885     -1299.3748    
     10200   10200          293.00876     -904.29901     -2129.5679     -1500.9671      2630.9823     -4131.9495      705.1988       1993.3847     -2057.5459      15.087489     -917.35388     -1615.3561     -2255.3647     -265.5056       47663.612      36.257316      36.257316      36.257316      1.3071376     -1699.5858     -367.91367     -645.39756    
     10300   10300          296.9465      -1961.468      -2977.9807     -1612.5776      2666.3401     -4278.9177      679.54016      1929.3009     -2069.9857      16.02501      -971.38153     -1609.6981     -2252.7185     -265.12878      47731.355      36.274485      36.274485      36.274485      1.3052824     -1730.2201     -1754.8544     -2399.3296    
     10400   10400          291.68918     -1854.6561     -2890.5228     -1601.105       2619.1336     -4220.2386      703.53833      1946.7232     -2059.6644      14.547915     -959.2152      -1614.6565     -2251.5119     -265.46437      47671.014      36.259193      36.259193      36.259193      1.3069346     -1205.9069     -2165.6506     -2192.4108    
     10500   10500          302.39331     -1556.8843     -2610.5105     -1529.935       2715.248      -4245.183       692.35832      1949.942      -2085.7133      15.096975     -953.56725     -1609.9553     -2253.3445     -265.91188      47590.788      36.238841      36.238841      36.238841      1.3091378     -1928.6671     -1038.846      -1703.1396    
     10600   10600          298.77976     -1460.8986     -2506.4018     -1492.822       2682.8013     -4175.6232      729.18157      1967.0013     -2059.9395      15.180174     -967.69742     -1606.5211     -2252.8283     -266.0104       47573.161      36.234366      36.234366      36.234366      1.3096228     -1301.5929     -1911.4027     -1169.7002    
     10700   10700          295.06279     -1770.4651     -2732.7927     -1505.3745      2649.4259     -4154.8003      716.06987      2004.4679     -2071.5332      14.915568     -963.56263     -1603.3712     -2251.7866     -266.21427      47536.729      36.225114      36.225114      36.225114      1.3106265     -1701.5413     -540.85758     -3068.9964    
     10800   10800          296.97944     -1436.574      -2520.2357     -1526.1718      2666.6358     -4192.8077      684.8152       1984.1469     -2068.5601      14.616031     -948.09858     -1608.1732     -2251.5538     -266.71671      47447.18       36.202353      36.202353      36.202353      1.3131001     -1223.5565     -2265.6955     -820.46986    
     10900   10900          297.89987     -1534.0013     -2590.5705     -1528.4766      2674.9005     -4203.3771      700.08554      1979.2719     -2062.1086      15.622286     -971.56823     -1611.8326     -2252.8474     -266.56268      47474.597      36.209325      36.209325      36.209325      1.3123418     -1588.4737     -891.10916     -2122.421     
     11000   11000          305.00298     -494.57205     -1798.265      -1456.4351      2738.6807     -4195.1158      674.37157      1943.0273     -2040.0141      15.051712     -928.76172     -1607.6576     -2251.133      -267.02753      47391.952      36.188302      36.188302      36.188302      1.3146303      1232.977      -620.20038     -2096.4928    
     11100   11100          302.72018     -617.30971     -1853.2431     -1425.7605      2718.183      -4143.9435      703.09861      2055.2245     -2084.4105      16.155873     -979.42617     -1603.4943     -2251.0916     -266.51472      47483.141      36.211497      36.211497      36.211497      1.3121057     -2119.0844      54.398913      212.75631    
     11200   11200          302.33102     -1270.4505     -2374.9924     -1492.9842      2714.6887     -4207.6729      681.0302       1997.5035     -2073.3729      15.794017     -968.62785     -1608.1022     -2251.8977     -265.8408       47603.513      36.242071      36.242071      36.242071      1.3087878      727.01865     -2736.0967     -1802.2734    
     11300   11300          302.02777     -2547.6978     -3310.9745     -1542.0189      2711.9658     -4253.9847      692.01146      1917.8245     -2056.332       14.509287     -967.90954     -1604.3492     -2249.7391     -265.80767      47609.445      36.243576      36.243576      36.243576      1.3086248     -2232.4232     -2023.8475     -3386.8226    
     11400   11400          295.28491     -902.80483     -2171.2655     -1546.5723      2651.4204     -4197.9927      665.41006      1956.5079     -2052.6453      15.02639      -926.99596     -1604.0395     -2251.2564     -266.72493      47445.718      36.201981      36.201981      36.201981      1.3131406     -869.3692      -1124.2984     -714.74692    
     11500   11500          298.51295     -684.20021     -1975.0839     -1503.2696      2680.4055     -4183.6751      697.04476      1963.9637     -2051.3283      15.269784     -947.12115     -1608.2328     -2253.271      -267.63848      47283.768      36.160744      36.160744      36.160744      1.3176382     -1066.3077     -808.20174     -178.09124    
     11600   11600          299.88513     -790.40954     -2034.1087     -1489.7513      2692.7266     -4182.4779      671.41206      1969.6506     -2043.956       14.141465     -923.96843     -1613.8212     -2255.9364     -267.98138      47223.266      36.145314      36.145314      36.145314      1.3193263     -497.15529     -1828.2171     -45.856227    
     11700   11700          300.55557     -1167.9688     -2309.095      -1503.3511      2698.7466     -4202.0977      701.77717      1968.8827     -2052.2807      15.337133     -979.47418     -1604.9625     -2251.3773     -267.52892      47303.132      36.16568       36.16568       36.16568       1.3170988     -950.51677     -1391.2076     -1162.1819    
     11800   11800          297.94929     -431.04926     -1816.8382     -1519.0804      2675.3443     -4194.4247      685.77758      1962.8815     -2055.0834      15.345698     -942.89141     -1608.6252     -2251.8294     -267.17778      47365.299      36.181516      36.181516      36.181516      1.3153701     -1413.6536     -729.69968      850.20548    
     11900   11900          302.19698     -293.29153     -1710.8823     -1507.7155      2713.4851     -4221.2007      666.18222      1951.9424     -2087.1971      14.998146     -914.76382     -1603.8647     -2248.4978     -266.4302       47498.204      36.215326      36.215326      36.215326      1.3116896     -554.53156      438.78384     -764.12687    
     12000   12000          301.14979     -2287.0658     -3052.433      -1459.4326      2704.0822     -4163.5148      695.64354      2050.4825     -2085.5406      16.188168     -993.38288     -1600.2794     -2246.6261     -264.97157      47759.673      36.281657      36.281657      36.281657      1.3045085     -2471.9579     -1356.084      -3033.1554    
     12100   12100          301.00353     -1672.5593     -2593.3795     -1428.025       2702.7689     -4130.7939      713.82031      2025.4573     -2075.4845      14.73342      -953.50995     -1606.7958     -2249.0148     -264.8866       47774.995      36.285537      36.285537      36.285537      1.3040901     -2118.9194     -2030.5895     -868.16896    
     12200   12200          296.25206     -1313.2449     -2391.7233     -1479.6929      2660.1046     -4139.7975      693.26906      2028.37       -2071.5405      15.640338     -947.10797     -1608.8606     -2249.5678     -265.74982      47619.81       36.246206      36.246206      36.246206      1.3083399     -2323.557      -114.53096     -1501.6468    
     12300   12300          298.94598     -803.55465     -2120.9143     -1565.1695      2684.2938     -4249.4633      687.12626      1950.4632     -2068.5192      15.33313      -971.17449     -1609.3969     -2253.2953     -266.85572      47422.464      36.196066      36.196066      36.196066      1.3137845     -1455.5509     -555.20013     -399.91295    
     12400   12400          293.35271     -2125.7488     -3057.3855     -1592.9308      2634.0707     -4227.0015      702.00906      1977.6028     -2063.2304      15.528959     -988.42194     -1613.776      -2256.714      -267.89988      47237.631      36.148979      36.148979      36.148979      1.3189251     -2062.9919     -1638.5503     -2675.7041    
     12500   12500          294.64846     -172.62387     -1686.7451     -1568.3696      2645.7055     -4214.0751      692.95564      1953.072      -2065.2038      14.620134     -938.60168     -1616.2554     -2254.662      -269.13832      47020.268      36.093448      36.093448      36.093448      1.3250222     -250.63917     -52.45635      -214.77609    
     12600   12600          303.89678     -1320.5422     -2423.9635     -1516.1894      2728.748      -4244.9373      697.89057      1935.5397     -2042.1297      15.179631     -989.6024      -1606.0442     -2255.7709     -268.47943      47135.662      36.12295       36.12295       36.12295       1.3217783     -2372.1586     -41.638696     -1547.8293    
     12700   12700          301.09484     -768.58719     -2039.015      -1508.496       2703.5888     -4212.0848      683.14933      1942.6898     -2036.7273      15.355554     -951.5786      -1611.3223     -2253.6512     -267.37984      47329.506      36.1724        36.1724        36.1724        1.3163649     -1073.8164     -1179.3028     -52.642387    
     12800   12800          298.15197     -939.10984     -2167.3635     -1515.3177      2677.1642     -4192.4819      695.39104      1985.9871     -2074.1372      15.673277     -956.39097     -1607.1876     -2251.8175     -265.81211      47608.65       36.243374      36.243374      36.243374      1.3086466      193.94746     -920.03221     -2091.2448    
     12900   12900          299.33016     -329.8416      -1749.5337     -1519.7863      2687.7434     -4207.5297      678.62585      1968.1666     -2083.0767      15.128678     -913.5653      -1618.4946     -2254.3142     -264.96678      47760.537      36.281876      36.281876      36.281876      1.3044849     -754.77845     -662.57859      427.83224    
     13000   13000          294.26461     -1350.4466     -2455.1466     -1512.3758      2642.2589     -4154.6347      665.73731      2051.0034     -2082.9023      14.878308     -945.88299     -1606.832      -2250.6364     -264.36735      47868.83       36.309277      36.309277      36.309277      1.3015337     -1280.5327     -1100.4974     -1670.3096    
     13100   13100          303.10309     -2019.0286     -2876.9081     -1465.7803      2721.6213     -4187.4016      727.99966      1918.3783     -2061.6476      14.800522     -939.49146     -1597.1932     -2250.2478     -264.06611      47923.439      36.323079      36.323079      36.323079      1.3000507     -1832.3195     -1167.9422     -3056.8243    
     13200   13200          307.49106      0.48911695    -1418.1727     -1418.5147      2761.0217     -4179.5365      671.9607       1960.5557     -2071.0075      14.634742     -897.61332     -1606.5336     -2251.5332     -263.95772      47943.116      36.32805       36.32805       36.32805       1.2995171     -1126.5856      1565.2388     -437.18584    
     13300   13300          301.44005     -2216.8261     -2961.4254     -1407.6179      2706.6886     -4114.3064      700.05234      2057.2625     -2073.7466      15.495133     -961.9055      -1601.7091     -2249.7552     -263.31216      48060.658      36.357714      36.357714      36.357714      1.2963388     -1363.6122     -1956.3766     -3330.4894    
     13400   13400          298.10401     -1500.5377     -2528.2978     -1479.6169      2676.7336     -4156.3505      683.97739      2012.7711     -2062.5895      14.556803     -955.63557     -1600.823      -2248.6078     -264.0828       47920.41       36.322314      36.322314      36.322314      1.3001328     -2691.3897     -539.61346     -1270.6101    
     13500   13500          293.9122      -1417.4465     -2548.6115     -1562.2414      2639.0945     -4201.3359      691.65508      1941.2749     -2048.1588      14.928888     -950.08504     -1601.7316     -2249.2193     -265.21817      47715.267      36.270409      36.270409      36.270409      1.3057225     -729.78504     -349.4982      -3173.0561    
     13600   13600          304.18083     -40.22863      -1588.6989     -1560.8061      2731.2985     -4292.1046      619.53813      1954.8165     -2063.0065      14.797567     -963.75693     -1603.1522     -2251.3411     -266.18196      47542.5        36.22658       36.22658       36.22658       1.3104674     -1143.6597     -388.77025      1411.7441    
     13700   13700          297.37024     -1095.5935     -2287.2724     -1528.4411      2670.1449     -4198.5861      685.01974      1976.1223     -2067.1136      15.383291     -950.97905     -1604.8966     -2252.1221     -266.46534      47491.939      36.213733      36.213733      36.213733      1.3118626     -699.97522     -164.80034     -2422.0048    
     13800   13800          302.03358     -1247.9242     -2292.7758     -1428.929       2712.018      -4140.947       695.90263      2023.7759     -2074.3329      15.315957     -940.33772     -1606.965      -2254.3058     -266.61709      47464.909      36.206862      36.206862      36.206862      1.3126097     -1689.1284      193.06661     -2247.7109    
     13900   13900          303.86043     -1589.8508     -2496.5237     -1396.0733      2728.4216     -4124.4949      702.59         2023.8461     -2084.5296      15.180058     -915.0448      -1612.6402     -2253.8966     -266.63824      47461.143      36.205904      36.205904      36.205904      1.3127138     -949.27705     -2312.7003     -1507.575     
     14000   14000          298.56124     -1015.3999     -2144.8853     -1441.3459      2680.8391     -4122.1851      713.34828      1993.7576     -2057.3177      15.000085     -919.87884     -1613.1066     -2253.9879     -266.36997      47508.944      36.218055      36.218055      36.218055      1.311393       633.52301     -834.98808     -2844.7347    
     14100   14100          298.60887     -1181.7577     -2295.4717     -1474.6005      2681.2669     -4155.8674      708.9358       1986.8097     -2047.0736      15.599273     -961.73105     -1605.5939     -2252.8137     -265.69903      47628.912      36.248515      36.248515      36.248515      1.3080899      188.70693     -2554.8371     -1179.1429    
     14200   14200          302.2656      -2001.8774     -2887.1034     -1491.9387      2714.1013     -4206.04        690.49318      1961.5851     -2045.9767      15.244428     -979.96866     -1597.6551     -2249.7622     -264.81862      47787.258      36.288641      36.288641      36.288641      1.3037554     -769.31894     -2022.3081     -3214.0053    
     14300   14300          300.36737     -990.67019     -2196.658      -1504.9068      2697.0567     -4201.9635      723.45535      1908.3308     -2059.032       14.664371     -936.68046     -1601.4755     -2251.2261     -264.31127      47878.987      36.311845      36.311845      36.311845      1.3012576     -378.38842     -294.461       -2299.1611    
     14400   14400          297.16959     -1004.8522     -2242.2779     -1539.9582      2668.3432     -4208.3014      690.81613      1938.2131     -2061.9725      16.192932     -925.73452     -1613.1203     -2252.6962     -264.06075      47924.41       36.323325      36.323325      36.323325      1.3000243     -1259.8666     -1036.6042     -718.08586    
     14500   14500          294.71393     -755.26272     -2092.8811     -1566.0134      2646.2934     -4212.3068      654.86857      1984.4535     -2078.6106      15.289658     -921.10627     -1617.5442     -2249.6573     -264.56534      47833.007      36.300218      36.300218      36.300218      1.3025085      43.684235     -1867.6155     -441.85692    
     14600   14600          296.99706     -975.30636     -2184.5668     -1506.2202      2666.794      -4173.0142      676.15432      1999.7218     -2066.3562      15.376724     -935.97716     -1611.4895     -2250.4443     -265.35417      47690.812      36.264211      36.264211      36.264211      1.3063921     -18.04379      -2455.9573     -451.91797    
     14700   14700          307.31201     -642.72773     -1888.0708     -1442.1628      2759.414      -4201.5768      704.84511      1924.4609     -2054.5187      14.911145     -933.83951     -1606.0043     -2251.4314     -266.02242      47571.012      36.233821      36.233821      36.233821      1.309682      -315.85454      20.300992     -1632.6296    
     14800   14800          304.2827      -1213.5256     -2299.2215     -1456.5637      2732.2132     -4188.777       725.67652      1956.4302     -2059.9371      15.278665     -972.02688     -1602.4434     -2251.7549     -265.7873       47613.095      36.244502      36.244502      36.244502      1.3085244     -1318.6809     -223.04838     -2098.8475    
     14900   14900          300.04254     -1343.0556     -2460.4629     -1527.8243      2694.1401     -4221.9644      690.75237      1924.3266     -2052.1054      14.546888     -941.17815     -1604.9224     -2253.3842     -265.77682      47614.971      36.244978      36.244978      36.244978      1.3084729     -1832.015      -164.06835     -2033.0833    
     15000   15000          299.5736      -1021.9162     -2258.9074     -1549.2705      2689.9293     -4239.1998      720.73999      1872.9387     -2050.9146      14.169558     -932.93433     -1610.4746     -2252.7246     -265.7759       47615.136      36.24502       36.24502       36.24502       1.3084683     -354.18356     -1151.2976     -1560.2674    
     15100   15100          294.03232     -757.56919     -2047.9476     -1520.8445      2640.1731     -4161.0176      707.87464      1996.1083     -2067.1577      15.835428     -947.92639     -1613.2886     -2252.4632     -265.25483      47708.673      36.268738      36.268738      36.268738      1.305903      -1049.5489      114.36372     -1337.5224    
     15200   15200          302.59644     -1450.78       -2494.0424     -1484.4744      2717.072      -4201.5464      685.06945      1980.4054     -2075.6045      16.055174     -943.19855     -1611.8788     -2252.3946     -265.21769      47715.353      36.270431      36.270431      36.270431      1.3057202     -440.96949     -2391.414      -1519.9565    
     15300   15300          303.9498      -1988.836      -2851.3512     -1471.8532      2729.2241     -4201.0773      729.10323      1970.2064     -2083.7589      15.577501     -968.39072     -1611.0612     -2252.7537     -266.08135      47560.476      36.231145      36.231145      36.231145      1.3099721     -1410.7194     -3027.1938     -1528.5947    
     15400   15400          300.17768     -466.30487     -1867.298      -1545.5657      2695.3535     -4240.9192      666.29156      1969.04       -2077.8375      15.851882     -946.6947      -1615.3894     -2252.181      -267.49263      47309.549      36.167315      36.167315      36.167315      1.3169201     -779.06486     -523.0361      -96.813638    
     15500   15500          294.30509     -1406.2755     -2582.2143     -1614.1386      2642.6223     -4256.7609      704.36405      1922.6078     -2051.1975      15.167961     -981.84183     -1614.1797     -2251.6817     -268.1005       47202.284      36.13996       36.13996       36.13996       1.3199128     -504.64505     -1467.7202     -2246.4613    
     15600   15600          299.47406     -2032.0648     -2983.6177     -1585.6458      2689.0355     -4274.6813      682.90555      1949.7788     -2050.3108      15.868474     -1008.3049     -1611.3168     -2253.3016     -268.27219      47172.075      36.132249      36.132249      36.132249      1.3207581     -1535.3893     -2129.4022     -2431.4031    
     15700   15700          298.61635     -673.60755     -1979.941      -1517.3431      2681.334      -4198.6771      669.91093      1965.904      -2058.4005      15.642405     -920.97905     -1618.2927     -2252.4621     -268.74464      47089.147      36.111063      36.111063      36.111063      1.323084      -1584.5007     -386.47461     -49.847356    
     15800   15800          302.32309     -1608.5625     -2585.1908     -1476.6469      2714.6175     -4191.2644      729.15077      1964.0566     -2066.641       16.391867     -967.99907     -1613.0924     -2253.1312     -267.80678      47254.053      36.153168      36.153168      36.153168      1.3184668     -109.96391     -2325.3871     -2390.3364    
     15900   15900          304.07652     -427.06157     -1773.82       -1479.2314      2730.3619     -4209.5933      675.80127      1981.4647     -2071.2408      15.501564     -940.33877     -1617.5651     -2253.2162     -267.5538       47298.733      36.164559      36.164559      36.164559      1.3172213      959.49979     -1110.2504     -1130.4341    
     16000   16000          296.93684     -746.32951     -2026.3768     -1509.6471      2666.2534     -4175.9005      704.33481      2001.2702     -2085.6276      15.900175     -944.78538     -1612.6446     -2254.348      -266.56537      47474.117      36.209203      36.209203      36.209203      1.3123551     -950.75008      47.477908     -1335.7164    
     16100   16100          305.06157     -1001.6743     -2223.4791     -1527.7564      2739.2069     -4266.9633      657.78671      1963.2161     -2068.1142      15.829994     -968.3894      -1613.4513     -2253.8412     -265.72162      47624.864      36.247488      36.247488      36.247488      1.3082011     -446.11806     -887.38748     -1671.5174    
     16200   16200          293.13263     -1321.9915     -2527.0536     -1607.1382      2632.0946     -4239.2327      676.12258      1983.0367     -2084.2186      16.615746     -966.76773     -1609.5007     -2254.5208     -265.22671      47713.73       36.27002       36.27002       36.27002       1.3057646     -382.72748     -1233.0168     -2350.2301    
     16300   16300          291.80065     -1184.4175     -2435.4045     -1612.3473      2620.1344     -4232.4818      671.03365      1978.1632     -2088.5456      16.596348     -940.70925     -1613.745      -2255.2752     -265.58976      47648.508      36.253486      36.253486      36.253486      1.3075519     -1288.2006     -1936.8303     -328.22154    
     16400   16400          299.80685     -437.87834     -1813.9285     -1510.1536      2692.0237     -4202.1773      671.56515      1971.7153     -2069.8595      15.310187     -930.51265     -1608.0634     -2252.3324     -266.0346       47568.833      36.233267      36.233267      36.233267      1.309742      -490.78295     -1502.634       679.78194    
     16500   16500          300.22601     -1650.8948     -2626.7613     -1479.7869      2695.7874     -4175.5743      689.47687      2013.7822     -2085.5952      15.263164     -951.76059     -1604.3125     -2252.4283     -265.64533      47638.54       36.250958      36.250958      36.250958      1.3078255     -2073.0235     -1165.2878     -1714.3731    
     16600   16600          296.99008     -1414.5998     -2469.8204     -1486.91        2666.7314     -4153.6414      682.54941      2024.7332     -2071.032       15.332815     -942.05426     -1609.0569     -2254.1138     -265.61719      47643.587      36.252237      36.252237      36.252237      1.307687      -1916.1207     -1439.1771     -888.50159    
     16700   16700          298.04686     -2293.1086     -3124.6731     -1532.4231      2676.2204     -4208.6435      729.54583      1959.6331     -2067.1208      15.552739     -984.04909     -1610.1869     -2252.0184     -265.79689      47611.377      36.244066      36.244066      36.244066      1.3085716     -2611.8217     -2479.1464     -1788.3578    
     16800   16800          294.28291     -497.28355     -1952.0814     -1607.6059      2642.4231     -4250.0291      669.18849      1972.2136     -2087.6042      16.260135     -950.22023     -1615.4568     -2254.41       -266.42949      47498.33       36.215358      36.215358      36.215358      1.3116861      63.71417      -371.24826     -1184.3166    
     16900   16900          292.832       -800.41694     -2138.2905     -1584.3007      2629.3952     -4213.6958      688.53862      1951.8121     -2072.8599      15.278757     -932.68557     -1612.8424     -2250.9375     -266.65579      47458.019      36.20511       36.20511       36.20511       1.3128002     -294.85774     -1216.9742     -889.41883    
     17000   17000          305.95504     -1357.1386     -2402.8944     -1462.763       2747.2295     -4209.9926      703.02064      1966.2275     -2070.4208      15.100229     -955.84009     -1615.9597     -2252.1203     -266.42327      47499.439      36.21564       36.21564       36.21564       1.3116554      298.62644     -1943.2998     -2426.7423    
     17100   17100          302.25701     -449.34372     -1779.1073     -1467.4082      2714.0241     -4181.4323      696.23818      1959.2483     -2062.9688      14.139255     -918.84537     -1615.7405     -2253.5033     -266.06001      47564.292      36.232114      36.232114      36.232114      1.309867      -332.73151     -421.95974     -593.33992    
     17200   17200          299.31504      22.882961     -1493.3576     -1509.2874      2687.6076     -4196.8951      660.42205      1975.418      -2073.6607      16.224805     -914.07907     -1608.6846     -2252.5356     -265.11626      47733.609      36.275056      36.275056      36.275056      1.3052208      199.02479     -176.40687      46.030966    
     17300   17300          301.72249     -1602.8647     -2662.8476     -1543.5125      2709.2246     -4252.7371      682.43972      1934.1263     -2084.3869      15.003072     -949.58632     -1602.1749     -2248.158      -264.28543      47883.667      36.313028      36.313028      36.313028      1.3011305     -2111.7073     -1982.9164     -713.97033    
     17400   17400          299.60926     -2442.8138     -3258.5399     -1549.8392      2690.2495     -4240.0887      691.88234      1957.109      -2077.6842      15.183715     -967.7796      -1607.4695     -2251.3304     -263.8523       47962.271      36.332887      36.332887      36.332887      1.2989981     -1703.1439     -2233.4174     -3391.8802    
     17500   17500          306.24956     -535.95661     -1842.7109     -1468.0741      2749.8741     -4217.9481      664.2915       1963.704      -2096.2646      15.57788      -904.7414      -1607.939      -2252.5765     -264.03146      47929.726      36.324668      36.324668      36.324668      1.2998801     -91.311671     -1393.2866     -123.2716     
     17600   17600          303.68379     -1777.7572     -2660.0549     -1416.8142      2726.8355     -4143.6497      700.94879      2028.3135     -2079.8909      16.18609      -951.42359     -1607.2969     -2250.4867     -263.90873      47952.016      36.330298      36.330298      36.330298      1.2992759     -1264.1007     -1970.4984     -2098.6725    
     17700   17700          302.77297     -620.59336     -1880.0042     -1446.4186      2718.6571     -4165.0757      703.75013      1969.723      -2059.6995      15.678596     -936.25611     -1608.192      -2250.0797     -264.16103      47906.218      36.318728      36.318728      36.318728      1.300518       678.82058     -362.65593     -2177.9447    
     17800   17800          297.94751     -596.27513     -1935.0643     -1518.6802      2675.3284     -4194.0086      706.62752      1942.5716     -2071.7418      15.805212     -929.56554     -1609.8065     -2247.899      -264.29511      47881.915      36.312585      36.312585      36.312585      1.3011781      678.32472     -740.35069     -1726.7994    
     17900   17900          299.04954     -1624.6273     -2689.8593     -1556.4064      2685.2237     -4241.6302      710.44543      1949.1427     -2088.5682      15.711664     -973.67316     -1606.7021     -2247.9864     -264.53724      47838.089      36.301503      36.301503      36.301503      1.3023701     -984.48578     -1208.9097     -2680.4863    
     18000   18000          293.85414     -903.10688     -2206.2154     -1577.9141      2638.5732     -4216.4873      647.61927      1969.7549     -2078.9405      14.940989     -903.89794     -1615.3271     -2250.6368     -265.28195      47703.795      36.267502      36.267502      36.267502      1.3060365     -364.22124     -1354.922      -990.17742    
     18100   18100          296.0685      -1428.1087     -2554.8528     -1561.6502      2658.4563     -4220.1066      672.48694      1991.274      -2089.5892      15.895535     -958.75289     -1600.6485     -2250.7724     -265.37496      47687.076      36.263265      36.263265      36.263265      1.3064944     -1985.07       -293.30941     -2005.9467    
     18200   18200          306.40272     -467.46406     -1817.6411     -1492.5494      2751.2493     -4243.7988      690.30128      1973.6757     -2090.0543      16.340453     -983.27471     -1598.9922     -2251.795      -265.38656      47684.991      36.262736      36.262736      36.262736      1.3065515     -806.84938      629.70189     -1225.2447    
     18300   18300          302.50528     -216.37967     -1610.3644     -1460.0078      2716.2535     -4176.2613      696.44949      1968.4462     -2068.7745      15.963742     -925.01851     -1610.3298     -2252.9979     -265.60161      47646.381      36.252946      36.252946      36.252946      1.3076103     -884.02763      1090.0344     -855.14579    
     18400   18400          302.36171     -715.07352     -1936.1279     -1438.8351      2714.9643     -4153.7994      697.71562      1984.4919     -2062.8339      15.690928     -927.91861     -1609.1109     -2251.8345     -265.3842       47685.416      36.262844      36.262844      36.262844      1.3065399      370.94436     -499.91581     -2016.2491    
     18500   18500          302.59172     -1274.3678     -2356.2001     -1467.8427      2717.0296     -4184.8723      692.73836      1975.0296     -2078.2169      16.025459     -932.10508     -1606.7258     -2251.618      -264.75463      47798.808      36.291564      36.291564      36.291564      1.3034404      962.29861     -1874.2164     -2911.1857    
     18600   18600          298.39146     -663.98732     -2009.5402     -1546.2922      2679.3147     -4225.6068      679.77989      1935.8861     -2071.1678      15.248731     -922.17389     -1610.8834     -2252.2964     -264.53472      47838.544      36.301618      36.301618      36.301618      1.3023577     -758.39169     -770.18163     -463.38864    
     18700   18700          295.1851      -1320.1203     -2481.806      -1560.1071      2650.5241     -4210.6312      698.34033      1971.2673     -2084.8865      15.969206     -958.21682     -1601.2564     -2251.8483     -264.33883      47873.995      36.310583      36.310583      36.310583      1.3013933     -1360.4994     -672.24246     -1927.6192    
     18800   18800          307.12118     -1529.0694     -2553.1254     -1488.4721      2757.7005     -4246.1726      700.65761      1929.7331     -2068.9218      15.902702     -972.12071     -1600.983      -2250.4405     -265.0669       47742.496      36.277307      36.277307      36.277307      1.3049778     -769.90364     -2313.2059     -1504.0986    
     18900   18900          301.34247      130.30363     -1329.1055     -1419.5069      2705.8124     -4125.3193      685.79256      2052.6365     -2089.072       16.208145     -939.44278     -1600.8674     -2250.5744     -266.02198      47571.091      36.233841      36.233841      36.233841      1.3096798     -469.96653     -115.74931      976.62674    
     19000   19000          304.97233     -1867.8767     -2750.319      -1455.1698      2738.4056     -4193.5754      690.70021      1987.5777     -2073.6357      16.052144     -960.28823     -1604.2505     -2249.7309     -266.17356      47543.999      36.226961      36.226961      36.226961      1.3104261     -1335.2889     -4406.0383      137.69703    
     19100   19100          303.11568      46.017428     -1477.7945     -1509.6748      2721.7343     -4231.4091      684.00914      1911.4548     -2060.4279      14.657559     -931.77714     -1603.4401     -2245.8855     -266.40141      47503.336      36.21663       36.21663       36.21663       1.3115478      381.71666     -416.78928      173.12491    
     19200   19200          302.95125     -730.39851     -2027.9662     -1521.4281      2720.2579     -4241.6859      671.32781      1954.3298     -2055.9457      16.651098     -983.51219     -1597.2596     -2247.2772     -266.12417      47552.825      36.229202      36.229202      36.229202      1.3101829     -1608.1138     -213.84871     -369.23303    
     19300   19300          299.53848      47.157322     -1468.5146     -1501.2035      2689.6139     -4190.8174      667.55328      1993.9925     -2079.6193      15.543987     -941.90367     -1600.4611     -2245.9232     -266.24811      47530.688      36.22358       36.22358       36.22358       1.3107931      1307.2507     -111.9338      -1053.845     
     19400   19400          299.54262     -1448.3933     -2436.8286     -1430.2075      2689.6511     -4119.8586      712.25563      1985.9353     -2067.4024      15.344519     -923.77347     -1598.0281     -2244.1901     -265.55654      47654.468      36.254997      36.254997      36.254997      1.3073884     -1291.2907     -2152.2464     -901.64283    
     19500   19500          298.47477     -1336.7654     -2284.6833     -1352.8647      2680.0627     -4032.9274      700.4725       2054.9164     -2049.1044      14.442727     -906.98981     -1601.8241     -2244.8407     -264.76484      47796.964      36.291098      36.291098      36.291098      1.3034907     -1886.5965     -786.33754     -1337.3622    
     19600   19600          304.50001     -1326.2088     -2332.7714     -1403.9729      2734.1645     -4138.1374      681.45889      2037.2266     -2054.259       16.64316      -972.28635     -1600.9172     -2246.0035     -263.52808      48021.28       36.347782      36.347782      36.347782      1.2974019     -1175.7469     -360.84812     -2442.0313    
     19700   19700          299.29904     -328.94569     -1712.5453     -1482.3555      2687.464      -4169.8194      680.2276       1995.5013     -2072.8837      15.717883     -934.98236     -1604.2954     -2249.1047     -263.73917      47982.845      36.338082      36.338082      36.338082      1.2984411      414.83611     -721.73902     -679.93416    
     19800   19800          300.84394     -458.64312     -1826.548      -1506.3282      2701.3359     -4207.6641      673.65479      1938.6982     -2062.9971      16.057538     -919.13307     -1606.2516     -2247.6929     -264.34024      47873.739      36.310518      36.310518      36.310518      1.3014003     -843.67125     -482.94752     -49.310593    
     19900   19900          301.94891     -1290.9423     -2411.0472     -1509.6626      2711.2577     -4220.9203      700.68375      1946.7959     -2070.9471      16.813413     -956.02089     -1606.9005     -2251.345      -264.32195      47877.052      36.311356      36.311356      36.311356      1.3013102     -1808.5838     -92.635985     -1971.6071    
     20000   20000          302.96171     -1588.7049     -2581.4183     -1474.9361      2720.3518     -4195.2878      703.89239      1971.9804     -2054.2031      15.171495     -974.98663     -1606.0425     -2251.0999     -264.99355      47755.712      36.280654      36.280654      36.280654      1.3046167     -709.46911     -2631.0079     -1425.6377    
     20100   20100          302.14003     -420.51107     -1716.1793     -1425.0696      2712.9738     -4138.0434      702.49809      1966.6877     -2058.5577      14.491414     -903.15192     -1610.2875     -2249.7235     -266.59826      47468.261      36.207714      36.207714      36.207714      1.312517      -241.15644      840.90447     -1861.2813    
     20200   20200          311.79833     -1948.9412     -2752.2754     -1406.9877      2799.6975     -4206.6853      682.11885      1978.5739     -2052.6483      15.885456     -968.50216     -1611.6057     -2250.5073     -267.37456      47330.441      36.172638      36.172638      36.172638      1.3163388     -1671.2946     -2237.7675     -1937.7615    
     20300   20300          307.50703     -781.41792     -2024.3987     -1485.3124      2761.1651     -4246.4776      677.3535       1924.3992     -2031.7089      15.460884     -979.67219     -1603.5366     -2248.7735     -267.52332      47304.122      36.165932      36.165932      36.165932      1.3170712     -1802.7089      502.87157     -1044.4165    
     20400   20400          295.77669     -289.48444     -1758.6773     -1558.7569      2655.8362     -4214.593       669.56113      1942.5167     -2054.8478      14.588878     -933.9319      -1603.6216     -2248.8584     -267.24184      47353.946      36.178625      36.178625      36.178625      1.3156855     -26.732184      244.14649     -1085.8676    
     20500   20500          296.21923     -1882.381      -2852.5663     -1545.233       2659.8098     -4205.0428      713.83429      1958.3285     -2057.8539      15.349085     -982.50891     -1602.6772     -2249.5147     -265.74048      47621.483      36.24663       36.24663       36.24663       1.3082939     -404.67658     -2748.073      -2494.3933    
     20600   20600          302.50308     -818.99356     -2056.7887     -1486.2847      2716.2337     -4202.5184      674.947        1942.8229     -2063.8652      15.361075     -914.21461     -1606.0838     -2251.4857     -264.94658      47764.179      36.282798      36.282798      36.282798      1.3043854     -840.12379     -86.792353     -1530.0645    
     20700   20700          304.08295      416.01022     -1125.4292     -1416.1719      2730.4196     -4146.5916      693.93836      1989.0839     -2069.1656      15.422107     -919.38062     -1607.1243     -2249.3654     -264.07767      47921.34       36.322549      36.322549      36.322549      1.3001076     -342.37639      743.1284       847.27864    
     20800   20800          305.89893     -870.08948     -1991.9816     -1381.591       2746.7257     -4128.3167      699.63455      2027.4933     -2070.1118      16.273231     -947.61062     -1603.2162     -2250.7792     -263.08288      48102.543      36.368273      36.368273      36.368273      1.2952101     -917.48145     -2837.8894      1145.1024    
     20900   20900          296.6101      -1307.4639     -2404.2234     -1486.4206      2663.3195     -4149.74        717.8018       1983.4616     -2072.0845      16.061775     -937.62963     -1606.7161     -2250.635      -262.91588      48133.098      36.375972      36.375972      36.375972      1.2943879     -1642.2022     -72.809713     -2207.3797    
     21000   21000          298.57402     -560.17706     -1941.9449     -1549.5577      2680.9539     -4230.5116      667.37761      1934.3958     -2066.6921      15.462611     -930.22007     -1601.7904     -2249.0451     -263.47963      48030.11       36.350009      36.350009      36.350009      1.2971633     -694.6699       46.615026     -1032.4763    
     21100   21100          298.81781     -401.37806     -1819.0872     -1539.2516      2683.1429     -4222.3946      685.25632      1941.8775     -2066.1978      15.235834     -945.92148     -1603.4379     -2249.207      -264.7203       47805.007      36.293133      36.293133      36.293133      1.3032714     -667.35301     -1452.2496      915.46845    
     21200   21200          304.77176     -802.72175     -2053.6578     -1496.0876      2736.6046     -4232.6922      695.17785      1926.1556     -2072.6106      15.477046     -935.23836     -1612.004      -2249.6498     -265.70642      47627.588      36.248179      36.248179      36.248179      1.3081263     -1324.4244     -183.99953     -899.74137    
     21300   21300          307.17931     -764.89501     -1983.8693     -1453.9227      2758.2224     -4212.1451      696.98696      1942.7238     -2075.2356      16.046174     -950.99158     -1598.6678     -2243.0071     -266.38281      47506.653      36.217473      36.217473      36.217473      1.3114563     -1088.8589      844.3406      -2050.1668    
     21400   21400          304.73239     -225.36457     -1579.2913     -1423.0791      2736.2511     -4159.3301      655.02689      2011.082      -2068.3999      15.814433     -921.87367     -1603.0719     -2247.9079     -266.26075      47528.432      36.223007      36.223007      36.223007      1.3108553     -220.73024      939.21844     -1394.5819    
     21500   21500          307.22205     -161.60247     -1527.2373     -1414.8196      2758.6063     -4173.4258      678.12429      2020.3806     -2083.734       16.355802     -951.12778     -1603.788      -2249.6367     -265.30761      47699.18       36.266333      36.266333      36.266333      1.3061629     -800.34866     -78.978417      394.51966    
[...]
    495100   495100         299.03708     -716.37284     -2048.2396     -1543.9808      2685.1118     -4229.0925      673.14666      1894.8971     -2068.0381      14.430163     -872.44978     -1618.8294     -2252.2491     -262.19361      48265.692      36.409343      36.409343      36.409343      1.290832      -1494.8826     -175.89577     -478.3402     
    495200   495200         292.98267     -595.59949     -1952.8984     -1532.5725      2630.7481     -4163.3206      653.74345      1973.7102     -2063.0008      14.367789     -875.19521     -1617.4931     -2249.4529     -261.51984      48390.04       36.440584      36.440584      36.440584      1.2875149     -1195.6396     -61.167572     -529.99136    
    495300   495300         298.15094     -1544.2136     -2527.4799     -1433.3254      2677.155      -4110.4804      702.14428      1942.08       -2042.6818      14.838732     -865.80716     -1612.1588     -2248.8956     -260.47451      48584.238      36.489266      36.489266      36.489266      1.2823685     -1785.9977     -1351.148      -1495.4952    
    495400   495400         304.47792     -604.18047     -1809.7604     -1380.2692      2733.9661     -4114.2353      685.82077      1997.5612     -2076.6005      15.586408     -873.21089     -1612.5415     -2250.8507     -259.6264       48742.946      36.528956      36.528956      36.528956      1.2781931     -2563.2753     -227.99053      978.72439    
    495500   495500         301.9867      -1752.1474     -2644.8905     -1394.4838      2711.597      -4106.0808      714.33755      1971.962      -2052.9208      15.73383      -903.87723     -1602.611      -2248.7052     -258.61628      48933.33       36.576453      36.576453      36.576453      1.2732201     -2070.2527     -1530.6682     -1655.5213    
    495600   495600         300.87461     -1539.8254     -2561.876      -1461.8496      2701.6113     -4163.461       689.08756      1946.761      -2066.0133      15.186145     -900.81409     -1599.5086     -2248.1597     -258.34788      48984.168      36.589116      36.589116      36.589116      1.2718987     -943.28166     -1543.4292     -2132.7654    
    495700   495700         297.3121      -1389.7679     -2520.6813     -1528.5946      2669.6229     -4198.2175      669.18687      1927.5153     -2062.8447      15.12448      -897.11638     -1600.5031     -2249.58       -258.54084      48947.609      36.580011      36.580011      36.580011      1.2728486     -993.2376      -1890.7947     -1285.2712    
    495800   495800         304.9987      -1735.3888     -2746.5189     -1511.8709      2738.6423     -4250.5133      636.49653      1923.5776     -2072.7223      15.139378     -891.77411     -1611.1326     -2250.0977     -259.41206      48783.222      36.539014      36.539014      36.539014      1.2771378     -1835.1665     -1187.0537     -2183.9461    
    495900   495900         305.38086      19.812751     -1369.6304     -1383.6701      2742.0738     -4125.7439      671.93546      1920.5104     -2065.7261      14.78981      -795.5529      -1621.5735     -2250.127      -260.44999      48588.812      36.490411      36.490411      36.490411      1.2822478      832.38188     -745.78934     -27.154291    
    496000   496000         304.15329     -1342.2264     -2316.9948     -1363.5822      2731.0513     -4094.6335      721.43135      1933.6112     -2042.9113      14.736816     -857.16695     -1615.0337     -2249.3009     -259.82529      48705.636      36.519633      36.519633      36.519633      1.2791723     -1471.2312     -1864.4212     -691.02676    
    496100   496100         302.74159     -1187.2441     -2268.2088     -1422.5667      2718.3753     -4140.9419      707.95451      1960.8295     -2075.0227      15.256289     -881.33501     -1616.3687     -2252.2558     -259.11344      48839.442      36.553045      36.553045      36.553045      1.2756677     -2107.6598     -896.34082     -557.73157    
    496200   496200         297.11622     -328.87563     -1722.5528     -1488.3006      2667.8641     -4156.1647      678.14314      1935.6478     -2050.6458      14.268157     -863.93201     -1616.3797     -2253.2662     -259.11022      48840.049      36.553197      36.553197      36.553197      1.2756518     -839.60559     -613.72052      466.69921    
    496300   496300         298.9478      -2123.0825     -3003.9192     -1489.1466      2684.3102     -4173.4568      696.33333      1940.5819     -2069.0611      14.926002     -890.67076     -1612.2259     -2253.3403     -258.67589      48922.053      36.573643      36.573643      36.573643      1.2735136     -1900.1757     -1696.4373     -2772.6347    
    496400   496400         298.66901     -683.59184     -1915.1283     -1428.0493      2681.8069     -4109.8562      708.76594      1971.7829     -2066.248       15.39244      -861.65894     -1622.231      -2255.6595     -259.02042      48856.981      36.55742       36.55742       36.55742       1.2752097     -104.10246     -1744.1814     -202.49165    
    496500   496500         305.84729     -763.76236     -1896.8686     -1352.1645      2746.262      -4098.4265      694.42292      2011.0827     -2087.1421      15.929784     -862.52975     -1616.5836     -2253.6065     -258.78203      48901.989      36.568643      36.568643      36.568643      1.2740361     -1277.232       246.503       -1260.5581    
    496600   496600         307.79594     -668.89944     -1756.9138     -1278.6597      2763.7593     -4042.419       702.23454      2043.6942     -2066.8798      16.155428     -874.12135     -1613.6836     -2249.8184     -258.13007      49025.501      36.599404      36.599404      36.599404      1.2708263     -75.026032     -229.02831     -1702.644     
    496700   496700         308.43073     -1801.1217     -2588.12       -1300.7136      2769.4592     -4070.1728      724.62056      2002.1977     -2071.7209      15.475108     -882.41042     -1610.6336     -2247.7013     -258.20456      49011.356      36.595884      36.595884      36.595884      1.2711931     -1361.228      -1158.4304     -2883.7067    
    496800   496800         300.00141     -876.2577      -2052.8838     -1427.6144      2693.7707     -4121.385       704.28849      1983.2821     -2093.4174      15.497361     -876.01477     -1609.1117     -2245.9091     -258.64325      48928.228      36.575182      36.575182      36.575182      1.2733528     -605.1367      -923.0379      -1100.5985    
    496900   496900         291.88108     -976.33008     -2166.0877     -1469.1377      2620.8567     -4089.9944      680.28839      2010.6811     -2077.0268      15.920193     -868.08125     -1604.239      -2247.537      -258.5423       48947.332      36.579942      36.579942      36.579942      1.2728558     -750.47287     -475.54469     -1702.9727    
    497000   497000         297.897       -433.32108     -1770.9885     -1461.9995      2674.8748     -4136.8743      677.33274      1930.7679     -2073.9612      14.657416     -829.73248     -1607.2091     -2248.7296     -258.82329      48894.193      36.566699      36.566699      36.566699      1.2742392     -1833.4246      511.1675       22.293914    
    497100   497100         302.07666     -1853.1152     -2730.3598     -1408.2547      2712.4048     -4120.6595      727.12639      1967.6645     -2070.6921      14.708078     -902.72521     -1606.3314     -2250.4097     -258.68601      48920.139      36.573166      36.573166      36.573166      1.2735634     -1689.3956     -1698.1706     -2171.7795    
    497200   497200         302.54666     -1172.3505     -2207.9568     -1372.9464      2716.625      -4089.5714      694.66302      1984.202      -2052.481       15.274062     -864.31676     -1614.7558     -2252.157      -259.12067      48838.079      36.552705      36.552705      36.552705      1.2757033     -618.93238     -392.94319     -2505.1759    
    497300   497300         302.48019     -942.38525     -2106.7663     -1436.7282      2716.0282     -4152.7564      665.66832      1934.3142     -2034.3816      14.348435     -874.73878     -1609.037      -2248.9299     -259.57657      48752.304      36.531293      36.531293      36.531293      1.2779478     -888.33506     -1725.9766     -212.84405    
    497400   497400         297.44406     -1438.6798     -2539.1558     -1515.9785      2670.8078     -4186.7863      686.27786      1924.4785     -2056.583       15.003689     -900.19438     -1606.7841     -2248.9849     -259.50743      48765.293      36.534537      36.534537      36.534537      1.2776074     -694.88439     -2609.4825     -1011.6725    
    497500   497500         295.61543     -1070.7178     -2277.0836     -1516.6002      2654.3881     -4170.9883      682.59762      1922.437      -2060.7816      14.253888     -858.3235      -1619.3588     -2251.8128     -259.84947      48701.103      36.5185        36.5185        36.5185        1.2792913     -1298.9585     -622.40251     -1290.7926    
    497600   497600         305.93156     -691.4117      -1950.3333     -1459.2296      2747.0186     -4206.2482      654.28022      1948.6081     -2076.8798      15.021768     -882.32507     -1615.1875     -2249.766      -259.8364       48703.552      36.519112      36.519112      36.519112      1.279227      -890.7076      -408.82434     -774.70317    
    497700   497700         301.85246     -1404.4942     -2427.7002     -1429.8766      2710.3917     -4140.2682      674.2024       1980.9961     -2077.5382      15.204024     -879.46444     -1605.7377     -2247.9304     -259.77819      48714.466      36.52184       36.52184       36.52184       1.2789404     -1650.1124     -2192.862      -370.50825    
    497800   497800         299.52868     -1146.6225     -2248.7272     -1435.2095      2689.5259     -4124.7354      694.32436      1957.0045     -2052.5258      14.383589     -879.74339     -1607.4021     -2250.7766     -260.12973      48648.633      36.505381      36.505381      36.505381      1.2806711     -1324.2446     -1057.4868     -1058.1361    
    497900   497900         298.87118     -722.50603     -1966.2045     -1454.8106      2683.6221     -4138.4327      697.66345      1948.0761     -2068.6567      14.689503     -873.39355     -1606.2286     -2250.5828     -260.74889      48533.115      36.476463      36.476463      36.476463      1.2837193     -474.71514     -761.71998     -931.08297    
    498000   498000         295.73154     -995.55884     -2189.1992     -1485.261       2655.4308     -4140.6917      668.73718      1983.0105     -2066.2294      14.683435     -880.40421     -1609.251      -2251.2382     -261.01706      48483.252      36.463967      36.463967      36.463967      1.2850396     -2309.9405     -402.76164     -273.97437    
    498100   498100         298.81715     -284.13066     -1698.7093     -1497.5071      2683.137      -4180.6441      669.01382      1955.6569     -2070.367       16.236657     -892.03427     -1609.049      -2250.1013     -260.6285       48555.534      36.482079      36.482079      36.482079      1.2831266     -108.80478      470.64171     -1214.2289    
    498200   498200         304.97722     -792.09414     -1980.0849     -1418.238       2738.4494     -4156.6874      690.32256      1931.6005     -2077.8956      15.28904      -856.97999     -1610.2219     -2248.802      -260.19284      48636.832      36.502429      36.502429      36.502429      1.2809818      324.08033     -1544.989      -1155.3738    
    498300   498300         305.36093     -1415.4542     -2364.1968     -1357.7573      2741.8949     -4099.6522      689.93744      1992.7806     -2060.4428      15.255823     -878.8061      -1609.8999     -2248.4773     -259.56412      48754.642      36.531877      36.531877      36.531877      1.2778865     -316.31854     -2549.2085     -1380.8354    
    498400   498400         302.77457     -1390.7081     -2378.6064     -1389.1647      2718.6714     -4107.8361      702.2026       1974.403      -2049.6717      15.613671     -883.97149     -1615.2634     -2251.1487     -259.40735      48784.107      36.539235      36.539235      36.539235      1.2771146     -2863.8833      56.474397     -1364.7153    
    498500   498500         301.33897     -935.3643      -2139.0738     -1476.4493      2705.7809     -4182.2302      675.82603      1932.8376     -2060.7164      15.369946     -877.18185     -1617.0993     -2251.2663     -260.52528      48574.771      36.486896      36.486896      36.486896      1.2826185     -254.18091     -1201.4657     -1350.4463    
    498600   498600         295.0319      -1700.5826     -2692.3902     -1490.8036      2649.1486     -4139.9521      709.13886      1961.3619     -2066.3844      14.348419     -894.71946     -1611.2371     -2252.4604     -261.2036       48448.626      36.455284      36.455284      36.455284      1.285958      -875.92954     -1878.8245     -2346.9937    
    498700   498700         302.62586      672.19434     -1003.327      -1478.4112      2717.3362     -4195.7474      656.67581      1947.7889     -2073.9587      15.484384     -869.79701     -1618.6223     -2253.3186     -261.13241      48461.834      36.458597      36.458597      36.458597      1.2856075      255.72195      1589.3751      171.48598    
    498800   498800         304.50936      492.97641     -1079.9262     -1430.1354      2734.2484     -4164.3838      648.64739      1984.622      -2075.3803      15.676894     -866.11152     -1620.1776     -2251.6606     -259.79762      48710.823      36.520929      36.520929      36.520929      1.279036      -695.10928      1667.7032      506.3353     
    498900   498900         307.25928     -1430.9266     -2383.6278     -1360.7459      2758.9405     -4119.6864      725.46458      1974.0544     -2073.4313      15.030325     -896.20291     -1613.3891     -2251.2124     -258.18343      49015.368      36.596882      36.596882      36.596882      1.2710891     -1958.6436     -467.74375     -1866.3925    
    499000   499000         307.62542     -582.90438     -1740.1751     -1323.0053      2762.2282     -4085.2335      702.90982      2003.0932     -2083.1151      15.503535     -853.74557     -1618.9108     -2250.9686     -257.88201      49072.658      36.611135      36.611135      36.611135      1.2696051      3.5259863     -1576.6126     -175.6265     
    499100   499100         300.63856     -1355.1807     -2367.194      -1395.9775      2699.4918     -4095.4693      697.98873      1995.218      -2042.2856      16.662175     -899.35105     -1612.9228     -2250.7788     -257.52398      49140.883      36.628094      36.628094      36.628094      1.2678424     -615.6294      -1663.4662     -1786.4465    
    499200   499200         299.8063      -1473.4909     -2519.3431     -1464.5894      2692.0188     -4156.6082      688.61195      1939.666      -2065.8367      14.942733     -868.90861     -1614.051      -2251.0326     -257.8297       49082.615      36.613611      36.613611      36.613611      1.2693476     -2621.239      -307.31219     -1491.9215    
    499300   499300         304.88565     -1427.7948     -2500.5217     -1481.8899      2737.6273     -4219.5172      696.26171      1901.0301     -2083.1537      14.649768     -887.05522     -1611.9023     -2249.3476     -258.69325      48918.771      36.572825      36.572825      36.572825      1.273599      -1266.4723     -2167.6753     -849.23672    
    499400   499400         298.28217     -1455.8635     -2532.095      -1495.7863      2678.3333     -4174.1196      665.64408      1966.4147     -2080.1487      15.499347     -879.97408     -1613.2272     -2248.3277     -259.27941      48808.179      36.545244      36.545244      36.545244      1.2764848     -1286.9101     -2897.9221     -182.75843    
    499500   499500         303.0002      -752.93916     -1993.4235     -1457.887       2720.6974     -4178.5844      680.3434       1931.4963     -2085.1948      15.229504     -849.01025     -1619.6317     -2251.8168     -259.48208      48770.056      36.535727      36.535727      36.535727      1.2774826     -447.29759     -1253.5431     -557.97677    
    499600   499600         305.98986     -735.24879     -1909.3391     -1386.2274      2747.5421     -4133.7696      679.91146      1975.5198     -2071.077       15.492674     -861.78665     -1619.1583     -2252.6716     -259.40385      48784.764      36.539399      36.539399      36.539399      1.2770974     -90.677009     -194.48901     -1920.5803    
    499700   499700         305.818       -1313.1233     -2335.0937     -1400.6906      2745.999      -4146.6896      690.82208      1943.0553     -2056.9751      15.25204      -870.84784     -1616.6554     -2251.3406     -259.36283      48792.48       36.541326      36.541326      36.541326      1.2768955     -2445.0417      822.89654     -2317.2248    
    499800   499800         301.28891     -1966.0912     -2887.0317     -1487.9324      2705.3314     -4193.2638      692.48386      1905.1098     -2059.1084      14.05616      -878.5434      -1614.6588     -2252.603      -259.35322      48794.288      36.541777      36.541777      36.541777      1.2768482     -1755.1224     -2261.1411     -1882.0103    
    499900   499900         300.72466     -1309.0128     -2444.6731     -1512.848       2700.2649     -4213.113       711.84304      1906.9662     -2067.2373      15.35403      -912.47391     -1614.1376     -2253.4274     -259.26629      48810.649      36.545861      36.545861      36.545861      1.2764202     -766.18061     -1717.5424     -1443.3155    
    500000   500000         294.99423     -1119.8063     -2296.578      -1499.1929      2648.8103     -4148.0032      693.48785      1975.5258     -2083.255       15.836968     -885.08476     -1613.5206     -2250.9933     -259.18585      48825.796      36.549641      36.549641      36.549641      1.2760242     -1321.4339     -766.44812     -1271.5369    
Loop time of 986.368 on 1 procs for 500000 steps with 3620 atoms

Performance: 43.797 ns/day, 0.548 hours/ns, 506.910 timesteps/s, 1.835 Matom-step/s
100.0% CPU use with 1 MPI tasks x 1 OpenMP threads

MPI task timing breakdown:
Section |  min time  |  avg time  |  max time  |%varavg| %total
---------------------------------------------------------------
Pair    | 61.271     | 61.271     | 61.271     |   0.0 |  6.21
Bond    | 106.46     | 106.46     | 106.46     |   0.0 | 10.79
Kspace  | 458.78     | 458.78     | 458.78     |   0.0 | 46.51
Neigh   | 37.902     | 37.902     | 37.902     |   0.0 |  3.84
Comm    | 9.622      | 9.622      | 9.622      |   0.0 |  0.98
Output  | 2.93       | 2.93       | 2.93       |   0.0 |  0.30
Modify  | 282.09     | 282.09     | 282.09     |   0.0 | 28.60
Other   |            | 27.31      |            |       |  2.77

Nlocal:           3620 ave        3620 max        3620 min
Histogram: 1 0 0 0 0 0 0 0 0 0
Nghost:          11959 ave       11959 max       11959 min
Histogram: 1 0 0 0 0 0 0 0 0 0
Neighs:              0 ave           0 max           0 min
Histogram: 1 0 0 0 0 0 0 0 0 0
FullNghs:  1.69935e+06 ave 1.69935e+06 max 1.69935e+06 min
Histogram: 1 0 0 0 0 0 0 0 0 0

Total # of neighbors = 1699350
Ave neighs/atom = 469.4337
Ave special neighs/atom = 5.9723757
Neighbor list builds = 11566
Dangerous builds = 0
System init for write_data ...
PPPM Kokkos initialization ...
  using 12-bit tables for long-range coulomb
  G vector (1/distance) = 0.29753504
  grid = 25 25 25
  stencil order = 5
  estimated absolute RMS force accuracy = 0.00033008043
  estimated relative force accuracy = 9.9402742e-07
  using double precision cuFFT
  3d grid and FFT values/proc = 32768 15625
Generated 6 of 6 mixed pair_coeff terms from sixthpower/sixthpower mixing rule
STAGE COMPLETE: NPT T=300.0->300.0K P=-1000.0->-1000.0atm steps=500000
