units real
atom_style full
boundary p p p

# --- Force Field Styles ---
pair_style lj/cut 14.0
dielectric 1.000000
bond_style harmonic
angle_style harmonic
dihedral_style multi/harmonic
improper_style none
special_bonds lj 0 0 0
pair_modify mix arithmetic tail yes
neighbor 2.0 bin
neigh_modify delay 0 every 1 check yes
neigh_modify one 4000
# GPU disabled (CPU run)

read_data /home/arz2/PolyJarvis/data/cis-PBD4/lammps/equil/npt_cool_melt/npt_cool_melt_out.data
Reading data file ...
  orthogonal box = (4.0894662 4.0894662 4.0894662) to (64.088911 64.088911 64.088911)
  2 by 2 by 2 MPI processor grid
  reading atoms ...
  8040 atoms
  reading velocities ...
  8040 velocities
  scanning bonds ...
  2 = max bonds/atom
  scanning angles ...
  1 = max angles/atom
  scanning dihedrals ...
  2 = max dihedrals/atom
  orthogonal box = (4.0894662 4.0894662 4.0894662) to (64.088911 64.088911 64.088911)
  2 by 2 by 2 MPI processor grid
  reading bonds ...
  8020 bonds
  reading angles ...
  8000 angles
  reading dihedrals ...
  7980 dihedrals
Finding 1-2 1-3 1-4 neighbors ...
  special bond factors lj:    0        0        0       
  special bond factors coul:  0        0        0       
     2 = max # of 1-2 neighbors
     2 = max # of 1-3 neighbors
     4 = max # of 1-4 neighbors
     6 = max # of special neighbors
  special bonds CPU = 0.001 seconds
  read_data CPU = 0.151 seconds
include /home/arz2/PolyJarvis/data/cis-PBD4/lammps/equil/emc_build.params
# LAMMPS parameters created by EMC v9.4.4, build Jul 31 2025 20:33:44

# Variables

variable	seed		index	482913
variable	ntotal		index	8040
variable	fshape		index	1
variable	output		index	emc_build
variable	field		index	trappe/2014/trappe-ua
variable	location1	index	/home/arz2/emc/field/
variable	nav		index	0.6022141179
variable	temperature	index	300
variable	radius		index	5
variable	nrelax		index	100
variable	weight_nonbond	index	0.0001
variable	weight_bond	index	0.0001
variable	weight_focus	index	1
variable	cutoff		index	14
variable	charge_cutoff	index	14
variable	kappa		index	4
variable	density1	index	0.57
variable	lprevious	index	0
variable	lphase		index	68.1783775471
variable	f_poly		index	20
variable	chem_repeat	index	*C/C=C\C*
variable	chem_cap	index	*C
variable	lg_repeat	index	4
variable	lg_cap		index	1
variable	norm_poly	index	100
variable	l_poly		index	402
variable	mg_repeat	index	54.0914
variable	mg_cap		index	15.0347
variable	m_poly		index	5439.2094
variable	n_poly		index	20
variable	mtotal		index	108784.188
variable	nphase1		index	8040
variable	mphase1		index	108784.188
variable	vphase1		index	316912.949994
variable	lbox		index	68.1783775471
variable	lphase1		index	68.1783775471
variable	lxx		index	68.1783775471
variable	lyy		index	68.1783775471
variable	lzz		index	68.1783775471
variable	lzy		index	0
variable	lzx		index	0
variable	lyx		index	0
variable	vtotal		index	316912.949994
variable	nl_poly		index	20

# Types

variable	type_c3h	index	1
variable	type_c4h2	index	2
variable	type_c4h3	index	3

variable	type_bond_c3h_c3h index	1
variable	type_bond_c3h_c4h2 index	2
variable	type_bond_c4h2_c4h2 index	3
variable	type_bond_c4h2_c4h3 index	4

variable	type_angle_c3h_c3h_c4h2 index	1
variable	type_angle_c3h_c4h2_c4h2 index	2
variable	type_angle_c3h_c4h2_c4h3 index	3

# Clusters

variable	n0_poly		index	1
variable	n1_poly		index	20
variable	nl_poly		index	20

# Flags

variable	flag_charged	index	0

# Masses

mass		1    13.01890  # c3h
mass		2    14.02680  # c4h2
mass		3    15.03470  # c4h3

# Potentials

pair_modify	mix arithmetic tail yes
special_bonds	lj 0 0 0 coul 0 0 0.5
Finding 1-2 1-3 1-4 neighbors ...
  special bond factors lj:    0        0        0       
  special bond factors coul:  0        0        0.5     
     2 = max # of 1-2 neighbors
     2 = max # of 1-3 neighbors
     4 = max # of 1-4 neighbors
     6 = max # of special neighbors
  special bonds CPU = 0.001 seconds

# Pair Coeffs

pair_coeff	1 1    0.09340    3.71000  # c3h,c3h
pair_coeff	2 2    0.09141    3.95000  # c4h2,c4h2
pair_coeff	3 3    0.19475    3.75000  # c4h3,c4h3

# Bond Coeffs

bond_coeff	1  529.99987    1.33000  # c3h,c3h
bond_coeff	2  260.00013    1.54000  # c3h,c4h2
bond_coeff	3  260.00013    1.54000  # c4h2,c4h2
bond_coeff	4  260.00013    1.54000  # c4h2,c4h3

# Angle Coeffs

angle_coeff	1   69.96954  119.70000  # c3h,c3h,c4h2
angle_coeff	2   62.10020  114.00000  # c3h,c4h2,c4h2
angle_coeff	3   62.10020  114.00000  # c3h,c4h2,c4h3

# Dihedral Coeffs

dihedral_coeff	1    1.91086    1.85422    0.43627   -2.24348    0.00000  # c3h,c3h,c4h2,c4h2
dihedral_coeff	2    1.91086    1.85422    0.43627   -2.24348    0.00000  # c3h,c3h,c4h2,c4h3
dihedral_coeff	3    2.00702   -4.01203    0.27102    6.29006    0.00000  # c3h,c4h2,c4h2,c3h
dihedral_coeff	4   25.63496    0.99360  -25.63496   -0.99360    0.00000  # c4h2,c3h,c3h,c4h2


# --- Thermo Output ---
thermo_style custom step time temp press enthalpy etotal ke pe ebond eangle edihed eimp evdwl ecoul elong etail vol lx ly lz density pxx pyy pzz
thermo_modify flush yes
thermo 1000

# --- Trajectory ---
dump dump_npt all custom 1000 npt_melt.dump id type mol x y z ix iy iz vx vy vz

# --- Restart Checkpointing ---
restart 10000 npt_1.rst npt_2.rst

# --- Initial Velocities (optional) ---
# Velocities read from data file

# --- SHAKE Constraints ---
# SHAKE disabled (TraPPE-UA united-atom)

# --- NPT Thermostat + Barostat (Nose-Hoover) ---
# T_damp = 100.0 fs  (heat bath coupling)
# P_damp = 1000.0 fs  (pressure bath coupling, ~10x T_damp typical)
# Ramp: T=400.0->400.0K  P=1.0->1.0atm
timestep 2.0
fix npt_fix all npt temp 400.0 400.0 100.0 iso 1.0 1.0 1000.0

run 500000
Generated 3 of 3 mixed pair_coeff terms from arithmetic mixing rule
Neighbor list info ...
  update: every = 1 steps, delay = 0 steps, check = yes
  max neighbors/atom: 4000, page size: 100000
  master list distance cutoff = 16
  ghost atom cutoff = 16
  binsize = 8, bins = 8 8 8
  1 neighbor lists, perpetual/occasional/extra = 1 0 0
  (1) pair lj/cut, perpetual
      attributes: half, newton on
      pair build: half/bin/newton
      stencil: half/bin/3d
      bin: standard
Per MPI rank memory allocation (min/avg/max) = 9.199 | 9.203 | 9.207 Mbytes
   Step          Time           Temp          Press         Enthalpy        TotEng         KinEng         PotEng         E_bond        E_angle        E_dihed        E_impro         E_vdwl         E_coul         E_long         E_tail         Volume           Lx             Ly             Lz          Density          Pxx            Pyy            Pzz      
         0   0              398.7278      -155.7332       16950.856      17441.424      9554.6075      7886.8163      3287.7373      3185.5635      9564.5328      0             -8151.0174      0              0             -269.10327      215994.01      59.999445      59.999445      59.999445      0.83632125     33.172834      65.541049     -565.91349    
      1000   2000           403.17891      231.211        18192.98       17469.508      9661.2681      7808.2402      3236.7783      3197.2459      9545.9012      0             -8171.6852      0              0             -270.90921      214554.15      59.865825      59.865825      59.865825      0.84193376     393.81298     -334.42248      634.24248    
      2000   4000           400.81175     -199.14728      16759.483      17386.805      9604.5445      7782.261       3304.1714      3162.523       9498.1371      0             -8182.5704      0              0             -269.10401      215993.42      59.99939       59.99939       59.99939       0.83632354    -447.82711      179.31386     -328.9286     
      3000   6000           396.67436      385.27349      18670.019      17455.593      9505.4014      7950.192       3308.8407      3211.5048      9567.5505      0             -8137.704       0              0             -268.92728      216135.36      60.012531      60.012531      60.012531      0.8357743      324.33743      688.69322      142.78983    
      4000   8000           406.82481      742.99225      19831.123      17493.69       9748.6338      7745.0561      3295.1382      3071.6841      9521.1077      0             -8142.8739      0              0             -269.45214      215714.36      59.97354       59.97354       59.97354       0.83740545     820.26666      294.62664      1114.0834    
      5000   10000          399.30285      490.51418      18944.219      17396.273      9568.3871      7827.8856      3208.5555      3154.0981      9586.473       0             -8121.241       0              0             -268.61626      216385.62      60.035684      60.035684      60.035684      0.83480769     473.30958      675.75371      322.47925    
      6000   12000          400.35777     -458.68948      16006.798      17450.612      9593.6659      7856.9462      3241.7801      3166.9702      9580.6021      0             -8132.4061      0              0             -269.3047       215832.46      59.984483      59.984483      59.984483      0.83694724    -191.93133     -720.95272     -463.1844     
      7000   14000          395.15044     -474.46412      15860.897      17351.516      9468.884       7882.632       3270.6874      3234.935       9536.4505      0             -8159.4408      0              0             -269.81941      215420.73      59.946316      59.946316      59.946316      0.83854685    -1408.8475      118.61036     -133.15526    
      8000   16000          402.05154      326.92926      18601.604      17571.584      9634.2533      7937.3306      3160.9094      3276.4389      9650.1067      0             -8150.1244      0              0             -269.05716      216031.03      60.002873      60.002873      60.002873      0.83617793     138.24089      767.19865      75.348242    
      9000   18000          402.19968     -99.818293      17117.156      17432.272      9637.8031      7794.4689      3219.9115      3119.5885      9559.6359      0             -8104.6671      0              0             -268.51949      216463.6       60.042895      60.042895      60.042895      0.83450696     525.25823      107.84058     -932.55369    
     10000   20000          400.41805      301.08011      18415.087      17459.506      9595.1104      7864.3955      3222.8958      3136.5082      9566.3473      0             -8061.3558      0              0             -267.08601      217625.38      60.150122      60.150122      60.150122      0.83005199     836.92827     -444.13436      510.44642    
     11000   22000          398.35149      916.20993      20459.224      17569.16       9545.5899      8023.5704      3265.2667      3273.9139      9619.1296      0             -8134.7398      0              0             -268.73491      216290.08      60.026847      60.026847      60.026847      0.83517645     601.14741      1082.2167      1065.2657    
     12000   24000          399.18592      318.94089      18417.796      17419.795      9565.5852      7854.2094      3145.8263      3307.2781      9592.5423      0             -8191.4373      0              0             -270.90421      214558.11      59.866193      59.866193      59.866193      0.8419182      233.10397      623.25147      100.46723    
     13000   26000          398.56889     -5.1451712      17661.031      17677.392      9550.7996      8126.592       3339.7822      3285.1882      9580.533       0             -8078.9115      0              0             -266.58224      218036.63      60.187988      60.187988      60.187988      0.82848636    -513.15995     -36.56128       534.28572    
     14000   28000          397.7239      -189.11136      16808.895      17406.02       9530.5513      7875.4682      3275.8829      3101.429       9621.6955      0             -8123.5391      0              0             -268.46614      216506.61      60.046872      60.046872      60.046872      0.83434116    -511.5296       336.00791     -391.8124     
     15000   30000          405.03897     -414.21223      16359.578      17659.685      9705.8403      7953.8445      3301.6541      3186.3284      9622.8072      0             -8156.9451      0              0             -270.07254      215218.83      59.927582      59.927582      59.927582      0.83933353    -506.53216     -563.41397     -172.69056    
     16000   32000          408.31174      414.60914      18943.552      17647.03       9784.2648      7862.7651      3183.7001      3288.9178      9571.5157      0             -8181.3686      0              0             -271.07877      214419.95      59.853341      59.853341      59.853341      0.8424607      502.19229      376.01368      365.62145    
     17000   34000          398.3736      -361.77213      16366.075      17510.085      9546.1198      7963.9649      3330.1968      3204.2914      9556.3665      0             -8126.8897      0              0             -268.06626      216829.58      60.076715      60.076715      60.076715      0.8330984      36.232278     -381.87141     -739.67726    
     18000   36000          403.65113     -104.80603      17134.761      17465.522      9672.5839      7792.9377      3201.8934      3130.6017      9540.2194      0             -8079.7768      0              0             -268.6022       216396.94      60.036732      60.036732      60.036732      0.834764       23.944917     -133.24153     -205.12148    
     19000   38000          402.69885      527.37388      19145.375      17493.403      9649.7646      7843.6383      3224.1489      3170.4684      9605.3841      0             -8156.3631      0              0             -270.61545      214787.05      59.887479      59.887479      59.887479      0.84102079     247.34972      865.2135       469.55842    
     20000   40000          399.20556     -150.96626      17007.988      17487.252      9566.0559      7921.1966      3263.747       3211.5844      9547.4975      0             -8101.6324      0              0             -267.01862      217680.3       60.155182      60.155182      60.155182      0.82984255     297.90925     -573.94137     -176.86665    
     21000   42000          396.7931      -263.09725      16484.912      17314.324      9508.2467      7806.0775      3235.6326      3133.2275      9568.5332      0             -8131.3159      0              0             -268.895        216161.31      60.014932      60.014932      60.014932      0.83567397    -468.99594     -498.04402      177.74821    
     22000   44000          398.77648     -128.65938      17014.754      17421.295      9555.7739      7865.5214      3214.4698      3150.0998      9615.5235      0             -8114.5717      0              0             -268.27109      216664.03      60.061421      60.061421      60.061421      0.83373497    -67.655307     -151.32291     -166.99991    
     23000   46000          393.93431     -472.6204       15733.999      17223.726      9439.7422      7783.9839      3193.4598      3176.5502      9548.1358      0             -8134.1619      0              0             -268.93194      216131.62      60.012184      60.012184      60.012184      0.83578877    -500.55218     -341.66506     -575.64395    
     24000   48000          400.54053      64.91653       17598.528      17394.081      9598.0454      7796.0358      3296.9977      3122.3327      9522.3892      0             -8145.6839      0              0             -269.16131      215947.44      59.995133      59.995133      59.995133      0.83650161    -144.16844      598.69397     -259.77594    
     25000   50000          404.27824     -563.73187      15725.553      17504.693      9687.611       7817.0817      3233.2394      3100.8211      9563.2689      0             -8080.2477      0              0             -268.59572      216402.16      60.037214      60.037214      60.037214      0.83474386    -188.02261     -676.98515     -826.18786    
     26000   52000          398.83314      44.342453      17629.658      17489.415      9557.1315      7932.2836      3259.8624      3217.0239      9534.3553      0             -8078.9581      0              0             -268.02445      216863.4       60.079838      60.079838      60.079838      0.83296848     161.52342      388.06708     -416.56314    
     27000   54000          398.44622      110.26109      17888.224      17539.482      9547.86        7991.6223      3338.1817      3200.1803      9556.1371      0             -8102.8768      0              0             -268.01218      216873.33      60.080756      60.080756      60.080756      0.83293033     67.215052      452.97479     -189.40658    
     28000   56000          401.49026      158.41467      18021.359      17524.85       9620.8035      7904.0463      3365.7655      3175.5219      9529.3746      0             -8166.6157      0              0             -270.46106      214909.66      59.898872      59.898872      59.898872      0.84054099     153.81644      335.52563     -14.098073    
     29000   58000          400.61591      262.98908      18426.594      17605.2        9599.8518      8005.3486      3325.5024      3183.4289      9761.7962      0             -8265.3789      0              0             -271.40821      214159.68      59.829114      59.829114      59.829114      0.84348454     374.35581      377.9332       36.678232    
     30000   60000          397.88756     -409.23654      15991.521      17268.896      9534.473       7734.4228      3183.9347      3207.0643      9534.7622      0             -8191.3385      0              0             -271.57688      214026.67      59.816725      59.816725      59.816725      0.84400872    -512.64498     -420.54003     -294.5246     
     31000   62000          404.68558     -107.55152      17223.189      17562.84       9697.3721      7865.4677      3266.6652      3197.7805      9552.1461      0             -8151.1242      0              0             -268.42315      216541.29      60.050077      60.050077      60.050077      0.83420755     533.20034     -261.15299     -594.7019     
     32000   64000          399.2094      -132.32348      16992.908      17406.15       9566.1479      7840.0025      3318.5083      3193.3696      9521.141       0             -8193.0164      0              0             -271.43689      214137.05      59.827007      59.827007      59.827007      0.84357367     572.07461     -410.67696     -558.36809    
     33000   66000          399.62845      12.435024      17380.946      17341.834      9576.1895      7765.6443      3304.721       3145.5099      9466.3492      0             -8150.9358      0              0             -269.50703      215670.42      59.969468      59.969468      59.969468      0.83757606    -567.03566      631.90149     -27.560754    
     34000   68000          408.45264     -81.599085      17229.255      17487.372      9787.6412      7699.7304      3290.7316      3106.6794      9458.7999      0             -8156.4805      0              0             -267.98223      216897.57      60.082993      60.082993      60.082993      0.83283727    -392.42576     -117.81076      265.43927    
     35000   70000          393.1104       226.30447      17861.662      17150.415      9419.9992      7730.4157      3348.1565      3082.2818      9479.4952      0             -8179.5178      0              0             -269.71746      215502.16      59.953868      59.953868      59.953868      0.83823001     1122.8082     -271.59465     -172.30009    
     36000   72000          410.54076     -82.652544      17501.772      17762.394      9837.6783      7924.7154      3257.1623      3245.8737      9508.0036      0             -8086.3242      0              0             -268.83297      216211.19      60.019548      60.019548      60.019548      0.83548119     323.90945      28.635235     -600.50232    
     37000   74000          390.57235      223.11848      17817.378      17113.425      9359.1804      7754.2445      3240.0597      3121.5989      9515.0528      0             -8122.467       0              0             -268.67569      216337.75      60.031257      60.031257      60.031257      0.8349924      391.34041      252.50398      25.51105     
     38000   76000          399.53059     -613.73334      15500.301      17436.878      9573.8444      7863.0341      3301.4845      3129.1433      9541.5585      0             -8109.1523      0              0             -268.64669      216361.1       60.033417      60.033417      60.033417      0.83490228    -111.37508     -883.21189     -846.61305    
     39000   78000          406.53656     -329.79705      16497.072      17536.52       9741.7266      7794.7936      3229.9781      3189.1437      9519.5262      0             -8143.8544      0              0             -268.95551      216112.68      60.010431      60.010431      60.010431      0.83586202    -307.56658      225.51253     -907.33711    
     40000   80000          402.2201       407.50051      18601.522      17325.698      9638.2926      7687.4058      3253.554       3098.181       9506.8651      0             -8171.1943      0              0             -270.75344      214677.58      59.877303      59.877303      59.877303      0.84144966     125.37202      500.62707      596.50244    
     41000   82000          397.50137      320.32873      18401.981      17399.27       9525.2188      7874.0515      3321.3774      3154.1328      9595.0118      0             -8196.4705      0              0             -270.80512      214636.62      59.873494      59.873494      59.873494      0.84161025     530.961        15.278178      414.74701    
     42000   84000          396.64531     -94.684307      17145.949      17444.599      9504.7053      7939.8939      3330.1091      3215.8907      9594.9044      0             -8201.0103      0              0             -268.75204      216276.29      60.025572      60.025572      60.025572      0.83522967    -546.7148      -144.68729      407.34916    
     43000   86000          403.03137      0.37719075     17479.001      17477.815      9657.7326      7820.0821      3357.8355      3091.6129      9493.5688      0             -8122.9351      0              0             -269.62921      215572.7       59.960409      59.960409      59.960409      0.83795574     175.69426      73.687961     -248.25065    
     44000   88000          396.53723      438.24659      18491.12       17130.131      9502.1155      7628.0151      3206.3928      3076.2741      9559.9651      0             -8214.6168      0              0             -272.96086      212941.5       59.715458      59.715458      59.715458      0.84830989     498.319        215.23544      601.18532    
     45000   90000          400.42355     -512.75755      15859.173      17473.564      9595.2423      7878.3216      3255.0405      3167.9738      9577.1967      0             -8121.8894      0              0             -269.24017      215884.19      59.989275      59.989275      59.989275      0.83674669    -716.91197     -303.63019     -517.73049    
     46000   92000          401.37412      340.93791      18674.675      17607.213      9618.0206      7989.1925      3270.2         3255.0488      9570.7895      0             -8106.8458      0              0             -270.74442      214684.74      59.877968      59.877968      59.877968      0.84142162     1165.292      -130.98849     -11.489774    
     47000   94000          411.46772     -303.49787      16807.962      17766.188      9859.8906      7906.2977      3200.5545      3269.62        9548.6987      0             -8112.5755      0              0             -268.48754      216489.36      60.045277      60.045277      60.045277      0.83440766    -136.50671     -143.07262     -630.91428    
     48000   96000          404.12245     -233.0224       16761.104      17494.796      9683.8779      7810.9183      3202.8436      3195.0455      9583.5322      0             -8170.503       0              0             -269.22793      215894         59.990183      59.990183      59.990183      0.83670867    -289.92432     -265.12559     -144.01731    
     49000   98000          393.86371     -36.300574      17125.535      17239.068      9438.0505      7801.018       3268.1617      3184.9112      9564.9484      0             -8217.0033      0              0             -271.03637      214453.49      59.856461      59.856461      59.856461      0.84232894     194.36744     -49.202945     -254.06621    
     50000   100000         401.61407     -70.852345      17186.331      17407.431      9623.7703      7783.6608      3219.6056      3213.0426      9575.3118      0             -8224.2992      0              0             -271.64507      213972.94      59.811719      59.811719      59.811719      0.84422066     211.64899     -1218.1961      793.99005    
     51000   102000         393.88177     -570.86479      15463.05       17254.289      9438.4832      7815.8063      3254.826       3198.3418      9536.7889      0             -8174.1505      0              0             -270.157        215151.54      59.921336      59.921336      59.921336      0.83959602    -606.17483     -700.42684     -405.99269    
     52000   104000         396.61924     -73.820367      17035.152      17267.513      9504.0806      7763.432       3149.8327      3202.8768      9561.2926      0             -8150.57        0              0             -269.30813      215829.7       59.984228      59.984228      59.984228      0.83695791    -760.10655      327.62617      211.01928    
     53000   106000         396.67719     -530.17638      15498.993      17163.635      9505.4692      7658.1657      3206.2674      3176.52        9481.2317      0             -8205.8534      0              0             -269.98288      215290.3       59.934215      59.934215      59.934215      0.83905489    -805.64342     -536.12726     -248.75847    
     54000   108000         398.39059      30.758235      17576.234      17479.313      9546.5269      7932.7858      3318.3564      3171.5062      9578.9546      0             -8136.0314      0              0             -269.01752      216062.86      60.00582       60.00582       60.00582       0.83605474    -28.336177     -184.88366      305.49454    
     55000   110000         406.94262      213.69813      18308.633      17637.971      9751.457       7886.5141      3223.8071      3211.3051      9594.2981      0             -8142.8961      0              0             -270.10562      215192.46      59.925135      59.925135      59.925135      0.83943636    -607.8417       824.47243      424.46364    
     56000   112000         404.31007     -85.426382      17317.417      17586.279      9688.3739      7897.905       3184.411       3311.5531      9569.8453      0             -8167.9044      0              0             -269.33947      215804.59      59.981901      59.981901      59.981901      0.83705531     362.01523     -516.64611     -101.64827    
     57000   114000         403.51055      184.95458      18083.68       17504.541      9669.2151      7835.3255      3199.3881      3215.1221      9602.7088      0             -8181.8936      0              0             -270.71898      214704.91      59.879844      59.879844      59.879844      0.84134254     196.07462     -451.83759      810.6267     
     58000   116000         399.67166      198.96054      18251.591      17625.317      9577.2249      8048.0923      3341.1809      3274.5072      9601.9079      0             -8169.5038      0              0             -269.30163      215834.91      59.98471       59.98471       59.98471       0.83693771     235.83539      979.23672     -618.19049    
     59000   118000         400.52544     -131.11951      17021.718      17431.423      9597.6837      7833.7394      3293.9085      3275.4005      9492.1579      0             -8227.7275      0              0             -271.28927      214253.57      59.837855      59.837855      59.837855      0.84311492    -310.10673     -528.23979      444.98799    
     60000   120000         406.44588      297.07057      18453.332      17524.674      9739.5537      7785.1199      3251.022       3172.4604      9608.7294      0             -8247.0918      0              0             -271.16915      214348.48      59.84669       59.84669       59.84669       0.84274158     124.00397      501.90678      265.30096    
     61000   122000         401.90329      358.59426      18730.259      17611.84       9630.7007      7981.1392      3312.7435      3233.2547      9686.7459      0             -8251.6049      0              0             -271.79129      213857.83      59.800992      59.800992      59.800992      0.84467507     1025.4229     -93.976804      144.33669    
     62000   124000         398.40341      429.5671       18620.925      17279.946      9546.8342      7733.1118      3188.5087      3130.131       9617.3936      0             -8202.9216      0              0             -271.54736      214049.94      59.818893      59.818893      59.818893      0.84391698     527.15238      601.35781      160.19111    
     63000   126000         398.53674     -283.00801      16515.74       17404.44       9550.029       7854.4108      3335.0317      3192.9621      9559.9765      0             -8233.5595      0              0             -269.9482       215317.96      59.936781      59.936781      59.936781      0.83894711    -542.51229     -464.5569       158.04516    
     64000   128000         407.01378      223.49722      18203.08       17498.774      9753.162       7745.6117      3214.2845      3177.1791      9528.4758      0             -8174.3277      0              0             -268.99696      216079.37      60.007348      60.007348      60.007348      0.83599085     984.30627     -432.93823      119.12361    
     65000   130000         397.64224     -249.05538      16529.854      17312.519      9528.5945      7783.925       3244.9121      3178.5922      9520.3117      0             -8159.891       0              0             -269.74688      215478.66      59.951689      59.951689      59.951689      0.83832144    -678.39865     -503.42193      434.65443    
     66000   132000         392.98515      299.83776      18196.428      17257.276      9416.9979      7840.2778      3357.1008      3114.3746      9574.1516      0             -8205.3492      0              0             -270.63693      214770         59.885894      59.885894      59.885894      0.84108756    -82.27377       360.58864      621.19842    
     67000   134000         399.47386     -227.36158      16603.981      17313.18       9572.485       7740.6955      3312.7564      3186.9645      9515.8566      0             -8274.882       0              0             -271.75986      213882.56      59.803297      59.803297      59.803297      0.8445774     -704.37736      274.4772      -252.18459    
     68000   136000         394.50955      292.56118      18164.546      17248.54       9453.5266      7795.0135      3256.1355      3225.7433      9485.8674      0             -8172.7326      0              0             -270.74165      214686.94      59.878173      59.878173      59.878173      0.84141299     731.81205      322.97262     -177.10113    
     69000   138000         407.15616     -204.14466      16802.745      17442.848      9756.574       7686.2738      3238.8221      3187.6098      9512.6949      0             -8252.853       0              0             -270.34917      214998.61      59.907135      59.907135      59.907135      0.84019326    -665.22476     -114.01614      166.80692    
     70000   140000         394.02454     -49.294753      17209.354      17364.878      9441.9044      7922.9734      3331.4491      3258.4136      9443.8113      0             -8110.7006      0              0             -268.68319      216331.71      60.030698      60.030698      60.030698      0.83501572    -229.97474      383.59857     -301.50809    
     71000   142000         402.5433       10.413513      17290.314      17257.862      9646.0371      7611.8249      3237.2555      3179.3382      9469.958       0             -8274.7268      0              0             -272.01848      213679.21      59.784338      59.784338      59.784338      0.84538115    -77.966093     -51.018885      160.22552    
     72000   144000         404.97445     -373.30282      16280.289      17452.26       9704.2942      7747.9656      3267.3599      3174.6025      9514.1879      0             -8208.1847      0              0             -270.01084      215268         59.932146      59.932146      59.932146      0.8391418     -370.51557      225.2066      -974.5995     
     73000   146000         397.9115       922.42846      20425.445      17522.647      9535.0467      7987.6005      3311.0381      3244.1917      9590.6775      0             -8158.3067      0              0             -269.372        215778.53      59.979487      59.979487      59.979487      0.8371564      452.66198      1054.0106      1260.6128    
     74000   148000         402.94524      63.241908      17598.142      17400.155      9655.6688      7744.4859      3244.9089      3166.9876      9570.0898      0             -8237.5004      0              0             -270.77222      214662.69      59.875919      59.875919      59.875919      0.84150802    -269.72656      50.818369      408.63391    
     75000   150000         400.00882     -87.276741      17184.916      17458.9        9585.3042      7873.5962      3293.5753      3192.0278      9569.5984      0             -8181.6053      0              0             -270.02844      215253.97      59.930844      59.930844      59.930844      0.83919649    -379.7046      -460.01841      577.89279    
     76000   152000         403.48566     -100.24447      17094.63       17409.58       9668.6187      7740.9609      3286.7714      3109.9215      9515.0095      0             -8170.7415      0              0             -269.80827      215429.63      59.947141      59.947141      59.947141      0.83851223     449.38137     -793.76106      43.64629     
     77000   154000         397.5161      -37.069231      17179.751      17296.179      9525.5718      7770.6069      3259.8104      3152.8131      9527.0727      0             -8169.0894      0              0             -269.89404      215361.17      59.94079       59.94079       59.94079       0.83877879    -522.65347      404.01453      7.4312505    
     78000   156000         408.35691     -585.59056      15594.024      17423.056      9785.3473      7637.7088      3212.2443      3184.3591      9500.8039      0             -8259.6986      0              0             -271.39965      214166.43      59.829743      59.829743      59.829743      0.84345794    -413.54834     -558.89155     -784.33177    
     79000   158000         395.89019     -287.43212      16350.29       17246.561      9486.6105      7759.9503      3314.2908      3137.3639      9593.4348      0             -8285.1393      0              0             -271.85222      213809.89      59.796523      59.796523      59.796523      0.84486445    -652.83196     -198.27598     -11.188415    
     80000   160000         401.40095     -231.91982      16687.078      17415.78       9618.6633      7797.1169      3304.527       3113.2247      9522.8927      0             -8143.5274      0              0             -269.78908      215444.95      59.948563      59.948563      59.948563      0.83845259    -265.12766     -343.94326     -86.688539    
     81000   162000         396.33711      351.95667      18226.741      17119.755      9497.32        7622.4348      3140.6392      3108.8789      9575.6187      0             -8202.702       0              0             -269.51538      215663.74      59.968849      59.968849      59.968849      0.83760198     80.65965       565.55158      409.65876    
     82000   164000         398.94486     -136.80527      16887.405      17317.773      9559.8089      7757.9643      3275.6748      3164.8669      9482.0537      0             -8164.631       0              0             -269.46316      215705.53      59.972722      59.972722      59.972722      0.83743971    -230.08666     -239.11617      58.787012    
     83000   166000         398.60934     -408.96108      16046.848      17327.445      9551.7688      7775.6766      3257.6122      3155.1733      9535.0695      0             -8172.1784      0              0             -270.71092      214711.3       59.880438      59.880438      59.880438      0.8413175     -231.16738     -341.76237     -653.9535     
     84000   168000         397.07152     -244.08074      16579.428      17352.299      9514.9184      7837.3808      3270.6442      3204.5145      9478.1424      0             -8115.9202      0              0             -267.70908      217118.88      60.103421      60.103421      60.103421      0.83198835    -109.75243     -381.82742     -240.66236    
     85000   170000         399.89089     -21.914148      17263.013      17331.731      9582.4783      7749.253       3216.0232      3248.0825      9498.4695      0             -8213.3223      0              0             -270.32641      215016.7       59.908816      59.908816      59.908816      0.84012253    -118.75898     -350.18267      403.1992     
     86000   172000         392.42884     -386.6621       15952.394      17165.3        9403.6672      7761.6327      3217.1198      3157.7282      9543.3162      0             -8156.5316      0              0             -270.23465      215089.72      59.915596      59.915596      59.915596      0.83983735    -871.32493      359.18117     -647.84255    
     87000   174000         396.19151      592.83969      19236.593      17378.12       9493.8309      7884.2894      3269.3829      3253.4683      9558.7247      0             -8197.2865      0              0             -270.4069       214952.71      59.902871      59.902871      59.902871      0.84037265     432.71257      427.59433      918.21219    
     88000   176000         395.07415      460.30933      18712.734      17272.67       9467.0561      7805.6135      3335.5755      3189.8565      9546.8186      0             -8266.6371      0              0             -270.95952      214514.31      59.86212       59.86212       59.86212       0.84209009     439.68694      442.71238      498.52866    
     89000   178000         400.70405      304.31873      18350.842      17397.943      9601.9638      7795.9795      3291.0911      3211.6522      9502.3177      0             -8209.0816      0              0             -270.71877      214705.08      59.879859      59.879859      59.879859      0.8413419      660.44756      59.647225      192.86139    
     90000   180000         400.08587      421.94502      18648.898      17334.496      9587.1505      7747.3454      3306.6527      3184.8969      9483.359       0             -8227.5632      0              0             -272.12239      213597.62      59.776728      59.776728      59.776728      0.84570407     174.70321      336.82324      754.30862    
     91000   182000         394.38176      428.03576      18415.281      17087.207      9450.4645      7636.7429      3267.4466      3149.8575      9498.1535      0             -8278.7147      0              0             -273.20874      212748.3       59.697393      59.697393      59.697393      0.84908026     346.8142       501.09123      436.20186    
     92000   184000         399.05644     -173.59175      16618.739      17159.154      9562.4824      7596.6716      3217.1477      3163.7135      9483.3937      0             -8267.5834      0              0             -272.29396      213463.03      59.76417       59.76417       59.76417       0.84623729    -426.64036     -231.08488      136.94999    
     93000   186000         400.20513      319.22861      18410.478      17414.274      9590.0083      7824.2656      3259.2799      3230.8747      9605.0298      0             -8270.9188      0              0             -271.63763      213978.8       59.812265      59.812265      59.812265      0.84419754     156.31048      665.61597      135.75939    
     94000   188000         397.48894      43.985884      17493.248      17354.335      9524.9209      7829.4145      3218.1383      3196.8626      9570.0312      0             -8155.6176      0              0             -268.41632      216546.8       60.050587      60.050587      60.050587      0.83418634    -40.243346      105.08514      67.115859    
     95000   190000         405.00642      505.6494       18967.341      17388.853      9705.0604      7683.7922      3259.36        3170.9306      9468.7741      0             -8215.2726      0              0             -271.54685      214050.34      59.81893       59.81893       59.81893       0.8439154      885.99427     -284.21159      915.16551    
     96000   192000         398.92811     -251.2975       16554.75       17342.643      9559.4075      7783.2355      3273.0149      3228.583       9505.3312      0             -8223.6936      0              0             -270.36924      214982.64      59.905652      59.905652      59.905652      0.84025564     42.064248     -315.39563     -480.56112    
     97000   194000         401.09678     -357.64947      16361.562      17483.828      9611.3745      7872.4539      3280.7178      3241.2405      9608.7306      0             -8258.235       0              0             -270.14589      215160.39      59.922158      59.922158      59.922158      0.83956148    -942.97733     -358.80303      228.83195    
     98000   196000         398.69298     -146.46361      16883.899      17342.37       9553.7731      7788.5974      3304.175       3117.2393      9554.405       0             -8187.222       0              0             -270.80359      214637.83      59.873607      59.873607      59.873607      0.84160551    -452.33551      109.32545     -96.380761    
     99000   198000         403.39518     -198.79643      16926.94       17549.032      9666.4505      7882.582       3297.4986      3248.5696      9547.7861      0             -8211.2723      0              0             -270.88841      214570.62      59.867357      59.867357      59.867357      0.84186911    -82.642577     -433.81027     -79.93644     
    100000   200000         399.19538     -86.072737      17241.714      17512.746      9565.8118      7946.9343      3328.2069      3199.2468      9544.6429      0             -8125.1623      0              0             -269.2042       215913.03      59.991946      59.991946      59.991946      0.83663492    -116.53623      242.98928     -384.67126    
    101000   202000         401.76699     -466.96133      16189.219      17665.472      9627.4346      8038.0376      3343.0466      3241.8412      9550.3783      0             -8097.2285      0              0             -268.13692      216772.44      60.071437      60.071437      60.071437      0.833318      -493.51659     -730.08131     -177.28609    
    102000   204000         399.22847      357.89894      18524.457      17393.392      9566.6049      7826.7868      3300.0098      3143.96        9467.9799      0             -8085.1628      0              0             -268.23115      216696.29      60.064402      60.064402      60.064402      0.83361085     790.58035     -210.26051      493.37699    
    103000   206000         402.0178       207.12613      18082.77       17432.033      9633.4449      7798.5879      3224.7032      3217.7832      9484.0408      0             -8127.9393      0              0             -269.81489      215424.34      59.946651      59.946651      59.946651      0.83853282     266.34857     -583.63459      938.66442    
    104000   208000         398.0542       136.30207      17809.596      17378.264      9538.4662      7839.7978      3318.4183      3142.4143      9471.5706      0             -8092.6054      0              0             -267.87175      216987.03      60.091253      60.091253      60.091253      0.8324939      827.32553     -160.59069     -257.82861    
    105000   210000         403.46247     -502.96102      15920.351      17493.984      9668.0631      7825.9211      3276.2255      3188.6817      9559.1555      0             -8198.1415      0              0             -270.93649      214532.54      59.863816      59.863816      59.863816      0.84201853    -759.43104     -540.94181     -208.51022    
    106000   212000         398.85896      130.56912      17856.739      17448.151      9557.7504      7890.4004      3351.606       3166.1196      9569.0365      0             -8196.3617      0              0             -270.88893      214570.21      59.867319      59.867319      59.867319      0.84187072    -0.41471609     471.34738     -79.225318    
    107000   214000         400.89682     -93.953158      17235.006      17527.953      9606.583       7921.3699      3349.9303      3218.9812      9572.479       0             -8220.0205      0              0             -271.86826      213797.28      59.795347      59.795347      59.795347      0.8449143      180.4833      -349.62804     -112.71474    
    108000   216000         402.24228      23.551277      17747.751      17673.322      9638.824       8034.498       3338.8336      3232.5604      9553.103       0             -8089.9991      0              0             -268.23051      216696.8       60.064449      60.064449      60.064449      0.83360888    -163.05642      202.96691      30.743343    
    109000   218000         408.2904       379.93345      18721.99       17530.96       9783.7534      7747.2067      3237.0554      3169.4418      9555.1872      0             -8214.4777      0              0             -270.40926      214950.83      59.902697      59.902697      59.902697      0.84038        322.40441      492.3408       325.05516    
    110000   220000         403.88477     -115.93061      17144.869      17512.431      9678.1825      7834.2489      3213.311       3113.2866      9565.1316      0             -8057.4803      0              0             -267.36446      217398.73      60.129233      60.129233      60.129233      0.83091736     120.20921     -680.29244      212.29139    
    111000   222000         398.08234     -670.51629      15213.185      17326.19       9539.1403      7787.0494      3268.8174      3125.7536      9556.1947      0             -8163.7162      0              0             -268.99579      216080.31      60.007435      60.007435      60.007435      0.83598721    -5.0667886     -854.44252     -1152.0396    
    112000   224000         401.31179     -152.17762      17003.923      17483.302      9616.5269      7866.775       3257.9953      3164.4213      9611.1279      0             -8166.7695      0              0             -269.09679      215999.22      59.999927      59.999927      59.999927      0.83630108    -625.50761     -273.1353       442.11003    
    113000   226000         397.9063      -695.31433      15150.816      17331.257      9534.9221      7796.3349      3288.1559      3142.6025      9528.1287      0             -8162.5522      0              0             -270.317        215024.19      59.909511      59.909511      59.909511      0.84009327    -1003.1747     -637.82671     -444.94159    
    114000   228000         401.57251     -18.212767      17252.297      17309.724      9622.7745      7686.9497      3214.1854      3084.574       9512.7883      0             -8124.598       0              0             -268.83937      216206.04      60.019072      60.019072      60.019072      0.83550108     614.48327     -442.61992     -226.50165    
    115000   230000         398.50929     -668.77084      15104.289      17201.714      9549.3714      7652.3423      3164.0394      3204.1719      9473.2305      0             -8189.0995      0              0             -270.28842      215046.93      59.911623      59.911623      59.911623      0.84000444    -160.44943     -1122.6919     -723.1712     
    116000   232000         398.2288       461.49817      18645.525      17207.403      9542.65        7664.7528      3250.6219      3138.8493      9484.474       0             -8209.1924      0              0             -272.0263       213673.07      59.783765      59.783765      59.783765      0.84540546     599.21772      612.36598      172.91081    
    117000   234000         402.99274      458.64066      18964.346      17523.649      9656.8071      7866.8416      3229.2535      3165.9219      9623.7248      0             -8152.0585      0              0             -269.85859      215389.46      59.943415      59.943415      59.943415      0.83866861     849.92409      82.181865      443.81602    
    118000   236000         396.04981      487.68778      18812.133      17281.314      9490.4354      7790.8789      3127.5911      3171.9907      9638.0659      0             -8146.7687      0              0             -270.05654      215231.58      59.928765      59.928765      59.928765      0.83928382     134.20213      349.32868      979.53253    
    119000   238000         398.17253     -289.65246      16648.079      17566.034      9541.3015      8024.7329      3315.4403      3158.625       9657.5687      0             -8106.9011      0              0             -267.48062      217304.33      60.120529      60.120529      60.120529      0.83127834     44.447398     -383.37458     -530.0302     
    120000   240000         395.54956      481.28941      18958.637      17450.714      9478.448       7972.2656      3320.5971      3203.4882      9549.1611      0             -8100.9807      0              0             -270.56004      214831.04      59.891567      59.891567      59.891567      0.84084861     683.29032      444.31368      316.26424    
    121000   242000         396.50476     -84.627529      16935.469      17200.85       9501.3372      7699.5128      3189.5958      3124.577       9598.858       0             -8213.518       0              0             -270.32019      215021.66      59.909276      59.909276      59.909276      0.84010318    -22.84475      -522.25678      291.21894    
    122000   244000         401.89111      21.532671      17434.006      17367.437      9630.409       7737.0279      3239.7409      3206.7302      9556.5873      0             -8266.0305      0              0             -274.19757      211981.07      59.625545      59.625545      59.625545      0.85215334     171.40661      32.01893      -138.82752    
    123000   246000         400.71086      192.60368      17882.547      17282.792      9602.127       7680.6647      3158.2594      3170.5587      9597.7253      0             -8245.8787      0              0             -272.22455      213517.46      59.769249      59.769249      59.769249      0.84602158     36.390335      495.15343      46.267283    
    124000   248000         401.14534      280.97977      18431.721      17544.074      9612.5383      7931.5361      3295.9944      3156.929       9614.5929      0             -8135.9802      0              0             -268.33149      216615.26      60.056914      60.056914      60.056914      0.83392269    -127.28076      474.98839      495.23167    
    125000   250000         398.60989      57.771402      17583.889      17403.072      9551.7821      7851.2904      3277.3095      3183.5414      9605.4417      0             -8215.0022      0              0             -270.83843      214610.22      59.871039      59.871039      59.871039      0.84171379    -294.30114      40.296535      427.31881    
    126000   252000         402.19738     -6.9202249      17463.745      17485.312      9637.7481      7847.5639      3324.4724      3120.7014      9620.4633      0             -8218.0731      0              0             -271.99273      213699.45      59.786225      59.786225      59.786225      0.84530111    -61.717391     -352.14743      393.10415    
    127000   254000         398.44476      321.46616      18456.224      17438.988      9547.825       7891.1633      3270.5222      3197.8696      9561.6579      0             -8138.8864      0              0             -267.88616      216975.35      60.090175      60.090175      60.090175      0.8325387      638.28318     -361.93549      688.05078    
    128000   256000         401.1828       737.37825      19646.71       17349.979      9613.4359      7736.5429      3249.8767      3078.6856      9643.5445      0             -8235.5639      0              0             -272.15531      213571.78      59.774317      59.774317      59.774317      0.84580639     1187.713       289.93173      734.49004    
    129000   258000         404.29779     -120.90315      17152.104      17534.167      9688.0795      7846.0877      3302.7434      3128.4592      9531.1114      0             -8116.2263      0              0             -268.24954      216681.43      60.063029      60.063029      60.063029      0.833668      -829.10458     -61.346605      527.74172    
    130000   260000         398.33688     -632.4702       15484.757      17471.57       9545.24        7926.3295      3300.9887      3120.3475      9647.8139      0             -8142.8205      0              0             -269.84838      215397.6       59.944171      59.944171      59.944171      0.83863689    -1061.0577     -154.84347     -681.50947    
    131000   262000         392.48055     -112.59536      16803.656      17157.025      9404.9063      7752.1191      3321.1686      3039.4643      9554.7276      0             -8163.2415      0              0             -270.10248      215194.97      59.925367      59.925367      59.925367      0.83942658     229.06802      77.062259     -643.91636    
    132000   264000         396.80682     -142.90694      16927.748      17379.898      9508.5755      7871.323       3287.2352      3167.1071      9523.8414      0             -8106.8608      0              0             -267.92105      216947.1       60.087567      60.087567      60.087567      0.83264711     1.215957      -456.83853      26.90174     
    133000   266000         403.57849      292.79349      18445.28       17520.803      9670.8432      7849.9594      3305.8169      3082.1272      9589.9269      0             -8127.9115      0              0             -268.47363      216500.58      60.046314      60.046314      60.046314      0.83436442     508.55025      286.49003      83.340199    
    134000   268000         398.42849      578.54699      19260.841      17448.268      9547.4352      7900.833       3332.3213      3179.4737      9563.0673      0             -8174.0293      0              0             -270.57009      214823.06      59.890826      59.890826      59.890826      0.84087982     482.49147      757.06997      496.07951    
    135000   270000         404.39803     -485.11601      15941.755      17474.839      9690.4817      7784.3576      3275.2315      3157.3128      9529.1272      0             -8177.3139      0              0             -268.2355       216692.78      60.064078      60.064078      60.064078      0.83362436    -515.92994     -615.77374     -323.64434    
    136000   272000         399.95611     -201.42416      16899.542      17532.749      9584.041       7948.708       3295.498       3218.5169      9594.6393      0             -8159.9463      0              0             -269.65134      215555         59.958768      59.958768      59.958768      0.83802453     23.80109      -182.66103     -445.41253    
    137000   274000         402.21048     -198.73408      16741.042      17363.268      9638.0618      7725.2059      3282.5101      3150.5243      9515.8867      0             -8223.7151      0              0             -270.74542      214683.95      59.877895      59.877895      59.877895      0.84142471    -1.1381119     -81.430414     -513.63372    
    138000   276000         400.66909     -622.52707      15533.128      17494.995      9601.126       7893.8691      3236.7217      3238.3424      9601.7925      0             -8182.9875      0              0             -268.98319      216090.44      60.008373      60.008373      60.008373      0.83594805    -471.40249     -426.09049     -970.08821    
    139000   278000         397.63557     -105.79891      16888.262      17219.822      9528.4346      7691.3872      3175.9017      3164.4781      9531.487       0             -8180.4796      0              0             -270.49305      214884.25      59.896511      59.896511      59.896511      0.8406404     -775.44085      151.96895      306.07518    
    140000   280000         398.33119     -223.24028      16638.301      17337.311      9545.1036      7792.2076      3214.2573      3192.1643      9627.3521      0             -8241.5661      0              0             -270.72323      214701.54      59.87953       59.87953       59.87953       0.84135577    -456.81622     -373.41637      160.51175    
    141000   282000         396.31563      495.93051      18764.554      17223.355      9496.8052      7726.5496      3254.7433      3199.2447      9551.4664      0             -8278.9048      0              0             -272.77122      213089.55      59.729294      59.729294      59.729294      0.84772051     749.95932      399.60344      338.22876    
    142000   284000         404.06718     -217.96317      16834.288      17515.466      9682.5535      7832.9126      3284.7291      3234.268       9553.912       0             -8239.9966      0              0             -271.2433       214289.89      59.841236      59.841236      59.841236      0.84297202    -197.66624     -316.89479     -139.32847    
    143000   286000         402.11516     -208.8935       16741.87       17398.788      9635.7777      7763.0102      3314.6279      3152.5922      9490.9079      0             -8195.1178      0              0             -269.55697      215630.47      59.965765      59.965765      59.965765      0.83773124     91.656681     -456.35064     -261.98655    
    144000   288000         411.58057      219.29792      18437.921      17746.336      9862.595       7883.7414      3262.7737      3205.3353      9564.7196      0             -8149.0872      0              0             -268.79789      216239.4       60.022158      60.022158      60.022158      0.83537218     489.47592     -48.40558       216.82343    
    145000   290000         402.7527      -119.90818      17055.588      17430.144      9651.055       7779.0887      3315.3087      3208.1371      9495.0328      0             -8239.3898      0              0             -271.37456      214186.23      59.831586      59.831586      59.831586      0.84337997    -318.40832      344.89465     -386.21088    
    146000   292000         400.94216      530.84213      19120.309      17465.664      9607.6696      7857.9948      3301.7837      3215.0985      9588.3325      0             -8247.2198      0              0             -271.95518      213728.95      59.788976      59.788976      59.788976      0.84518441     438.49946      444.09639      709.93054    
    147000   294000         399.15266      193.47592      17980.318      17377.209      9564.7882      7812.4207      3271.2308      3208.5647      9563.0772      0             -8230.4519      0              0             -271.9368       213743.39      59.790323      59.790323      59.790323      0.84512731     594.63239     -552.34361      538.13897    
    148000   296000         404.47986      310.68927      18523.013      17544.356      9692.4426      7851.9132      3255.8139      3164.1469      9536.892       0             -8104.9396      0              0             -269.11141      215987.48      59.99884       59.99884       59.99884       0.83634654     368.39616      144.95997      418.71169    
    149000   298000         398.86975      34.104258      17601.396      17493.711      9558.009       7935.7021      3327.8313      3181.5029      9570.7282      0             -8144.3603      0              0             -268.46717      216505.78      60.046795      60.046795      60.046795      0.83434437    -30.19262      -207.17797      339.68336    
    150000   300000         402.55393     -300.57483      16634.288      17587.065      9646.2919      7940.7728      3293.7514      3122.8859      9612.5931      0             -8088.4576      0              0             -267.42248      217351.56      60.124885      60.124885      60.124885      0.83109767    -232.38497      3.927989      -673.26752    
    151000   302000         398.10726     -191.53592      16951.113      17552.361      9539.7375      8012.6238      3333.5679      3128.3696      9701.7396      0             -8151.0534      0              0             -270.04284      215242.5       59.929779      59.929779      59.929779      0.83924123    -660.545        37.349348      48.587892    
    152000   304000         395.29965      308.26679      18341.184      17368.742      9472.4597      7896.2825      3231.4859      3144.4522      9621.8859      0             -8101.5416      0              0             -268.71973      216302.3       60.027978      60.027978      60.027978      0.83512925    -187.56635      1038.0866      74.280132    
    153000   306000         402.93186      29.927902      17602.319      17508.551      9655.3482      7853.2024      3249.6429      3201.0444      9615.997       0             -8213.4819      0              0             -270.5546       214835.36      59.891969      59.891969      59.891969      0.84083168    -157.27185      137.58632      109.46923    
    154000   308000         395.7961       359.96047      18518.423      17394.283      9484.3558      7909.9272      3241.9421      3167.2047      9647.6477      0             -8146.8673      0              0             -271.43831      214135.93      59.826902      59.826902      59.826902      0.84357808     698.24936     -29.950993      411.58303    
    155000   310000         397.38191     -2.2050411      17316.525      17323.476      9522.3563      7801.1199      3182.2265      3258.827       9508.7775      0             -8148.7112      0              0             -268.89268      216163.17      60.015104      60.015104      60.015104      0.83566677    -41.321446      55.657395     -20.951073    
    156000   312000         406.39132      280.21261      18455.603      17573.527      9738.2464      7835.2803      3268.2198      3206.7762      9508.1054      0             -8147.8212      0              0             -269.2887       215845.28      59.985671      59.985671      59.985671      0.83689751     476.25913      40.260925      324.11778    
    157000   314000         395.28639     -147.31898      16758.258      17215.587      9472.1418      7743.445       3290.9633      3161.5318      9585.2422      0             -8294.2924      0              0             -273.06534      212860.02      59.707841      59.707841      59.707841      0.8486346     -209.49011     -242.2264       9.7595496    
    158000   316000         396.69794      520.14183      18913.787      17290.606      9505.9663      7784.64        3276.5767      3108.6709      9579.4225      0             -8180.0302      0              0             -271.63866      213977.99      59.81219       59.81219       59.81219       0.84420073     404.47506      415.13229      740.81814    
    159000   318000         393.90783     -521.48806      15654.156      17277.302      9439.1077      7838.1942      3294.3559      3211.124       9586.123       0             -8253.4087      0              0             -272.34751      213421.06      59.760253      59.760253      59.760253      0.8464037     -1115.1959     -275.37775     -173.89056    
    160000   320000         394.11988      406.62666      18491.321      17227.378      9444.1891      7783.1888      3251.5485      3200.3617      9592.2589      0             -8260.9803      0              0             -272.71232      213135.57      59.733594      59.733594      59.733594      0.84753746     285.9328       298.70663      635.24055    
    161000   322000         397.40214     -210.57221      16535.07       17193.856      9522.841       7671.0153      3181.0991      3199.619       9484.563       0             -8194.2658      0              0             -270.95235      214519.99      59.862648      59.862648      59.862648      0.84206781    -282.99289      259.96787     -608.69162    
    162000   324000         402.41347      502.26267      18992.653      17419.523      9642.9262      7776.5969      3260.6952      3220.3016      9520.2708      0             -8224.6707      0              0             -270.64685      214762.13      59.885163      59.885163      59.885163      0.8411184      349.44196      687.45843      469.88764    
    163000   326000         397.29698      100.7606       17567.731      17252.907      9520.3209      7732.5856      3236.9737      3191.3642      9518.4227      0             -8214.175       0              0             -271.30583      214240.49      59.836638      59.836638      59.836638      0.84316637     69.337684     -249.70469      482.6488     
    164000   328000         405.88985     -54.342272      17416.799      17586.596      9726.2296      7860.3664      3313.1287      3253.3697      9549.5813      0             -8255.7133      0              0             -271.29615      214248.14      59.83735       59.83735       59.83735       0.84313629    -78.554113     -93.875498      9.4027957    
    165000   330000         399.00369     -383.89755      16197.967      17390.266      9561.2185      7829.047       3294.0534      3272.7399      9586.2205      0             -8323.9668      0              0             -272.93979      212957.94      59.716995      59.716995      59.716995      0.8482444     -436.85154     -468.91287     -245.92824    
    166000   332000         402.18322      42.598659      17629.515      17495.859      9637.4087      7858.4502      3265.1496      3189.9599      9645.0597      0             -8241.7189      0              0             -270.1748       215137.37      59.92002       59.92002       59.92002       0.83965134    -366.85337      662.11578     -167.46644    
    167000   334000         398.50502     -30.669252      17254.505      17350.207      9549.269       7800.9382      3340.1424      3129.3631      9542.2932      0             -8210.8605      0              0             -271.65534      213964.85      59.810965      59.810965      59.810965      0.84425259    -19.365913     -269.21307      196.57123    
    168000   336000         392.65305      331.71414      18150.272      17114.417      9409.0398      7705.377       3232.1669      3179.1091      9539.3719      0             -8245.271       0              0             -271.45738      214120.88      59.825501      59.825501      59.825501      0.84363736    -133.19117      662.16953      466.16405    
    169000   338000         407.47013     -179.41181      16926.433      17493.407      9764.0976      7729.3099      3208.8545      3122.2009      9500.2573      0             -8102.0028      0              0             -268.24038      216688.83      60.063713      60.063713      60.063713      0.83363953     448.11101     -604.73416     -381.61228    
    170000   340000         398.53087     -0.51233973     17504.384      17506.002      9549.8884      7956.1132      3306.0027      3178.0222      9588.2697      0             -8116.1814      0              0             -268.47056      216503.05      60.046542      60.046542      60.046542      0.83435489     56.279192     -397.39748      339.58127    
    171000   342000         403.76729     -293.44699      16650.513      17571.707      9675.3674      7896.3395      3311.1576      3211.1132      9539.2288      0             -8165.16        0              0             -270.03188      215251.23      59.930589      59.930589      59.930589      0.83920719    -472.74738     -652.26966      244.67608    
    172000   344000         394.30134     -346.89529      16224.602      17316.651      9448.5374      7868.1131      3313.5545      3255.0203      9463.9984      0             -8164.4601      0              0             -269.27321      215857.69      59.986821      59.986821      59.986821      0.83684939    -330.36039      139.95067     -850.27615    
    173000   346000         399.47479     -714.65687      15093.706      17344.014      9572.5074      7771.5069      3333.8242      3129.2003      9493.2061      0             -8184.7237      0              0             -269.21061      215907.89      59.99147       59.99147       59.99147       0.83665483    -895.8798      -554.56438     -693.52643    
    174000   348000         396.27985     -332.12293      16373.939      17426.866      9495.9479      7930.9181      3282.6079      3191.346       9547.2882      0             -8090.3241      0              0             -267.3852       217381.87      60.127679      60.127679      60.127679      0.83098181    -544.04301     -358.88883     -93.436962    
    175000   350000         402.39491      99.651795      17973.838      17660.051      9642.4814      8017.5701      3323.4465      3250.9889      9583.4195      0             -8140.2848      0              0             -269.20752      215910.37      59.9917        59.9917        59.9917        0.83664522     498.89744     -557.35893      357.41687    
    176000   352000         399.24209     -178.63427      16928.543      17493.279      9566.9312      7926.3475      3243.117       3233.6149      9556.7343      0             -8107.1188      0              0             -268.1367       216772.62      60.071454      60.071454      60.071454      0.83331731    -162.74347     -810.04463      436.88531    
    177000   354000         400.03411     -197.87633      16874.596      17497.634      9585.9102      7911.7243      3252.197       3229.8644      9588.4046      0             -8158.7417      0              0             -269.22494      215896.4       59.990405      59.990405      59.990405      0.83669937    -316.68743     -223.12318     -53.818383    
    178000   356000         392.98931      66.402678      17691.04       17480.507      9417.0975      8063.4092      3386.3561      3177.509       9578.0316      0             -8078.4875      0              0             -267.36365      217399.39      60.129294      60.129294      60.129294      0.83091483     595.28406     -230.04743     -166.0286     
    179000   358000         396.79209      137.40639      17790.35       17359.764      9508.2226      7851.5417      3266.8325      3121.3994      9613.5878      0             -8150.2779      0              0             -270.51023      214870.6       59.895243      59.895243      59.895243      0.8406938      52.970241      194.79498      164.45396    
    180000   360000         399.93298     -336.43333      16507.723      17566.153      9583.4869      7982.6664      3293.3965      3212.3872      9619.7306      0             -8142.848       0              0             -269.44705      215718.43      59.973917      59.973917      59.973917      0.83738965    -517.507       -356.31605     -135.47692    
    181000   362000         396.06193     -333.52166      16446.108      17498.86       9490.7259      8008.1343      3334.1797      3180.6096      9578.2341      0             -8084.8891      0              0             -268.5557       216434.41      60.040197      60.040197      60.040197      0.83461948    -705.11211     -179.15718     -116.2957     
    182000   364000         399.53909      66.822526      17611.747      17401.26       9574.0482      7827.2117      3259.6615      3141.8379      9564.0527      0             -8138.3405      0              0             -269.11285      215986.32      59.998734      59.998734      59.998734      0.83635101    -121.6827       317.37488      4.7753973    
    183000   366000         398.03585      16.671063      17552.716      17499.936      9538.0263      7961.9101      3346.3723      3208.7502      9492.2651      0             -8085.4776      0              0             -267.75208      217084.01      60.100204      60.100204      60.100204      0.83212198    -399.75344      275.13465      174.63198    
    184000   368000         397.85258     -94.28109       17123.273      17422.29       9533.6347      7888.6549      3286.4965      3146.6123      9556.6352      0             -8101.0891      0              0             -267.27938      217467.94      60.135613      60.135613      60.135613      0.83065293     70.781132     -149.92285     -203.70155    
    185000   370000         397.88322      674.16321      19393.832      17292.805      9534.3689      7758.4357      3202.0994      3171.5186      9573.3075      0             -8188.4898      0              0             -272.00066      213693.21      59.785643      59.785643      59.785643      0.84532578     725.95274      863.40801      433.12887    
    186000   372000         405.72233     -551.39925      15702.289      17432.102      9722.2154      7709.8866      3203.7178      3143.3523      9555.7134      0             -8192.8969      0              0             -270.21138      215108.24      59.917316      59.917316      59.917316      0.83976501    -908.95161     -369.47791     -375.76822    
    187000   374000         401.98614      78.620599      17660.051      17413.383      9632.6862      7780.697       3342.868       3167.676       9481.1309      0             -8210.9779      0              0             -270.18442      215129.71      59.919309      59.919309      59.919309      0.83968123    -462.99281     -13.381014      712.23563    
    188000   376000         402.26301     -85.620672      17110.352      17379.038      9639.3208      7739.7171      3260.7067      3211.0358      9451.0176      0             -8183.0429      0              0             -270.12869      215174.09      59.923429      59.923429      59.923429      0.83950803     246.41079     -469.31517     -33.957634    
    189000   378000         400.77086     -32.914693      17192.698      17294.463      9603.5647      7690.8987      3325.9072      3131.1793      9553.267       0             -8319.4549      0              0             -274.17385      211999.41      59.627264      59.627264      59.627264      0.85207963    -128.07667      37.87729      -8.5446985    
    190000   380000         397.10659     -293.12579      16393.594      17308.989      9515.7588      7793.2305      3252.6715      3225.9766      9568.4188      0             -8253.8364      0              0             -271.44501      214130.64      59.82641       59.82641       59.82641       0.84359891    -639.61082     -115.54387     -124.22268    
    191000   382000         397.46149     -368.68883      15945.907      17098.059      9524.2632      7573.7955      3209.4091      3104.233       9521.1155      0             -8260.9622      0              0             -271.26071      214276.13      59.839956      59.839956      59.839956      0.84302614    -32.503299     -338.59051     -734.97269    
    192000   384000         397.58787     -302.8785       16488.99       17440.651      9527.2916      7913.3593      3287.904       3250.7207      9604.5424      0             -8229.8078      0              0             -269.7881       215445.73      59.948635      59.948635      59.948635      0.83844957    -313.41993      520.02228     -1115.2378    
    193000   386000         398.7556      -343.39613      16243.475      17314.511      9555.2737      7759.2376      3188.8339      3258.4347      9580.6675      0             -8268.6985      0              0             -271.78649      213861.61      59.801343      59.801343      59.801343      0.84466016    -343.47976     -728.53773      41.829102    
    194000   388000         395.34809     -129.16094      16955.687      17361.996      9473.6203      7888.3761      3202.3879      3235.9361      9608.7321      0             -8158.6801      0              0             -269.47013      215699.96      59.972205      59.972205      59.972205      0.83746136     282.38514     -372.25456     -297.61341    
    195000   390000         400.23063     -178.92323      16916.153      17480.552      9590.6194      7889.933       3245.0743      3188.4322      9570.5546      0             -8114.1282      0              0             -268.73039      216293.71      60.027183      60.027183      60.027183      0.83516241    -178.54766     -38.228927     -319.99311    
    196000   392000         399.24592     -404.76362      16233.121      17510.085      9567.023       7943.0616      3244.2394      3217.6981      9558.6042      0             -8077.48        0              0             -268.695        216322.21      60.029819      60.029819      60.029819      0.8350524     -231.30686     -842.91549     -140.0685     
    197000   394000         407.53085     -185.38388      16907.012      17493.004      9765.5525      7727.4511      3166.0925      3207.2322      9500.6125      0             -8146.4861      0              0             -268.1745       216742.06      60.068631      60.068631      60.068631      0.8334348     -709.75002      420.82699     -267.2286     
    198000   396000         397.09658      414.29715      18728.564      17420.286      9515.5188      7904.7675      3227.076       3185.3013      9602.5427      0             -8110.1525      0              0             -268.44078      216527.07      60.048763      60.048763      60.048763      0.83426234     423.00403      452.91281      366.97462    
    199000   398000         393.74687      94.979704      17595.367      17298.473      9435.2508      7863.2217      3279.0126      3241.0955      9536.4264      0             -8193.3127      0              0             -271.18493      214336         59.845529      59.845529      59.845529      0.84279065     377.04118     -257.36407      165.262      
    200000   400000         402.68616      222.73476      18233.535      17533.092      9649.4604      7883.6318      3255.4132      3269.3187      9559.8525      0             -8200.9526      0              0             -269.55792      215629.71      59.965694      59.965694      59.965694      0.83773419    -51.120657      244.06368      475.26126    
    201000   402000         403.7251      -235.58126      16562.581      17302.777      9674.3564      7628.4203      3228.476       3084.4983      9530.2584      0             -8214.8124      0              0             -269.79302      215441.8       59.94827       59.94827       59.94827       0.83846486    -342.98449     -713.65649      349.8972     
    202000   404000         401.86333     -9.8133069      17398.169      17428.911      9629.7432      7799.1675      3290.7855      3189.5957      9517.4471      0             -8198.6609      0              0             -270.59556      214802.84      59.888946      59.888946      59.888946      0.840959       187.37431     -66.890509     -149.92372    
    203000   406000         400.00071     -479.91804      15929.818      17449.262      9585.1097      7864.1522      3278.9784      3184.7726      9536.6302      0             -8136.2289      0              0             -267.74359      217090.89      60.100839      60.100839      60.100839      0.8320956     -947.78981     -232.5933      -259.37101    
    204000   408000         403.00757     -206.32475      16905.821      17555.053      9657.1623      7897.8902      3228.6129      3241.1226      9579.0696      0             -8150.9149      0              0             -269.39403      215760.89      59.977852      59.977852      59.977852      0.83722486    -77.826959      93.167106     -634.3144     
[...]
    450000   900000         401.23769     -160.36955      17048.247      17554.516      9614.7511      7939.7652      3344.9518      3218.3497      9462.3182      0             -8085.8544      0              0             -268.52033      216462.92      60.042833      60.042833      60.042833      0.83450955    -156.97315     -675.54159      351.40607    
    451000   902000         399.13498     -255.78782      16750.991      17565.54       9564.3644      8001.1755      3292.2975      3247.5976      9498.5159      0             -8037.2355      0              0             -266.19445      218354.27      60.217201      60.217201      60.217201      0.82728118     129.95238     -554.6532      -342.66263    
    452000   904000         403.76955     -49.589866      17429.809      17587.016      9675.4215      7911.5946      3180.8143      3261.1709      9596.1881      0             -8126.5787      0              0             -267.39778      217371.64      60.126736      60.126736      60.126736      0.8310209     -120.39625     -103.84195      75.468608    
    453000   906000         399.7612      -113.92739      16947.147      17305.317      9579.3705      7725.9461      3216.8015      3114.374       9548.4622      0             -8153.6916      0              0             -269.63515      215567.94      59.959968      59.959968      59.959968      0.83797422    -431.82197     -131.86591      221.9057     
    454000   908000         400.08077      141.31455      17933.473      17487.943      9587.0283      7900.9151      3184.3147      3234.3343      9565.1823      0             -8082.9161      0              0             -268.87253      216179.37      60.016604      60.016604      60.016604      0.83560415     202.7815      -56.351592      277.51375    
    455000   910000         403.36033      356.56304      18525.755      17403.877      9665.6155      7738.2617      3299.755       3071.3867      9519.0508      0             -8151.9309      0              0             -269.41843      215741.35      59.976041      59.976041      59.976041      0.83730069     58.177963      965.94188      45.569269    
    456000   912000         400.76503      730.67351      19765.117      17485.926      9603.425       7882.5007      3216.5861      3292.1106      9549.5633      0             -8175.7593      0              0             -271.75596      213885.63      59.803583      59.803583      59.803583      0.84456528     695.37858      166.7684       1329.8736    
    457000   914000         399.8414      -524.29148      15880.904      17532.831      9581.2922      7951.5393      3327.0304      3205.4374      9584.7796      0             -8165.708       0              0             -269.04094      216044.05      60.004078      60.004078      60.004078      0.83612753    -378.78941     -603.62021     -590.46482    
    458000   916000         392.80746     -84.357736      17055.577      17322.793      9412.7399      7910.0534      3227.8305      3191.3576      9576.2432      0             -8085.3778      0              0             -267.60791      217200.96      60.110994      60.110994      60.110994      0.83167395     169.19753      23.830616     -446.10136    
    459000   918000         396.12769      307.4272       18048.724      17083.39       9492.3017      7591.0884      3168.3271      3127.2778      9478.43        0             -8182.9465      0              0             -269.96106      215307.7       59.93583       59.93583       59.93583       0.83898708     565.54703      48.224131      308.51044    
    460000   920000         397.87385      385.30326      18518.83       17318.836      9534.1445      7784.6914      3275.6385      3102.186       9590.9309      0             -8184.064       0              0             -272.18242      213550.51      59.772333      59.772333      59.772333      0.84589064     1117.1384      63.600099     -24.828663    
    461000   922000         398.14671     -304.2688       16413.506      17363.153      9540.6828      7822.47        3239.2198      3219.6741      9558.9741      0             -8195.398       0              0             -271.60138      214007.37      59.814926      59.814926      59.814926      0.84408487    -439.65202     -429.79043     -43.363935    
    462000   924000         398.03803      65.84528       17472.461      17267.512      9538.0787      7729.433       3207.6184      3225.0218      9534.2714      0             -8237.4786      0              0             -272.34166      213425.65      59.760681      59.760681      59.760681      0.84638551     90.113774      324.45414     -217.03207    
    463000   926000         398.64204      18.117805      17322.806      17265.903      9552.5524      7713.3503      3287.865       3121.2643      9455.8411      0             -8151.6201      0              0             -269.90287      215354.12      59.940136      59.940136      59.940136      0.83880624     139.92916     -84.031996     -1.5437459    
    464000   928000         404.31113     -308.75965      16606.629      17585.026      9688.3992      7896.6266      3273.6151      3183.4358      9572.6378      0             -8133.0621      0              0             -267.51118      217279.5       60.118239      60.118239      60.118239      0.83137332    -165.24378     -925.98617      164.95101    
    465000   930000         397.94919      113.28275      17855.393      17500.775      9535.9499      7964.8249      3295.4238      3284.5445      9604.0035      0             -8219.1469      0              0             -270.79433      214645.17      59.874289      59.874289      59.874289      0.84157672     390.99576     -33.752803     -17.394696    
    466000   932000         391.51326      277.14208      17993.368      17119.049      9381.7274      7737.3217      3276.8704      3162.1493      9448.7279      0             -8150.4258      0              0             -268.70103      216317.35      60.02937       60.02937       60.02937       0.83507114     301.19196      23.583186      506.65109    
    467000   934000         396.30445     -116.89112      17039.309      17408.658      9496.5374      7912.1203      3259.1672      3261.2762      9563.7573      0             -8172.0804      0              0             -268.27608      216660         60.061049      60.061049      60.061049      0.83375047    -385.88629     -9.6263888      44.839321    
    468000   936000         395.49081     -197.62581      16735.18       17357.07       9477.0404      7880.0293      3339.9651      3148.5124      9598.9128      0             -8207.361       0              0             -269.38113      215771.22      59.978809      59.978809      59.978809      0.83718476    -398.32851      97.074477     -291.62341    
    469000   938000         395.63282      12.258339      17309.986      17271.683      9480.4433      7791.2398      3258.2714      3214.682       9562.2806      0             -8243.9942      0              0             -271.29087      214252.31      59.837738      59.837738      59.837738      0.84311988     46.407063     -232.19683      222.56479    
    470000   940000         402.03417      310.22396      18557.528      17582.862      9633.837       7949.0247      3281.0695      3241.2193      9601.037       0             -8174.3011      0              0             -269.80877      215429.23      59.947104      59.947104      59.947104      0.83851379    -491.06792      674.69179      747.04802    
    471000   942000         402.81287      0.97945901     17554.97       17551.904      9652.4969      7899.4071      3310.5512      3208.9093      9572.1896      0             -8192.2431      0              0             -270.77318      214661.94      59.875848      59.875848      59.875848      0.84151099    -138.48369      293.79184     -152.36978    
    472000   944000         402.71032      331.9685       18552.577      17517.143      9650.0395      7867.103       3266.1036      3245.8145      9545.337       0             -8190.1521      0              0             -271.77581      213870.01      59.802127      59.802127      59.802127      0.84462697     974.16817      159.1724      -137.43506    
    473000   946000         393.89224     -125.73719      17039.295      17437.867      9438.7341      7999.1329      3306.8614      3163.2816      9622.4393      0             -8093.4494      0              0             -267.41957      217353.93      60.125103      60.125103      60.125103      0.83108861    -193.53345     -232.84946      49.171357    
    474000   948000         403.87968     -81.383754      17316.121      17574.935      9678.0605      7896.8744      3229.2584      3152.7386      9617.558       0             -8102.6806      0              0             -266.5547       218059.16      60.19006       60.19006       60.19006       0.82840078     0.41307355    -413.44414      168.8798     
    475000   950000         398.12719      139.09028      17768.941      17327.489      9540.2151      7787.2738      3171.808       3200.1495      9468.7943      0             -8053.4781      0              0             -267.08527      217625.99      60.150178      60.150178      60.150178      0.83004967     40.079404      47.873247      329.3182     
    476000   952000         394.53878     -356.00653      16281.678      17405.459      9454.2271      7951.2318      3262.9924      3162.7291      9619.9887      0             -8094.4784      0              0             -268.54239      216445.14      60.041188      60.041188      60.041188      0.83457813     28.766968     -320.86996     -775.91661    
    477000   954000         403.64234     -62.629862      17280.922      17477.948      9672.3733      7805.5746      3185.7509      3220.2154      9556.2054      0             -8156.5971      0              0             -269.45979      215708.23      59.972972      59.972972      59.972972      0.83742923    -130.75105     -196.65548      139.51694    
    478000   956000         404.44173     -43.692788      17473.31       17611.473      9691.5287      7919.9447      3258.681       3194.3729      9585.7092      0             -8118.8184      0              0             -268.07299      216824.14      60.076212      60.076212      60.076212      0.83311931    -307.60775      428.18973     -251.66035    
    479000   958000         394.37332     -2.0732362      17386.121      17392.627      9450.2622      7942.3652      3294.9926      3197.3546      9577.242       0             -8127.224       0              0             -270.1171       215183.32      59.924286      59.924286      59.924286      0.83947203     368.96842     -226.41298     -148.77515    
    480000   960000         401.34724     -264.71689      16482.335      17321.996      9617.3764      7704.6201      3250.7603      3123.6044      9481.8472      0             -8151.5918      0              0             -267.24775      217493.67      60.137985      60.137985      60.137985      0.83055464    -610.59006     -193.9089       10.348298    
    481000   962000         398.97804      71.184076      17649.812      17424.603      9560.6039      7863.9995      3212.5842      3209.7746      9562.5111      0             -8120.8705      0              0             -267.93854      216932.94      60.086259      60.086259      60.086259      0.83270149    -7.5972305      648.70563     -427.55617    
    482000   964000         393.96691      80.071735      17639.343      17386.677      9440.5234      7946.1541      3277.661       3229.6976      9596.9222      0             -8158.1268      0              0             -268.63982      216366.64      60.033929      60.033929      60.033929      0.83488091     561.84049     -105.71329     -215.912      
    483000   966000         400.25657     -670.06637      15390.65       17523.564      9591.241       7932.3229      3289.0776      3178.9267      9524.794       0             -8060.4754      0              0             -266.30602      218262.79      60.20879       60.20879       60.20879       0.82762793    -566.37582     -314.80785     -1129.0155    
    484000   968000         400.90384     -472.20534      16020.03       17519.885      9606.7514      7913.1334      3262.8773      3218.5771      9505.016       0             -8073.3369      0              0             -266.88132      217792.3       60.165496      60.165496      60.165496      0.82941583    -236.06068     -555.67583     -624.87951    
    485000   970000         397.59774      86.222613      17683.373      17414.214      9527.5281      7886.6855      3262.7221      3181.0608      9591.8365      0             -8148.9338      0              0             -271.54941      214048.32      59.818742      59.818742      59.818742      0.84392336     316.50255      433.56604     -491.40076    
    486000   972000         398.18832      24.497842      17409.068      17332.308      9541.6799      7790.6277      3188.5176      3152.732       9643.3512      0             -8193.9731      0              0             -270.53804      214848.51      59.89319       59.89319       59.89319       0.84078024     211.22308      61.498596     -199.22815    
    487000   974000         398.31636      314.01035      18480.725      17495.677      9544.7483      7950.9287      3279.5005      3136.0206      9680.3075      0             -8144.8998      0              0             -270.22347      215098.61      59.916422      59.916422      59.916422      0.83980261     222.90021      256.29725      462.83358    
    488000   976000         404.92248      262.38602      18452.782      17625.397      9703.049       7922.3478      3274.5578      3139.3954      9624.9101      0             -8116.5154      0              0             -268.82492      216217.66      60.020147      60.020147      60.020147      0.83545616    -13.736068      125.49111      675.40302    
    489000   978000         400.49799     -344.41134      16175.061      17255.973      9597.0259      7658.9471      3196.59        3152.8833      9549.4354      0             -8239.9615      0              0             -270.09946      215197.37      59.925591      59.925591      59.925591      0.8394172     -294.99307     -594.27626     -143.9647     
    490000   980000         404.25808      276.35992      18392.531      17523.572      9687.128       7836.4444      3273.0613      3186.5531      9554.3279      0             -8177.4979      0              0             -269.5954       215599.73      59.962915      59.962915      59.962915      0.83785067     662.07422      281.92833     -114.92278    
    491000   982000         402.36207      118.66203      17833.651      17459.096      9641.6944      7817.4018      3240.4382      3183.2787      9538.187       0             -8144.502       0              0             -268.55506      216434.93      60.040244      60.040244      60.040244      0.8346175      414.98098     -199.90274      140.90786    
    492000   984000         398.00718      368.77794      18615.06       17460.279      9537.3395      7922.9396      3265.6219      3169.9539      9606.5067      0             -8119.143       0              0             -270.70848      214713.24      59.880618      59.880618      59.880618      0.84130991     377.02477      766.80768     -37.498623    
    493000   986000         399.75508     -152.27657      16836.355      17315.958      9579.2239      7736.7346      3226.9307      3175.9356      9476.2126      0             -8142.3443      0              0             -269.14545      215960.16      59.996311      59.996311      59.996311      0.83645231    -386.88493     -150.83418      80.889401    
    494000   988000         405.15608     -165.75466      16957.354      17481.415      9708.6466      7772.7688      3258.3924      3118.737       9498.0881      0             -8102.4487      0              0             -268.11422      216790.79      60.073132      60.073132      60.073132      0.83324747     26.653601      66.608843     -590.52643    
    495000   990000         401.94841      117.62901      17989.297      17618.339      9631.7821      7986.5574      3330.6625      3186.7606      9554.1524      0             -8085.0182      0              0             -268.79839      216239         60.022122      60.022122      60.022122      0.83537372    -151.44262      388.80753      115.52212    
    496000   992000         394.48293      352.66503      18337.491      17227.82       9452.8886      7774.9315      3275.4094      3119.0961      9553.1341      0             -8172.7081      0              0             -269.40455      215752.46      59.977071      59.977071      59.977071      0.83725755    -401.4982       862.25464      597.23864    
    497000   994000         397.43997      26.477096      17576.191      17492.219      9523.7475      7968.4715      3277.3212      3209.4878      9542.3251      0             -8060.6627      0              0             -267.28309      217464.92      60.135335      60.135335      60.135335      0.83066447     91.00512      -366.43828      354.86444    
    498000   996000         399.94864     -136.50083      17115.626      17546.35       9583.8621      7962.488       3341.6931      3145.192       9577.8382      0             -8102.2353      0              0             -268.64144      216365.33      60.033808      60.033808      60.033808      0.83488596    -437.64682      71.514587     -43.370245    
    499000   998000         397.79337      523.60094      19043.433      17391.887      9532.2158      7859.671       3156.2572      3238.0417      9569.3791      0             -8104.0071      0              0             -268.74855      216279.1       60.025831      60.025831      60.025831      0.83521884     336.05065      618.86639      615.88579    
    500000   1000000        399.31982      290.70242      18406.091      17490.982      9568.7938      7922.188       3252.2086      3177.7944      9583.2869      0             -8091.1019      0              0             -269.28516      215848.11      59.985933      59.985933      59.985933      0.83688652     595.24469     -226.9453       503.80786    
Loop time of 2297.47 on 8 procs for 500000 steps with 8040 atoms

Performance: 37.607 ns/day, 0.638 hours/ns, 217.630 timesteps/s, 1.750 Matom-step/s
98.4% CPU use with 8 MPI tasks x 1 OpenMP threads

MPI task timing breakdown:
Section |  min time  |  avg time  |  max time  |%varavg| %total
---------------------------------------------------------------
Pair    | 1582.2     | 1669.7     | 1754.3     | 137.4 | 72.68
Bond    | 76.878     | 77.53      | 78.085     |   4.2 |  3.37
Neigh   | 157.36     | 157.39     | 157.41     |   0.1 |  6.85
Comm    | 270.1      | 354.51     | 441.88     | 297.2 | 15.43
Output  | 1.5692     | 1.7225     | 1.8712     |   7.7 |  0.07
Modify  | 24.115     | 24.346     | 24.617     |   3.1 |  1.06
Other   |            | 12.26      |            |       |  0.53

Nlocal:           1005 ave        1030 max         961 min
Histogram: 1 0 0 0 1 0 1 3 1 1
Nghost:        7861.12 ave        7898 max        7834 min
Histogram: 3 0 0 1 1 1 0 0 0 2
Neighs:         319027 ave      334348 max      294364 min
Histogram: 1 0 0 1 0 2 0 1 2 1

Total # of neighbors = 2552216
Ave neighs/atom = 317.4398
Ave special neighs/atom = 5.9701493
Neighbor list builds = 16293
Dangerous builds = 0

# --- Cleanup ---
unfix npt_fix

undump dump_npt

# --- Write Output ---
write_dump all custom npt_melt_last.dump id type mol x y z xu yu zu vx vy vz modify sort id
write_data /home/arz2/PolyJarvis/data/cis-PBD4/lammps/equil/npt_melt/npt_melt_out.data
System init for write_data ...
Generated 3 of 3 mixed pair_coeff terms from arithmetic mixing rule

print "STAGE COMPLETE: NPT T=400.0->400.0K P=1.0->1.0atm steps=500000"
STAGE COMPLETE: NPT T=400.0->400.0K P=1.0->1.0atm steps=500000
quit
STAGE COMPLETE: NPT T=400.0->400.0K P=1.0->1.0atm steps=500000
