LAMMPS data file via write_data, version 22 Jul 2025, timestep = 500000, units = real

3620 atoms
4 atom types
3610 bonds
6 bond types
7200 angles
11 angle types
10710 dihedrals
13 dihedral types
4800 impropers
11 improper types

5.43117882265868 42.95431620734715 xlo xhi
5.43117882265868 42.95431620734715 ylo yhi
5.43117882265868 42.95431620734715 zlo zhi

Masses

1 12.01115
2 12.01115
3 35.453
4 1.00797

Pair Coeffs # lj/class2/coul/long/kk

1 0.054 4.01
2 0.054 4.01
3 0.2247 3.92
4 0.02 2.995

Bond Coeffs # class2/kk

1 1.53 299.67 -501.77 679.81
2 1.53 299.67 -501.77 679.81
3 1.79 194.319 0 0
4 1.101 345 -691.89 844.6
5 1.79 194.319 0 0
6 1.101 345 -691.89 844.6

Angle Coeffs # class2/kk

1 112.67 39.516 -7.443 -9.5583
2 107 61.1745 0 0
3 110.77 41.453 -10.604 5.129
4 112.67 39.516 -7.443 -9.5583
5 107 61.1745 0 0
6 110.77 41.453 -10.604 5.129
7 112.67 39.516 -7.443 -9.5583
8 110.77 41.453 -10.604 5.129
9 107.997 51.0987 0 0
10 107.997 51.0987 0 0
11 107.66 39.641 -12.921 -2.4318

BondBond Coeffs

1 0 1.53 1.53
2 0 1.53 1.79
3 3.3872 1.53 1.101
4 0 1.53 1.53
5 0 1.53 1.79
6 3.3872 1.53 1.101
7 0 1.53 1.53
8 3.3872 1.53 1.101
9 0 1.79 1.101
10 0 1.79 1.101
11 5.3316 1.101 1.101

BondAngle Coeffs

1 8.016 8.016 1.53 1.53
2 0 0 1.53 1.79
3 20.754 11.421 1.53 1.101
4 8.016 8.016 1.53 1.53
5 0 0 1.53 1.79
6 20.754 11.421 1.53 1.101
7 8.016 8.016 1.53 1.53
8 20.754 11.421 1.53 1.101
9 0 0 1.79 1.101
10 0 0 1.79 1.101
11 18.103 18.103 1.101 1.101

Dihedral Coeffs # class2/kk

1 0 0 0.0514 0 -0.143 0
2 0 0 0 0 0.15 0
3 0 0 0.0316 0 -0.1681 0
4 0 0 0.0514 0 -0.143 0
5 0 0 0.0316 0 -0.1681 0
6 0 0 0 0 0.15 0
7 0 0 0.0316 0 -0.1681 0
8 0 0 0 0 0.15 0
9 0 0 0.0316 0 -0.1681 0
10 0 0 0 0 -0.1 0
11 0 0 0 0 -0.1 0
12 -0.1432 0 0.0617 0 -0.1083 0
13 -0.1432 0 0.0617 0 -0.1083 0

AngleAngleTorsion Coeffs

1 -22.045 112.67 112.67
2 0 112.67 107
3 -16.164 112.67 110.77
4 -22.045 112.67 112.67
5 -16.164 112.67 110.77
6 0 112.67 107
7 -16.164 112.67 110.77
8 0 112.67 107
9 -16.164 112.67 110.77
10 0 107 110.77
11 0 107 110.77
12 -12.564 110.77 110.77
13 -12.564 110.77 110.77

EndBondTorsion Coeffs

1 -0.0732 0 0 -0.0732 0 0 1.53 1.53
2 0 0 0 0 0 0 1.53 1.79
3 0.2486 0.2422 -0.0925 0.0814 0.0591 0.2219 1.53 1.101
4 -0.0732 0 0 -0.0732 0 0 1.53 1.53
5 0.2486 0.2422 -0.0925 0.0814 0.0591 0.2219 1.53 1.101
6 0 0 0 0 0 0 1.53 1.79
7 0.2486 0.2422 -0.0925 0.0814 0.0591 0.2219 1.53 1.101
8 0 0 0 0 0 0 1.53 1.79
9 0.2486 0.2422 -0.0925 0.0814 0.0591 0.2219 1.53 1.101
10 0 0 0 0 0 0 1.79 1.101
11 0 0 0 0 0 0 1.79 1.101
12 0.213 0.312 0.0777 0.213 0.312 0.0777 1.101 1.101
13 0.213 0.312 0.0777 0.213 0.312 0.0777 1.101 1.101

MiddleBondTorsion Coeffs

1 -17.787 -7.1877 0 1.53
2 0 0 0 1.53
3 -14.879 -3.6581 -0.3138 1.53
4 -17.787 -7.1877 0 1.53
5 -14.879 -3.6581 -0.3138 1.53
6 0 0 0 1.53
7 -14.879 -3.6581 -0.3138 1.53
8 0 0 0 1.53
9 -14.879 -3.6581 -0.3138 1.53
10 0 0 0 1.53
11 0 0 0 1.53
12 -14.261 -0.5322 -0.4864 1.53
13 -14.261 -0.5322 -0.4864 1.53

BondBond13 Coeffs

1 0 1.53 1.53
2 0 1.53 1.79
3 0 1.53 1.101
4 0 1.53 1.53
5 0 1.53 1.101
6 0 1.53 1.79
7 0 1.53 1.101
8 0 1.53 1.79
9 0 1.53 1.101
10 0 1.79 1.101
11 0 1.79 1.101
12 0 1.101 1.101
13 0 1.101 1.101

AngleTorsion Coeffs

1 0.3886 -0.3139 0.1389 0.3886 -0.3139 0.1389 112.67 112.67
2 0 0 0 0 0 0 112.67 107
3 -0.2454 0 -0.1136 0.3113 0.4516 -0.1988 112.67 110.77
4 0.3886 -0.3139 0.1389 0.3886 -0.3139 0.1389 112.67 112.67
5 -0.2454 0 -0.1136 0.3113 0.4516 -0.1988 112.67 110.77
6 0 0 0 0 0 0 112.67 107
7 -0.2454 0 -0.1136 0.3113 0.4516 -0.1988 112.67 110.77
8 0 0 0 0 0 0 112.67 107
9 -0.2454 0 -0.1136 0.3113 0.4516 -0.1988 112.67 110.77
10 0 0 0 0 0 0 107 110.77
11 0 0 0 0 0 0 107 110.77
12 -0.8085 0.5569 -0.2466 -0.8085 0.5569 -0.2466 110.77 110.77
13 -0.8085 0.5569 -0.2466 -0.8085 0.5569 -0.2466 110.77 110.77

Improper Coeffs # class2/kk

1 0 0
2 0 0
3 0 0
4 0 0
5 0 0
6 0 0
7 0 0
8 0 0
9 0 0
10 0 0
11 0 0

AngleAngle Coeffs

1 0 0 0 107 110.77 107.997
2 0.1184 -1.3199 -1.3199 110.77 112.67 110.77
3 0 0 0 110.77 107 107.997
4 0.2738 -0.4825 0.2738 110.77 110.77 107.66
5 -1.3199 -1.3199 0.1184 112.67 110.77 110.77
6 0.2738 -0.4825 0.2738 110.77 110.77 107.66
7 0 0 0 107.997 107.997 107.66
8 -0.3157 -0.3157 -0.3157 107.66 107.66 107.66
9 0 0 0 112.67 107 107
10 -1.3199 -1.3199 0.1184 112.67 110.77 110.77
11 0 0 0 107 110.77 107.997

Atoms # full/kk

3546 10 3 -0.184 6.140904478256675 42.38984929386199 6.471646964728358 1 -1 1
3327 10 4 0.053 6.467672593205194 7.314073755436955 11.23860901591477 1 0 1
3326 10 4 0.053 42.85124186751215 8.038251588166082 12.33314088538066 0 0 1
2472 7 3 -0.184 8.536005892185026 6.9162290048079464 8.06401261021704 0 0 1
2467 7 1 -0.106 9.427357539689043 42.77539761597043 6.156686582431927 0 -1 1
2469 7 4 0.053 8.630189847195322 5.8133555978617055 5.675438454736232 0 0 1
3325 10 1 -0.106 42.89494559774594 7.464137470365403 11.31638536761983 0 0 1
3320 10 4 0.053 5.526274604797399 10.12330131257436 10.997680919792288 1 0 1
3321 10 4 0.053 6.971493754012909 9.30166637445213 10.101181408506834 1 0 1
3318 10 3 -0.184 6.43776680542637 10.124561026228019 7.464910712357439 1 0 1
3316 10 2 0.131 5.487684286265083 10.478568101884907 8.900515641606535 1 0 1
3319 10 1 -0.106 5.858977689228702 9.591105274508333 10.13753486413586 1 0 1
3314 10 4 0.053 6.496774818982356 11.954981806868783 10.023691016253286 1 0 1
3313 10 1 -0.106 5.721333990159167 11.986602487575237 9.22057109333528 1 0 1
2470 7 2 0.131 9.90904008050044 6.2452622517851495 7.2618735762768765 0 0 1
3315 10 4 0.053 42.291473282902345 12.350350387436738 9.764425909712488 0 0 1
2917 9 4 0.053 17.387130561290654 42.255239846879384 10.215647743689297 0 0 1
2471 7 4 0.053 10.396717504870406 7.0828547813654055 6.653952201974846 0 0 1
2902 9 3 -0.184 14.278900880460698 9.172284612812756 6.271752917846625 0 1 1
2910 9 4 0.053 16.30438380762493 8.554841588414867 10.953713329029165 0 1 1
2908 9 3 -0.184 13.928827537767456 7.189471906072248 10.126952774329894 0 1 1
2907 9 4 0.053 15.278343650960993 7.430230179089003 8.055443684830236 0 1 1
2906 9 2 0.131 15.14973101028379 7.922355888991335 9.07225610667599 0 1 1
2916 9 4 0.053 15.826442168062684 5.476699401228271 9.968284132188026 0 1 1
2912 9 2 0.131 17.433437216668253 6.803335519959578 10.131064548839687 0 1 1
2909 9 1 -0.106 16.4771048193111 8.108996318964035 9.931630657083915 0 1 1
2915 9 1 -0.106 16.72003673498997 5.570746949932297 10.594694427471923 0 1 1
2911 9 4 0.053 17.209608999392536 8.840658184807245 9.252842206655936 0 1 1
2914 9 3 -0.184 18.17333346199262 6.5638126161896055 8.55696536209573 0 1 1
2901 9 4 0.053 12.717685664076804 8.839758930998396 7.796581823250137 0 1 1
2903 9 1 -0.106 14.625123200436747 9.365928168513326 8.859765386716974 0 1 1
2900 9 2 0.131 13.465738768611045 9.601072930085792 7.72654183062236 0 1 1
2904 9 4 0.053 14.227423237283567 9.863149503846838 9.829876944835055 0 1 1
2905 9 4 0.053 15.557749708674201 9.835109143316199 8.520700230734489 0 1 1
2913 9 4 0.053 18.26341512830194 7.054515123016474 10.852863601131336 0 1 1
3257 9 4 0.053 12.713051584852256 11.613223783569673 8.481922327805073 0 1 1
2370 7 3 -0.184 20.92893683305743 9.984718203328676 7.736916496717795 0 0 1
2365 7 1 -0.106 18.702326090993743 10.016547762541684 5.941358974843147 0 0 1
1304 4 4 0.053 23.304124684790356 42.10992546695746 13.815494014011525 0 -1 1
3022 9 3 -0.184 19.864408322435132 9.053339073938151 10.749032838741762 0 1 1
2363 7 4 0.053 20.00911399540633 8.437858629448451 42.70936192958493 0 0 0
1298 4 4 0.053 22.843113773806405 6.079526500404257 11.18737277312061 0 0 1
2367 7 4 0.053 18.294706854096088 9.220901028140567 6.571191871392908 0 0 1
1296 4 3 -0.184 23.901271615696853 7.073242283206235 9.001990553557246 0 0 1
1278 4 3 -0.184 29.9260404676803 8.52321214293308 6.258552859976118 0 0 1
3028 9 3 -0.184 23.191975642521992 12.672279791342802 11.344570890829608 0 1 1
1297 4 1 -0.106 23.871129650957922 6.232319753575257 11.653972318801525 0 0 1
1299 4 4 0.053 24.412945097459435 42.783194748502666 11.709977250130622 0 -1 1
1295 4 4 0.053 24.407379008775937 8.1590178599887 11.165646653660687 0 0 1
1292 4 4 0.053 26.33127994648997 6.217221528302647 9.97825864638934 0 0 1
1283 4 4 0.053 28.4683099427679 8.082037223837316 8.078732897168216 0 0 1
1294 4 2 0.131 24.61434383555972 7.206915817986035 10.782410273799446 0 0 1
1293 4 4 0.053 26.531053871284108 6.6394776765002534 11.636775956875177 0 0 1
1291 4 1 -0.106 26.173976687402295 7.039903441360132 10.704535046168827 0 0 1
1288 4 2 0.131 26.90137802516335 8.33468924932911 10.336720554524472 0 0 1
1289 4 4 0.053 26.688089833603403 8.818595131421235 9.341186507537746 0 0 1
1285 4 1 -0.106 28.437513927802996 8.339640766120894 10.266796367651555 0 0 1
1287 4 4 0.053 28.817046175436378 7.921656534836718 11.182339258632451 0 0 1
1290 4 3 -0.184 26.49029525431744 9.61734068042588 11.548576973947066 0 0 1
1286 4 4 0.053 28.690396274359287 9.468827971867086 10.28124918637977 0 0 1
1282 4 2 0.131 28.99876892864304 7.674514809037889 9.003744859388464 0 0 1
1284 4 3 -0.184 28.475572827024294 5.925320473052032 9.029344678745733 0 0 1
1276 4 2 0.131 30.913082612573483 8.975738431126265 7.670940764395851 0 0 1
1279 4 1 -0.106 30.559084186727777 7.86505192519013 8.690803277593318 0 0 1
586 2 4 0.053 34.10702607023121 12.430066743779037 10.416994020176197 0 1 0
572 2 3 -0.184 33.61351729672309 9.50662728041807 12.683015694142988 0 1 0
567 2 1 -0.106 34.03015403579005 7.000940083382703 11.790150741218731 0 1 0
570 2 2 0.131 34.87333025407864 8.253696869130213 12.41400168712823 0 1 0
562 2 4 0.053 31.827348098275884 5.685329444562319 11.059791359607717 0 1 0
560 2 3 -0.184 33.98490439766796 41.68959133999067 10.476333667655949 0 0 0
569 2 4 0.053 34.74112407747687 6.426112391914457 11.258622714872429 0 1 0
576 2 2 0.131 36.4870353698049 10.134821142141558 11.619793599791878 0 1 0
1280 4 4 0.053 30.95315242584023 6.828685501915416 8.313601719421323 0 0 1
1277 4 4 0.053 31.89575770696669 8.9313397044752 7.2547418906245635 0 0 1
568 2 4 0.053 33.433560331777784 7.623420757049382 11.046576825776956 0 1 0
1281 4 4 0.053 31.110384844493627 8.001937080006638 9.653951355574092 0 0 1
573 2 1 -0.106 35.74233596412611 8.850811693327845 11.343289705551193 0 1 0
575 2 4 0.053 35.032114920323295 9.238476122871573 10.474588229202826 0 1 0
3267 10 4 0.053 35.73191168514866 6.855075134415835 41.51498792039285 0 0 0
3332 10 4 0.053 42.362072006594865 5.485154536621195 9.454997033767375 0 0 1
582 2 2 0.131 36.03411772152842 11.9610139279114 9.651904861288916 0 1 0
584 2 3 -0.184 35.06821840587119 10.998273848526647 8.363577357617286 0 1 0
579 2 1 -0.106 36.95046550006029 10.906051087926034 10.41661934079446 0 1 0
580 2 4 0.053 37.15523026030817 10.217516534937184 9.599898418546887 0 1 0
581 2 4 0.053 37.943760939624454 11.36866521630596 10.6759550363304 0 1 0
3317 10 4 0.053 41.978680233281395 10.204294842614573 8.576996123393961 0 0 1
3322 10 2 0.131 42.42672899105337 8.391128156708188 10.15471401854284 0 0 1
3323 10 4 0.053 42.346984746788344 7.888569879682514 9.148576313644352 0 0 1
574 2 4 0.053 36.396964278735055 8.076379851435105 10.896777099679856 0 1 0
3329 10 4 0.053 41.13671515281675 6.324417085502155 11.888634122542227 0 0 1
3324 10 3 -0.184 40.805659712259306 8.963609625914422 10.706170687106528 0 0 1
1440 4 3 -0.184 12.818784415628029 17.792270359138932 41.79270085322289 0 -1 1
1083 3 4 0.053 5.641642676479839 20.484196815702944 9.70412079007591 0 0 1
2989 9 4 0.053 9.499310617053123 15.69333140765935 9.480536621905053 0 1 1
2988 9 4 0.053 9.03401437709769 14.511335188000515 10.695431494695065 0 1 1
2987 9 1 -0.106 9.875471912894007 15.208720264383503 10.366313678917736 0 1 1
3310 10 2 0.131 5.932590370731482 12.97265349396491 8.101714442009932 1 0 1
2990 9 2 0.131 11.021330647983671 14.241079414164398 9.930821477317394 0 1 1
2995 9 4 0.053 10.524487025493041 12.39706658056572 10.746305547606092 0 1 1
3311 10 4 0.053 6.868420398944986 12.683186160910205 7.513305816488202 1 0 1
3308 10 4 0.053 42.51020867553308 14.227914420849052 6.567852336723231 0 0 1
2993 9 1 -0.106 11.3655769768622 13.128504222714566 10.861850096446322 0 1 1
3312 10 3 -0.184 6.208903019472232 14.593155814742795 8.771611874885062 1 0 1
2992 9 3 -0.184 10.277651713768185 13.379814550360667 8.510959899976385 0 1 1
2991 9 4 0.053 11.89848907289526 14.864212951431485 9.649470766240812 0 1 1
2998 9 3 -0.184 12.148658005523798 11.716886379720334 12.876322467971946 0 1 1
3016 9 3 -0.184 17.25311273850141 11.578701654517282 10.629914537523005 0 1 1
1442 4 4 0.053 12.466730686431793 17.473023951576586 7.37751211643708 0 -1 2
2376 7 3 -0.184 16.27419142287829 12.607725862991666 6.8259951091430215 0 0 1
1443 4 4 0.053 13.872429866046845 18.67359902888217 7.738921725893594 0 -1 2
1441 4 1 -0.106 13.512721517576303 17.82649230937161 7.063635504778224 0 -1 2
2994 9 4 0.053 12.34910442067213 12.57372085990536 10.562270506747483 0 1 1
2899 9 4 0.053 11.741460982482561 10.752793123465779 7.215974408527895 0 1 1
2897 9 1 -0.159 12.782795128712209 10.98543355545089 7.542062192985713 0 1 1
1445 4 4 0.053 14.597687024386147 16.200953585508827 5.94263020412267 0 -1 2
1444 4 1 0.078 14.618074218598492 16.704582068777054 6.883154895269577 0 -1 2
1448 4 4 0.053 15.650984694397364 17.08546606761814 7.074124845778694 0 -1 2
2898 9 4 0.053 13.354001595906198 11.712183562532644 6.87296272634872 0 1 1
1446 4 3 -0.184 14.448974287432897 15.600999449655147 8.202409071157538 0 -1 2
2372 7 4 0.053 18.466772772648376 11.08021928645813 8.486532635668684 0 0 1
2368 7 2 0.131 19.650517812328438 10.894890768490317 6.807632952791274 0 0 1
1254 4 3 -0.184 24.366836899160322 13.771049794079348 7.373407516728928 0 0 1
2375 7 4 0.053 17.935385757344378 13.690097672443189 8.082962971995698 0 0 1
2373 7 4 0.053 19.815638727686327 12.260270777388001 8.25181659401641 0 0 1
2371 7 1 -0.106 18.85938879566833 11.766579773621865 7.803261386460464 0 0 1
2374 7 2 0.131 17.971814572139884 13.00148502739836 7.2713305372476205 0 0 1
1256 4 4 0.053 25.68433342994228 13.75858051324826 9.990328672655474 0 0 1
1251 4 4 0.053 24.448080906128123 15.74659680617075 9.523291000935133 0 0 1
1252 4 2 0.131 25.729376857585272 14.746722248587796 8.102599721047838 0 0 1
1249 4 1 -0.106 25.02283208549139 16.105275627971654 8.65243437941116 0 0 1
1259 4 4 0.053 27.964401425087654 15.062759177693405 9.869826526263836 0 0 1
1258 4 2 0.131 27.796058916584727 14.021796197857707 9.534001884544836 0 0 1
1261 4 1 -0.106 28.764163998144753 13.456541830973222 8.470462088172436 0 0 1
1263 4 4 0.053 28.416837785443825 12.554753367868194 7.982106699018979 0 0 1
1265 4 4 0.053 30.80419469092963 12.767659734145706 9.49980762994392 0 0 1
1264 4 2 0.131 30.29933233027447 13.358835298312929 8.79189385381882 0 0 1
1262 4 4 0.053 28.78405955258917 14.302040377713814 7.678367793396775 0 0 1
1266 4 3 -0.184 30.991764244975478 15.02251663201247 9.132772140720936 0 0 1
1253 4 4 0.053 26.453522953730022 15.07793489692163 7.293707854977764 0 0 1
1271 4 4 0.053 29.759112683612845 11.311334835821267 6.35921828677537 0 0 1
1260 4 3 -0.184 28.03724286356637 13.145906421193281 10.991501961747138 0 0 1
1273 4 1 -0.106 30.845910112122006 10.42890061917807 8.03577439107841 0 0 1
1275 4 4 0.053 30.02570282697959 10.742685833081094 8.83213619044751 0 0 1
1257 4 4 0.053 26.436850527804573 12.733812850607116 8.690673256336476 0 0 1
1255 4 1 -0.106 26.40140202193357 13.777158812418735 9.155406939767431 0 0 1
1269 4 4 0.053 30.60780902111644 13.507412251422119 6.55154228981856 0 0 1
1267 4 1 -0.106 30.939833970617237 12.931507849607154 7.3999414387877005 0 0 1
1270 4 2 0.131 30.646710937588907 11.46505051991187 6.9407219062182985 0 0 1
1268 4 4 0.053 32.037874951194404 13.142807507206932 7.522489927176738 0 0 1
596 2 3 -0.184 34.6021898505958 15.515807884493682 8.428668112350268 0 1 0
594 2 2 0.131 35.289532520085366 16.115521574969584 10.041649893663408 0 1 0
593 2 4 0.053 33.678904653662556 15.241261003030772 11.067617652644637 0 1 0
595 2 4 0.053 34.883238589293285 17.09444389834556 10.109292619412779 0 1 0
1272 4 3 -0.184 31.923876556041574 11.11392960866119 5.643665707624587 0 0 1
591 2 1 -0.106 34.727180847268855 15.303398725857772 11.303432607728082 0 1 0
587 2 4 0.053 34.8258281599647 13.37736739446658 9.347755507910868 0 1 0
585 2 1 -0.106 35.01652854936607 12.916463805421305 10.265393635822399 0 1 0
589 2 4 0.053 36.28582378640853 13.907480368809315 11.734471691513578 0 1 0
588 2 2 0.131 35.260599813657805 13.838765270475673 11.455837837849192 0 1 0
1274 4 4 0.053 31.81801199201465 10.362509278585438 8.661284731203471 0 0 1
3293 10 4 0.053 36.26499835369795 12.786828689448164 6.099383859866651 0 0 1
590 2 3 -0.184 34.45734957760625 13.08924293419554 12.886625507335278 0 1 0
597 2 1 -0.106 36.88692014993808 16.097455775020855 9.82754797563203 0 1 0
605 2 4 0.053 37.13969627347489 18.485712051520245 10.931315657175784 0 1 0
598 2 4 0.053 37.05683206484642 15.087687672899138 9.528211954269036 0 1 0
583 2 4 0.053 36.66212234631894 12.647084504018245 9.055866684866007 0 1 0
603 2 1 -0.106 38.03698933506866 17.89167190922894 11.089525776016435 0 1 0
599 2 4 0.053 37.20922283177812 16.79048355192974 9.07485905782459 0 1 0
3300 10 3 -0.184 38.30070694147665 16.301476862777374 6.519084471040559 0 0 1
3303 10 4 0.053 40.66515777917702 15.374211449301463 6.327571664109452 0 0 1
3298 10 2 0.131 38.58097080263311 14.584611247643577 6.569054682286481 0 0 1
3301 10 1 -0.106 40.06074437891981 14.35442379092155 6.419732476689863 0 0 1
3305 10 4 0.053 40.745146061456694 13.887554075586337 8.396884860813532 0 0 1
3302 10 4 0.053 40.1578787571309 14.10156187759558 42.829363175994025 0 0 0
3299 10 4 0.053 38.153744810196564 14.061602684513383 7.497248298459362 0 0 1
3304 10 2 0.131 40.72004552794965 13.391169441204722 7.446295459120696 0 0 1
601 2 4 0.053 37.292269500298886 16.225774982156423 11.98516546529268 0 1 0
602 2 3 -0.184 39.30283928387274 15.585828878829185 11.089361371120166 0 1 0
600 2 2 0.131 37.74625753277076 16.418720565615562 11.069050398930893 0 1 0
3306 10 3 -0.184 39.847290266701464 11.883984189006892 7.492726156915769 0 0 1
3309 10 4 0.053 42.408353886874885 12.374273085975474 6.306774443014429 0 0 1
3307 10 1 -0.106 42.27611946319536 13.163703165005344 7.009980095350518 0 0 1
3247 9 4 0.053 8.521658419871054 23.989848851113205 10.136423271545267 0 1 1
1086 3 4 0.053 7.108911076022598 19.96796930754475 8.8537949322802 0 0 1
1068 3 4 0.053 5.602758990326467 22.868032386563375 5.700540580710049 0 0 1
1082 3 1 0.078 6.189454686201912 19.62267592282948 9.304887013554067 0 0 1
1074 3 4 0.053 41.32758327068356 20.82222064740794 7.73371887547546 -1 0 1
3246 9 4 0.053 9.784147795406941 22.897492569802647 9.510044564558028 0 1 1
3250 9 3 -0.184 12.214085207336455 24.414951460806407 9.626220476228758 0 1 1
3245 9 1 -0.106 9.557079053957846 23.659061885277413 10.262855110078647 0 1 1
1076 3 2 0.131 42.475839248142606 19.13105072845838 7.021477567901566 -1 0 1
1070 3 2 0.131 41.68474930903094 21.19583354126859 5.505876124440885 -1 0 1
3248 9 2 0.131 10.492470138588676 24.866883175682887 9.940534926270464 0 1 1
1069 3 4 0.053 42.565659557944265 22.669156234241388 41.650904428199375 -1 0 0
1437 4 4 0.053 11.750608850280006 19.920079927155868 5.751960521871127 0 -1 2
1073 3 1 -0.106 42.068003052250845 20.618815674247294 6.972910724399531 -1 0 1
1075 3 4 0.053 5.46402693836275 21.223117487332217 7.198956743041239 0 0 1
1078 3 3 -0.184 6.480977088535293 19.02524909014617 6.192299549492251 0 0 1
3240 9 4 0.053 10.35244846100112 21.066993059097943 11.379012526282441 0 1 1
1079 3 1 -0.106 42.775695257511146 18.709059927181997 8.4778266319033 -1 0 1
1084 3 3 -0.184 6.629336827315058 18.641065697881615 10.783300481877161 0 0 1
1438 4 2 0.131 13.491813273828281 18.700068976239542 5.806403454617646 0 -1 2
1435 4 1 -0.106 12.82404052285656 20.09050553172991 5.749649589985673 0 -1 2
3241 9 4 0.053 11.77939675911678 22.03612334271693 11.491874219949498 0 1 1
1430 4 4 0.053 11.443714213791823 22.275571958252694 6.4883868513878635 0 -1 2
1507 5 4 0.053 15.805439347351577 20.19114574864392 9.889712839639762 0 0 0
1508 5 3 -0.184 16.049227022528825 21.85164641696386 11.565640692757746 0 0 0
1429 4 1 -0.106 12.553323739898838 22.537025209836507 6.325432237265275 0 -1 2
1432 4 2 0.131 13.19866635730516 21.15421212507404 6.756709462598676 0 -1 2
1434 4 3 -0.184 12.544694748803732 20.797922469694647 8.452300171946524 0 -1 2
1431 4 4 0.053 12.945774114123397 23.26155748701423 7.0295714466376005 0 -1 2
1433 4 4 0.053 14.400873013985521 21.180646347447485 6.818591142805566 0 -1 2
1505 5 4 0.053 15.663000478008941 22.595369454856026 8.831133673079758 0 0 0
1506 5 2 0.131 16.571084524712525 20.9734888987155 10.155360076812352 0 0 0
1503 5 1 -0.106 16.698963952395808 22.182228415618304 9.110713463246435 0 0 0
1502 5 3 -0.184 16.683247878973848 20.390883243175367 7.040384688976713 0 0 0
1504 5 4 0.053 17.211803745514526 23.028629568633765 9.741041239475916 0 0 0
1998 6 4 0.053 22.58306460303043 23.663240686944157 10.610277264357117 0 0 1
1488 5 2 0.131 21.574829747440088 21.585047032744374 6.107193898477888 0 0 0
1498 5 4 0.053 18.156014029116406 23.70594320859742 7.457121011686548 0 0 0
1491 5 1 -0.106 20.43877922032763 22.45766400341627 6.639558003715712 0 0 0
1486 5 4 0.053 22.856242508060074 23.00416301487698 7.140376798751867 0 0 0
1509 5 1 -0.106 17.965698477721368 20.196168237586306 10.647842601337713 0 0 0
1500 5 2 0.131 17.628525773269757 21.715926866090214 7.920577568797893 0 0 0
1497 5 1 -0.106 17.939514146920814 22.79123421208434 6.857541961382733 0 0 0
1485 5 1 -0.106 22.885201422007675 21.93052466916062 6.800584279053583 0 0 0
1490 5 3 -0.184 21.211392586467 19.812456830652067 6.4358522918780805 0 0 0
1519 5 4 0.053 20.418632688565076 17.982225490915468 10.96124540509018 0 0 0
1501 5 4 0.053 18.501948657992063 21.239789846641585 8.291268277601931 0 0 0
1511 5 4 0.053 18.506338374412653 20.980863282034154 11.146002993436786 0 0 0
1510 5 4 0.053 18.531595381746158 19.795968606443033 9.785028154685113 0 0 0
1492 5 4 0.053 20.289205606540083 22.147374474652423 7.6590797085728095 0 0 0
1487 5 4 0.053 23.13329005655937 21.017228235466632 7.432132747135294 0 0 0
1520 5 3 -0.184 20.766484046861578 20.03469710073052 11.86723815963593 0 0 0
1247 4 4 0.053 26.984305126797754 16.77937952676002 9.3008221219066 0 0 1
1248 4 3 -0.184 26.605197775935363 17.741841624055205 7.050918777513767 0 0 1
1244 4 4 0.053 25.849131189813146 18.298983473962146 10.778165321296798 0 0 1
1246 4 2 0.131 26.068235616839264 17.218291760334466 8.837674571513665 0 0 1
1231 4 1 -0.106 30.393070060163428 20.192788018503457 10.086751354583587 0 0 1
1245 4 4 0.053 24.574199005506124 18.56364769774641 9.610453730519676 0 0 1
1232 4 4 0.053 30.399993768058593 19.321034014064196 10.785062586343917 0 0 1
1235 4 4 0.053 29.10316674031511 19.607777171198734 8.286757005249314 0 0 1
1237 4 1 -0.106 27.9613162087293 19.597603290495456 10.155246424649281 0 0 1
1243 4 1 -0.106 25.644314781334007 18.466034141618888 9.732921875073005 0 0 1
1241 4 4 0.053 26.6800662744209 19.89241555267752 8.426028320486212 0 0 1
1240 4 2 0.131 26.560754234059594 19.73064086550071 9.508110872661002 0 0 1
1238 4 4 0.053 28.183051967534308 18.546064205075844 10.551411757245749 0 0 1
1481 5 4 0.053 25.699813350600383 21.64405620550816 7.0022911150688625 0 0 0
1236 4 3 -0.184 28.88918143651452 21.87679323026419 8.791660514169921 0 0 1
1234 4 2 0.131 29.069664119084074 20.19281251606745 9.193646731972894 0 0 1
1242 4 3 -0.184 25.624433642874752 21.05561668723537 10.205343840051263 0 0 1
1239 4 4 0.053 27.97705777275658 20.14433361512413 11.094335149980418 0 0 1
1250 4 4 0.053 24.32189008453168 16.437037634843485 7.912213232501684 0 0 1
1233 4 4 0.053 30.271694101033066 21.157410297908967 10.78595441322593 0 0 1
1228 4 2 0.131 31.803754877468315 20.046504082076666 9.508426555402727 0 0 1
1226 4 4 0.053 32.410500779799605 22.229154239165133 9.0665176906621 0 0 1
1224 4 3 -0.184 34.88422478149956 21.029917679151104 9.764813059992283 0 0 1
1217 4 4 0.053 36.46481160452926 20.102558534890488 7.168904427640048 0 0 1
1227 4 4 0.053 31.74263736993012 21.48077725547842 7.766931037791196 0 0 1
1220 4 4 0.053 35.183109920087816 22.46519680029688 7.647580137179053 0 0 1
1222 4 2 0.131 33.920989858812206 20.805028531184234 8.314595225087775 0 0 1
1219 4 1 -0.106 34.75981022425213 21.50755238432367 7.192538351421698 0 0 1
1218 4 3 -0.184 36.81923617980991 21.751583904609635 5.524894200840826 0 0 1
1221 4 4 0.053 34.037588632642745 21.848401486715957 6.383357746990591 0 0 1
1230 4 3 -0.184 31.728935206667412 18.653129875136585 8.453616666580748 0 0 1
1216 4 2 0.131 35.80230149697712 20.641081825013067 6.415998033556155 0 0 1
1229 4 4 0.053 32.33504714865975 19.840272308722508 10.420311317428554 0 0 1
1223 4 4 0.053 33.9833082230968 19.677959056337748 8.108975992620822 0 0 1
1225 4 1 -0.106 32.43394102205857 21.24338780087875 8.625541432244047 0 0 1
1213 4 1 -0.106 35.29233811318523 19.43059772558353 5.519914221870992 0 0 1
1209 4 4 0.053 34.33570130524541 17.428905026608543 42.000188016196894 0 0 0
1214 4 4 0.053 35.27456562091095 18.639561506953278 6.175033721709539 0 0 1
3414 10 3 -0.184 32.27171941828371 24.478464738413397 5.660576446476674 0 -1 1
3419 10 4 0.053 34.52889830839122 25.823785288274276 42.679161535805555 0 -1 0
1061 3 1 -0.106 39.58567539863332 23.43689833274923 41.929743627373455 -1 0 0
604 2 4 0.053 38.751803300164276 18.201078806908498 10.338880670406517 0 1 0
1071 3 4 0.053 40.575903390234664 21.284187962705033 5.482817394583624 -1 0 1
611 2 4 0.053 39.329723301359934 20.0872038947027 11.11250501564379 0 1 0
1063 3 4 0.053 39.43915626629603 22.42924339790516 41.678616656684596 -1 0 0
1064 3 2 0.131 41.01812258016659 23.78454395917672 42.642237262347386 -1 0 0
1066 3 3 -0.184 40.70818671099934 23.979323428350554 6.870860820168079 -1 0 1
610 2 4 0.053 38.26359529643386 20.545236303208554 12.281164255368843 0 1 0
1067 3 1 -0.106 42.18142044022715 22.639792403749404 42.618477407049646 -1 0 0
1081 3 4 0.053 5.682760485024957 17.693666571944107 8.362245563576185 0 0 1
1080 3 4 0.053 41.759264456853444 18.771258181059387 9.079486296895555 -1 0 1
609 2 1 -0.106 39.18336510834815 19.94862900654136 12.131095462033352 0 1 0
613 2 4 0.053 40.68917928122924 21.573580065411512 12.135745126631575 0 1 0
3258 9 4 0.053 9.283726018746709 27.618930012233477 7.937425357849295 0 1 1
3253 9 4 0.053 11.02625481857196 26.033337215510414 8.113110964425216 0 1 1
3254 9 1 0.078 9.183837337413634 26.795903933721693 8.713323781606826 0 1 1
3255 9 4 0.053 9.346985630933148 27.29046020054258 9.74955055632973 0 1 1
3251 9 1 -0.106 10.095373109233902 25.564675766080676 8.59391149065008 0 1 1
3256 9 3 -0.184 7.472953665461045 26.211998015878457 8.403400476956636 0 1 1
3252 9 4 0.053 9.916120333039327 24.71757353645607 7.842267610935301 0 1 1
3249 9 4 0.053 10.431333738619768 25.542190966966885 10.76250137972132 0 1 1
3609 10 4 0.053 13.949487107996235 27.055247458482857 6.3913379987483845 1 -1 1
3611 10 4 0.053 13.491253341305294 29.936296118187826 7.039504985868638 1 -1 1
3612 10 3 -0.184 12.249702332357602 28.197271318901834 8.301649846732587 1 -1 1
3607 10 1 -0.106 14.340003317983879 28.109735264219523 6.372523483486445 1 -1 1
3610 10 2 0.131 13.806151643603616 28.961082229817375 7.469643825608411 1 -1 1
3620 10 4 0.053 13.373384907737602 29.965728453390813 10.106229390783918 1 -1 1
3616 10 1 0.078 14.251802109683164 30.384739922528624 9.458927769732806 1 -1 1
3617 10 4 0.053 13.800130799012214 31.27370140241324 8.920766863695789 1 -1 1
3613 10 1 -0.106 14.738830152857474 29.24436395149451 8.70412581141367 1 -1 1
3614 10 4 0.053 15.791766627468503 29.21146856090433 8.404437392504919 1 -1 1
3618 10 3 -0.184 15.630569118166987 30.973002181778213 10.458878256102334 1 -1 1
3615 10 4 0.053 14.645094993090154 28.23269730278066 9.302247344457983 1 -1 1
1972 6 3 -0.184 14.40423106581755 26.50771978137011 12.454355502571895 0 0 1
1969 6 4 0.053 13.504132022631541 28.961733936596666 12.364828923544 0 0 1
9 1 4 0.053 20.241610224884607 31.065858959754966 10.3202430731365 0 0 0
2018 6 2 0.131 21.178973389616154 30.49587138822817 5.495294659268959 0 0 1
2016 6 4 0.053 21.000260196129837 29.303792450309817 7.204111567965604 0 0 1
2007 6 4 0.053 22.516339155750977 27.695530539034593 8.31071475362633 0 0 1
2005 6 4 0.053 22.290273711551865 24.583100956014327 8.680161632265614 0 0 1
2006 6 2 0.131 22.16084533511271 26.713684324779084 7.962531925331463 0 0 1
2009 6 1 -0.106 22.4206777261633 26.751285869055565 6.3481279680899965 0 0 1
2012 6 2 0.131 21.730881918530955 27.93554135485549 5.636370126244354 0 0 1
2017 6 4 0.053 22.675024511197034 29.499532663424496 6.810081199680087 0 0 1
2010 6 4 0.053 22.278611867843292 25.703721176411847 5.9441257149694655 0 0 1
2015 6 1 -0.106 21.66014460458423 29.359277028968858 6.413940754623708 0 0 1
2013 6 4 0.053 22.331869338579413 28.2070724181996 42.34210464973467 0 0 0
2011 6 4 0.053 23.537418863844284 26.902706358806554 6.242290648595456 0 0 1
2003 6 1 -0.106 22.83729189983804 25.544179611828145 8.771738541048565 0 0 1
2004 6 4 0.053 23.842432408019455 25.299187070869007 8.282368452351355 0 0 1
2000 6 2 0.131 22.918456310814424 25.766590868479128 10.204967238860899 0 0 1
2008 6 3 -0.184 20.36620545137511 26.672158628455037 8.085507009585443 0 0 1
2001 6 4 0.053 22.363104345013234 26.669138228748057 10.54867744362759 0 0 1
12 1 3 -0.184 22.03050577695091 29.549701539195198 11.260347507035817 0 0 0
1997 6 1 -0.106 22.385849397148085 24.589060660257566 11.040382531193064 0 0 1
1999 6 4 0.053 21.272808683644104 24.77486416716148 10.99210255941206 0 0 1
2002 6 3 -0.184 24.73399639715211 26.06135261338637 10.64457241758291 0 0 1
3399 10 4 0.053 26.63241048733153 29.134094461383178 8.403278070850165 0 -1 1
29 1 4 0.053 27.454203109403714 28.224329610701076 13.154237634146424 0 0 0
3394 10 2 0.131 27.458481280391002 30.077911808953292 6.748817417980162 0 -1 1