units real
atom_style full
boundary p p p

# --- Force Field Styles ---
pair_style lj/class2/coul/long 9.5 9.5
kspace_style pppm 1e-6
dielectric 1.000000
bond_style class2
angle_style class2
dihedral_style class2
improper_style class2
special_bonds lj/coul 0 0 1
pair_modify mix sixthpower tail yes
neighbor 2.0 bin
neigh_modify delay 0 every 1 check yes
neigh_modify one 4000
# KOKKOS: package loaded via -pk kokkos on the command line

read_data /home/arz2/PolyJarvis/data/PEEK3/lammps/npt_prod300/npt_prod300_out.data
Reading data file ...
  orthogonal box = (5.1370875 5.1370875 5.1370875) to (51.918441 51.918441 51.918441)
  1 by 1 by 1 MPI processor grid
  reading atoms ...
  8720 atoms
  reading velocities ...
  8720 velocities
  scanning bonds ...
  3 = max bonds/atom
  scanning angles ...
  9 = max angles/atom
  scanning dihedrals ...
  18 = max dihedrals/atom
  scanning impropers ...
  4 = max impropers/atom
  orthogonal box = (5.1370875 5.1370875 5.1370875) to (51.918441 51.918441 51.918441)
  1 by 1 by 1 MPI processor grid
  reading bonds ...
  9480 bonds
  reading angles ...
  15104 angles
  reading dihedrals ...
  22512 dihedrals
  reading impropers ...
  4864 impropers
Finding 1-2 1-3 1-4 neighbors ...
  special bond factors lj:    0        0        1       
  special bond factors coul:  0        0        1       
     3 = max # of 1-2 neighbors
     6 = max # of 1-3 neighbors
     9 = max # of special neighbors
  special bonds CPU = 0.004 seconds
  read_data CPU = 0.333 seconds


# --- Thermo Output ---
thermo_style custom step time temp press enthalpy etotal ke pe ebond eangle edihed eimp evdwl ecoul elong etail vol lx ly lz density pxx pyy pzz
thermo_modify flush yes
thermo 100

# --- Trajectory ---
dump dump_npt all custom 1000 /home/arz2/PolyJarvis/data/PEEK3/lammps/mechanical/bm_series/bm_P-1000/bm_P-1000.dump id type mol x y z ix iy iz vx vy vz

# --- Restart Checkpointing ---
restart 10000 npt_1.rst npt_2.rst

# --- Initial Velocities (optional) ---
# Velocities read from data file

# --- SHAKE Constraints ---
fix shake_fix all shake 1e-4 1000 0 m 1.008
Finding SHAKE clusters ...
    3088 = # of size 2 clusters
       0 = # of size 3 clusters
       0 = # of size 4 clusters
       0 = # of frozen angles
  find clusters CPU = 0.003 seconds

# --- NPT Thermostat + Barostat (Nose-Hoover) ---
# T_damp = 100.0 fs  (heat bath coupling)
# P_damp = 1000.0 fs  (pressure bath coupling, ~10x T_damp typical)
# Ramp: T=300.0->300.0K  P=-1000.0->-1000.0atm
timestep 1.0
fix npt_fix all npt temp 300.0 300.0 100.0 iso -1000.0 -1000.0 1000.0

run 500000
PPPM Kokkos initialization ...
  using 12-bit tables for long-range coulomb
  G vector (1/distance) = 0.30701697
  grid = 36 36 36
  stencil order = 5
  estimated absolute RMS force accuracy = 0.0003766626
  estimated relative force accuracy = 1.1343082e-06
  using double precision cuFFT
  3d grid and FFT values/proc = 79507 46656
Generated 21 of 21 mixed pair_coeff terms from sixthpower/sixthpower mixing rule
Neighbor list info ...
  update: every = 1 steps, delay = 0 steps, check = yes
  max neighbors/atom: 4000, page size: 100000
  master list distance cutoff = 11.5
  ghost atom cutoff = 11.5
  binsize = 11.5, bins = 5 5 5
  1 neighbor lists, perpetual/occasional/extra = 1 0 0
  (1) pair lj/class2/coul/long/kk, perpetual
      attributes: full, newton off, kokkos_device
      pair build: full/bin/kk/device
      stencil: full/bin/3d
      bin: kk/device
Per MPI rank memory allocation (min/avg/max) = 37.86 | 37.86 | 37.86 Mbytes
   Step          Time           Temp          Press         Enthalpy        TotEng         KinEng         PotEng         E_bond        E_angle        E_dihed        E_impro         E_vdwl         E_coul         E_long         E_tail         Volume           Lx             Ly             Lz          Density          Pxx            Pyy            Pzz      
         0   0              339.38935     -303.02111      25849.206      26301.653      7779.2912      18522.361      3032.1149      5869.8752      5211.5417      431.98282     -1323.1161      15705.019     -10405.056     -785.18672      102380.76      46.781354      46.781354      46.781354      1.1973435      2323.0189     -2452.727      -779.35525    
       100   100            299.68229      389.30064      26010.552      25427.137      6869.1482      18557.988      2995.4926      5982.4796      5137.7608      438.20354     -1300.293       15712.424     -10408.079     -782.30251      102758.22      46.838774      46.838774      46.838774      1.1929454     -129.45627     -88.379906      1385.7381    
       200   200            294.20235     -1307.8248      23341.729      25315.439      6743.5403      18571.899      2997.9858      5909.9499      5263.3232      425.62254     -1325.8648      15710.014     -10409.132     -776.84301      103480.38      46.948243      46.948243      46.948243      1.1846201     -154.41373     -2497.8553     -1271.2055    
       300   300            296.53255     -860.76041      23973.205      25280.149      6796.9517      18483.198      3069.8962      5806.4612      5137.3604      448.6772      -1259.3602      15693.063     -10412.9       -772.13352      104111.54      47.0435        47.0435        47.0435        1.1774385      1118.6506     -2059.3949     -1641.537     
       400   400            296.16175     -559.83915      24599.369      25450.709      6788.4526      18662.257      3093.0425      5979.6189      5149.3191      423.56335     -1284.4245      15708.562     -10407.425     -770.95137      104271.19      47.067533      47.067533      47.067533      1.1756358      587.9142      -1969.9331     -297.49851    
       500   500            299.54683     -1593.4689      23134.24       25557.73       6866.0435      18691.686      3054.9971      5820.9948      5304.0941      452.39856     -1226.3741      15696.401     -10410.825     -770.84951      104284.96      47.069606      47.069606      47.069606      1.1754805     -1043.5526     -2424.0219     -1312.8322    
       600   600            300.34801     -270.17549      25163.189      25574.387      6884.4076      18689.979      3064.2145      5921.1422      5221.8236      428.54727     -1234.0237      15697.244     -10408.969     -770.30531      104358.64      47.080688      47.080688      47.080688      1.1746507     -39.856863     -720.81354     -49.85606     
       700   700            302.63076     -636.61151      24567.657      25538.251      6936.7315      18601.52       2998.377       5933.146       5203.2265      433.43511     -1272.4465      15711.631     -10405.849     -768.96031      104541.17      47.108122      47.108122      47.108122      1.1725996     -20.942041     -483.45027     -1405.4422    
       800   800            297.86756     -1757.4235      22744.276      25423.6        6827.5521      18596.047      3030.1479      5752.5628      5253.2017      455.21233     -1203.9953      15712.625     -10403.707     -768.98605      104537.67      47.107596      47.107596      47.107596      1.1726389     -1156.8244     -1815.5274     -2299.9187    
       900   900            299.67272      1057.9215      26963.078      25351.733      6868.929       18482.804      3037.8189      5964.1646      5002.8825      416.32778     -1241.6516      15711.518     -10408.256     -769.71873      104438.17      47.092645      47.092645      47.092645      1.1737562      1106.6888      793.37176      1273.7039    
      1000   1000           304.67113     -959.7735       24005.861      25466.296      6983.4997      18482.797      3015.7068      5800.1781      5186.7678      427.79348     -1247.0227      15704.991     -10405.618     -770.46621      104336.84      47.07741       47.07741       47.07741       1.174896      -1192.7046     -1632.6916     -53.924356    
      1100   1100           303.20955     -2182.8339      22276.659      25594.327      6949.9982      18644.329      3031.263       5837.5221      5331.085       422.23899     -1285.2969      15709.21      -10401.693     -771.35595      104216.49      47.059303      47.059303      47.059303      1.1762528     -2362.7825     -2806.6784     -1379.0407    
      1200   1200           301.55795     -473.49419      24846.526      25566.838      6912.1413      18654.696      3084.0963      5993.9402      5125.8088      443.22331     -1295.6085      15708.589     -10405.353     -770.65749      104310.95      47.073515      47.073515      47.073515      1.1751877     -445.95951     -867.52666     -106.9964     
      1300   1300           296.78825     -1291.7867      23497.345      25462.063      6802.8128      18659.25       3006.2491      5871.4344      5321.9526      437.17826     -1281.9016      15713.456     -10409.119     -770.8286       104287.79      47.070032      47.070032      47.070032      1.1754486     -1757.2085     -1597.9388     -520.21286    
      1400   1400           298.89849     -1252.9148      23505.737      25412.694      6851.1826      18561.511      2990.7718      5928.2583      5174.9323      438.94875     -1278.1368      15713.543     -10406.806     -770.27877      104362.23      47.081229      47.081229      47.081229      1.1746102     -1707.5503     -2066.4858      15.29169     
      1500   1500           297.95155      235.65382      25814.328      25456.102      6829.4773      18626.625      3036.616       5956.5858      5156.8201      418.23417     -1256.8281      15721.868     -10406.671     -771.23159      104233.3       47.061832      47.061832      47.061832      1.1760632     -494.7502       246.43314      955.27851    
      1600   1600           302.20297     -1796.0849      22911.888      25639.491      6926.9259      18712.565      3024.6156      5861.4747      5327.811       434.60923     -1245.1944      15716.825     -10407.576     -771.99209      104130.62      47.046373      47.046373      47.046373      1.1772228     -1018.1366     -1804.2841     -2565.8342    
      1700   1700           302.70847     -749.89764      24474.353      25612.268      6938.5127      18673.756      3004.8912      5946.7582      5208.4098      431.28316     -1238.7312      15725.646     -10404.501     -772.60785      104047.63      47.033871      47.033871      47.033871      1.1781618     -147.16179     -1275.4044     -827.12669    
      1800   1800           300.6158      -697.60436      24459.5        25517.733      6890.5458      18627.187      3034.9806      5853.6034      5234.6573      421.45085     -1246.8016      15736.036     -10406.74      -772.84986      104015.04      47.028961      47.028961      47.028961      1.1785309      369.35166     -1351.9912     -1110.1736    
      1900   1900           297.43256     -713.38387      24366.362      25447.741      6817.5813      18630.16       3047.219       5910.5181      5202.1903      419.83362     -1267.2419      15725.603     -10407.963     -773.41512      103939.02      47.017501      47.017501      47.017501      1.1793928     -126.75486     -49.241333     -1964.1554    
      2000   2000           297.81113      22.811012      25446.607      25412.077      6826.2587      18585.818      3020.3655      5904.356       5157.0067      419.73062     -1239.5716      15729.527     -10405.596     -774.48821      103795.01      46.995776      46.995776      46.995776      1.1810292      549.58084     -590.00223      108.85443    
      2100   2100           301.01836     -1779.6845      22738.914      25437.874      6899.773       18538.101      3046.2691      5814.1311      5248.325       430.33689     -1319.7281      15724.294     -10405.526     -773.06091      103986.65      47.024681      47.024681      47.024681      1.1788527     -2028.3247     -1384.0691     -1926.6597    
      2200   2200           298.21707     -566.36885      24613.65       25475.561      6835.5634      18639.998      3038.875       5842.6966      5262.6139      438.23563     -1255.4327      15721.172     -10408.163     -770.37792      104348.8       47.079209      47.079209      47.079209      1.1747614     -1152.6303     -81.305048     -465.17118    
      2300   2300           299.08448     -1097.9144      23836.045      25513.604      6855.4458      18658.159      3003.9863      5860.6515      5211.2304      445.49975     -1162.9753      15708.697     -10408.931     -767.28709      104769.15      47.14234       47.14234       47.14234       1.1700481     -1910.0977     -1599.3792      215.73363    
      2400   2400           299.39148     -2277.4982      22058.198      25541.841      6862.4825      18679.359      3004.9073      5827.7703      5318.9447      447.26759     -1245.016       15730.175     -10404.691     -766.46372      104881.69      47.159215      47.159215      47.159215      1.1687926     -2023.8012     -2929.8514     -1878.8421    
      2500   2500           298.15855     -1043.9167      23976.902      25571.595      6834.222       18737.373      3018.1128      5924.0278      5294.2497      452.17878     -1252.9235      15708.663     -10406.936     -767.46054      104745.47      47.138788      47.138788      47.138788      1.1703126     -375.59626     -1698.6093     -1057.5446    
      2600   2600           301.45973     -1500.1679      23254.559      25538.438      6909.8899      18628.548      3047.7454      5826.321       5260.4221      433.45199     -1240.9257      15706.605     -10405.072     -770.07676      104389.61      47.085345      47.085345      47.085345      1.1743021     -1430.7437     -1257.6304     -1812.1297    
      2700   2700           301.71004     -1876.54        22551.322      25403.429      6915.6273      18487.802      2937.5398      5814.6118      5307.5221      448.03712     -1321.3228      15709.813     -10408.399     -771.36368      104215.45      47.059145      47.059145      47.059145      1.1762646     -2589.9313     -2119.2494     -920.43927    
      2800   2800           295.64604      206.17011      25684.213      25371.323      6776.6317      18594.691      3000.0117      5885.8218      5166.1414      440.01608     -1200.2602      15712.45      -10409.489     -772.50431      104061.57      47.035973      47.035973      47.035973      1.1780039     -160.23895     -68.102182      846.85144    
      2900   2900           301.54483     -1893.4052      22628.476      25502.348      6911.8403      18590.508      3018.629       5856.703       5178.5961      431.69872     -1208.7744      15720.76      -10407.104     -772.40182      104075.38      47.038053      47.038053      47.038053      1.1778476     -1371.6837     -2897.4263     -1411.1057    
      3000   3000           302.42917     -1211.7684      23740.6        25579.031      6932.1107      18646.921      2965.6969      5867.4692      5323.53        444.20598     -1252.9039      15710.329     -10411.406     -772.7507       104028.39      47.030973      47.030973      47.030973      1.1783797      495.58403     -1873.5105     -2257.3787    
      3100   3100           301.18328      287.95372      25999.062      25561.564      6903.5532      18658.011      3059.2222      5883.6765      5171.0409      456.86055     -1203.1122      15703.728     -10413.404     -771.63929      104178.23      47.053542      47.053542      47.053542      1.1766849      113.98748      592.8373       157.03639    
      3200   3200           303.54291     -1484.9338      23236.418      25496.345      6957.6394      18538.706      2972.6769      5821.7726      5289.9117      436.50477     -1279.2693      15711.564     -10414.455     -770.33523      104354.58      47.080078      47.080078      47.080078      1.1746963     -1108.6095     -1482.215      -1863.9769    
      3300   3300           296.76354     -1474.9142      23133.636      25380.363      6802.2463      18578.116      3029.5977      5872.2401      5207.352       442.27436     -1287.7249      15720.437     -10406.06      -769.63322      104449.77      47.094389      47.094389      47.094389      1.1736258     -1142.5628     -1898.1944     -1383.9855    
      3400   3400           296.64444     -1265.2847      23463.538      25390.783      6799.5164      18591.266      2968.1798      5847.5778      5266.6155      450.77927     -1231.2457      15698.908     -10409.548     -769.69493      104441.4       47.09313       47.09313       47.09313       1.1737199     -1387.1854     -1440.9596     -967.70908    
      3500   3500           299.29918      378.89969      26030.398      25453.472      6860.3668      18593.105      3050.7881      5836.4038      5158.629       439.38476     -1204.7942      15722.248     -10409.554     -769.96559      104404.68      47.087611      47.087611      47.087611      1.1741326      308.11637      380.01696      448.56574    
      3600   3600           300.72204     -1485.9401      23240.434      25502.775      6892.9809      18609.794      2987.3792      5852.3288      5277.3453      446.71823     -1252.6951      15709.396     -10410.679     -770.03489      104395.29      47.086199      47.086199      47.086199      1.1742383     -681.02213     -1950.8431     -1825.9549    
      3700   3700           297.38026     -1206.8421      23701.453      25539.216      6816.3825      18722.833      3060.9549      5901.4231      5273.8261      447.23958     -1275.9904      15724.449     -10409.069     -769.8892       104415.04      47.089169      47.089169      47.089169      1.1740161     -166.71801     -1654.3158     -1799.4926    
      3800   3800           297.84889     -670.28315      24557.782      25578.343      6827.1241      18751.219      2976.7807      5981.5172      5301.609       439.97145     -1243.363       15708.221     -10413.517     -769.99301      104400.96      47.087052      47.087052      47.087052      1.1741744      692.42123     -1763.8966     -939.37404    
      3900   3900           302.28976     -1475.2354      23385.495      25634.617      6928.9153      18705.702      3078.1294      5819.9655      5291.211       457.1259      -1228.3615      15698.139     -10410.507     -768.98073      104538.4       47.107705      47.107705      47.107705      1.1726308     -443.88109     -1403.2843     -2578.5407    
      4000   4000           298.0355      -594.40639      24694.654      25601.549      6831.4015      18770.148      3007.8912      5910.6306      5335.4215      454.30244     -1246.1843      15717.723     -10409.637     -768.41131      104615.86      47.119338      47.119338      47.119338      1.1717625      780.19457     -1006.8635     -1556.5503    
      4100   4100           298.08964     -1161.8048      23690.543      25463.321      6832.6424      18630.679      3001.5654      5761.1193      5308.0995      443.80524     -1183.7494      15709.411     -10409.573     -768.32679      104627.37      47.121066      47.121066      47.121066      1.1716336     -17.23478      -1836.5038     -1631.6758    
      4200   4200           299.87035     -974.8348       23931.51       25417.193      6873.459       18543.734      2985.7511      5846.7938      5211.9111      440.06076     -1245.9544      15714.919     -10409.748     -769.25807      104500.71      47.102043      47.102043      47.102043      1.1730537     -118.11749     -1555.7433     -1250.6436    
      4300   4300           298.64063     -216.44873      25118.206      25447.861      6845.2719      18602.589      3062.7517      5822.3392      5177.6554      455.0718      -1207.6541      15704.667     -10412.242     -769.77397      104430.67      47.091518      47.091518      47.091518      1.1738404      65.674169     -1094.0836      379.06323    
      4400   4400           304.93837     -816.43491      24366.683      25609.981      6989.6252      18620.356      3074.3405      5809.8459      5183.7451      452.88418     -1189.9962      15697.845     -10408.308     -769.86332      104418.55      47.089696      47.089696      47.089696      1.1739767     -1660.4746     -1231.0635      442.23335    
      4500   4500           301.65332     -726.29863      24562.271      25668.594      6914.3272      18754.267      3046.0389      5857.5292      5315.6162      451.08386     -1237.8467      15725.495     -10403.649     -769.66279      104445.76      47.093785      47.093785      47.093785      1.1736709     -318.45989     -2049.9939      189.5579     
      4600   4600           302.67583     -1321.9168      23597.091      25612.56       6937.7647      18674.795      3049.8969      5839.0535      5272.4764      453.24379     -1239.8605      15709.15      -10409.165     -768.945        104543.26      47.108435      47.108435      47.108435      1.1725763     -2009.8801     -1273.7673     -682.10303    
      4700   4700           299.83247     -643.7653       24555.635      25537.688      6872.5907      18665.097      3068.235       5934.5727      5174.475       451.43284     -1272.6303      15713.705     -10404.693     -768.52855      104599.91      47.116942      47.116942      47.116942      1.1719412     -507.5829      -693.92184     -729.79117    
      4800   4800           299.78035     -461.31848      24773.527      25477.097      6871.3959      18605.701      3063.6586      5821.3055      5217.1028      440.76168     -1246.1536      15713.08      -10404.055     -768.70768      104575.53      47.113282      47.113282      47.113282      1.1722144      188.89477     -61.200475     -1511.6497    
      4900   4900           299.90833     -1130.7713      23752.575      25473.533      6874.3295      18599.203      3042.7602      5786.275       5256.291       439.30943     -1245.5723      15720.172     -10400.032     -770.32117      104356.49      47.080365      47.080365      47.080365      1.1746748     -1575.7136     -870.39682     -946.2035     
      5000   5000           301.46831      179.92715      25818.864      25545.307      6910.0864      18635.221      3090.6456      5858.499       5194.9482      439.86441     -1266.4062      15719.097     -10401.427     -771.10877      104249.9       47.06433       47.06433       47.06433       1.1758759      1012.2458     -692.64876      220.18443    
      5100   5100           303.64253     -1006.3319      24179.074      25708.398      6959.9226      18748.475      2993.0645      5928.4869      5345.5245      451.75546     -1256.4608      15695.628     -10409.523     -771.45199      104203.52      47.05735       47.05735       47.05735       1.1763992     -359.42918     -1788.685      -870.88166    
      5200   5200           304.6256      -1371.9051      23553.358      25641.558      6982.4561      18659.101      3060.8775      5839.848       5256.5256      428.55426     -1245.5247      15723.513     -10404.692     -770.22793      104369.12      47.082265      47.082265      47.082265      1.1745326     -705.56778     -1338.3236     -2071.8238    
      5300   5300           298.94697      33.950835      25571.755      25520.044      6852.2937      18667.75       2983.2823      5885.0651      5218.5473      435.6093      -1167.1521      15720.318     -10407.92      -769.71825      104438.23      47.092654      47.092654      47.092654      1.1737554      1123.8433     -1793.364       771.37322    
      5400   5400           299.96706     -1826.1078      22708.104      25494.099      6875.6757      18618.423      3009.6496      5856.3195      5218.4801      451.19484     -1218.8248      15710.94      -10409.337     -768.44606      104611.13      47.118628      47.118628      47.118628      1.1718154     -1691.5853     -1630.0419     -2156.6961    
      5500   5500           299.72181     -2422.9319      21806.036      25501.894      6870.0542      18631.84       2884.7837      5942.3605      5363.1737      448.63983     -1315.1889      15716.087     -10408.016     -768.58716      104591.93      47.115744      47.115744      47.115744      1.1720306     -2598.443      -2608.9718     -2061.3809    
      5600   5600           306.00512     -1106.5442      23848.019      25530.022      7014.0767      18515.945      2977.2185      5910.5041      5175.0702      424.23192     -1276.2333      15709.619     -10404.465     -771.27489      104227.45      47.060951      47.060951      47.060951      1.1761292     -462.18605     -2563.1492     -294.2974     
      5700   5700           303.17621     -1638.0877      23102.019      25584.564      6949.2339      18635.33       2993.0135      5878.7592      5277.5843      454.50868     -1287.4443      15720.823     -10401.914     -773.58345      103916.41      47.014091      47.014091      47.014091      1.1796495     -1519.6033     -2133.9394     -1260.7203    
      5800   5800           299.45496      501.45923      26288.982      25529.11       6863.9377      18665.172      3114.78        5893.6787      5152.6462      436.4046      -1251.6117      15721.78      -10402.505     -773.68165      103903.22      47.012102      47.012102      47.012102      1.1797993      54.600569      271.26926      1178.5079    
      5900   5900           298.19324     -1056.1504      23814.049      25419.501      6835.0172      18584.484      3046.5544      5845.7766      5209.8464      443.30739     -1275.4082      15716.636     -10402.229     -771.25094      104230.68      47.061438      47.061438      47.061438      1.1760927     -1083.8767     -1275.6188     -808.95574    
      6000   6000           297.95449     -719.76013      24274.186      25370.282      6829.5447      18540.737      2995.8961      5851.0127      5186.5128      435.53387     -1247.5389      15722.74      -10403.419     -769.85025      104420.32      47.089963      47.089963      47.089963      1.1739567      120.46598     -1537.2223     -742.5241     
      6100   6100           296.6833      -1473.8258      23248.307      25495.573      6800.4072      18695.165      3010.1175      5966.7626      5196.1159      442.45891     -1240.2175      15723.684     -10403.756     -768.88051      104552.02      47.109752      47.109752      47.109752      1.172478      -39.253101     -2697.5666     -1684.6579    
      6200   6200           302.89485     -2089.7459      22388.435      25573.453      6942.7848      18630.668      3005.3719      5841.8793      5263.5523      436.30515     -1224.7662      15717.438     -10409.113     -769.21702      104506.28      47.102881      47.102881      47.102881      1.1729911     -1843.6775     -2556.9841     -1868.5762    
      6300   6300           296.69795     -419.20757      24911.175      25548.99       6800.7429      18748.247      3045.3641      5869.1422      5253.3545      443.31922     -1191.7006      15732.585     -10403.817     -770.55155      104325.29      47.075672      47.075672      47.075672      1.1750262     -587.56018     -686.32713      16.264597    
      6400   6400           299.75181     -766.71316      24355.373      25520.685      6870.7419      18649.944      3007.8157      5791.1059      5328.3254      436.32847     -1229.9108      15723.889     -10407.61      -771.36122      104215.78      47.059195      47.059195      47.059195      1.1762608     -813.6522      -270.99364     -1215.4936    
      6500   6500           296.45017     -521.277        24654.58       25445.809      6795.0635      18650.746      3123.5444      5837.3703      5256.3153      420.22086     -1305.9908      15723.432     -10404.146     -772.38454      104077.71      47.038404      47.038404      47.038404      1.1778213     -575.95871     -1214.5008      226.62855    
      6600   6600           298.00661     -531.86117      24540.909      25347.363      6830.7394      18516.624      2996.9648      5887.2287      5166.2284      427.4348      -1268.9107      15712.212     -10404.535     -773.1894       103969.37      47.022076      47.022076      47.022076      1.1790486     -1385.2047     -427.23233      216.85355    
      6700   6700           295.97208     -1761.9218      22670.096      25342.01       6784.1051      18557.905      2968.9582      5858.5682      5246.0816      422.17638     -1245.228       15716.009     -10408.661     -773.09227      103982.43      47.024045      47.024045      47.024045      1.1789005     -1522.7338     -2187.1009     -1575.9306    
      6800   6800           301.75434     -1217.344       23669.883      25515.541      6916.6428      18598.898      3004.0606      5903.2687      5246.4387      422.19689     -1280.54        15711.534     -10408.061     -773.2669       103958.95      47.020505      47.020505      47.020505      1.1791668     -1313.9375     -1205.0047     -1133.09      
      6900   6900           302.48496     -429.42725      24927.782      25578.431      6933.3895      18645.041      3068.2562      5906.9668      5226.9159      442.82045     -1305.9611      15715.256     -10409.213     -773.76694      103891.76      47.010374      47.010374      47.010374      1.1799293     -1761.9338      530.76078     -57.108744    
      7000   7000           300.79683     -611.06802      24590.565      25515.566      6894.6953      18620.871      3068.6146      5827.7284      5278.3964      434.75211     -1286.4595      15705.777     -10407.937     -774.48722      103795.14      46.995796      46.995796      46.995796      1.1810277      110.90537     -1032.8882     -911.22123    
      7100   7100           294.00004     -40.265669      25364.252      25425.269      6738.9029      18686.366      3084.045       5863.3448      5227.3155      445.43964     -1229.3368      15701.219     -10405.661     -773.65936      103906.21      47.012553      47.012553      47.012553      1.1797653      1076.3955     -491.53812     -705.65434    
      7200   7200           296.57365     -991.64715      23876.525      25384.444      6797.8938      18586.55       3031.0555      5888.0602      5198.2736      430.19141     -1281.6154      15726.255     -10405.67      -770.98609      104266.49      47.066827      47.066827      47.066827      1.1756888     -841.4329      -892.94499     -1240.5636    
      7300   7300           298.14606     -2672.9843      21421.082      25499.112      6833.9358      18665.177      2975.8858      5863.3403      5369.6457      450.98928     -1295.044       15706.756     -10406.397     -768.44557      104611.2       47.118638      47.118638      47.118638      1.1718147     -2318.1643     -1721.892      -3978.8967    
      7400   7400           304.88532     -262.56299      25224.709      25625.539      6988.4093      18637.129      3075.1816      5896.1998      5133.1593      422.82656     -1211.4473      15729.243     -10408.033     -767.96294      104676.94      47.128507      47.128507      47.128507      1.1710787     -928.82799      338.53663     -197.39763    
      7500   7500           302.18532     -544.51427      24767.794      25598.402      6926.5213      18671.881      3024.6035      5846.6845      5303.8536      440.39741     -1248.9086      15715.714     -10410.464     -768.56411      104595.06      47.116215      47.116215      47.116215      1.1719955     -1557.3676      201.27006     -277.4453     
      7600   7600           298.98014     -1390.9968      23365.46       25485.911      6853.054       18632.857      3067.6011      5796.6104      5267.979       426.35418     -1235.2444      15717.973     -10408.417     -769.06877      104526.43      47.105907      47.105907      47.105907      1.172765      -314.882       -2901.5454     -956.56305    
      7700   7700           302.74852     -703.90063      24345.826      25417.833      6939.4308      18478.402      2988.472       5846.2741      5183.8718      426.47707     -1278.956       15719.772     -10407.509     -769.80548      104426.4       47.090876      47.090876      47.090876      1.1738885     -340.89963     -1779.5596      8.7573496    
      7800   7800           298.85765     -696.2749       24378.474      25438.27       6850.2463      18588.023      3048.0079      5863.4674      5175.3335      429.57398     -1232.9857      15709.133     -10404.506     -770.23956      104367.55      47.082028      47.082028      47.082028      1.1745504     -749.02422     -519.48458     -820.31592    
      7900   7900           307.55306     -983.6823       24139.991      25635.256      7049.5578      18585.699      2995.9844      5757.2895      5318.2296      434.99878     -1210.3784      15697.749     -10408.174     -771.26504      104228.78      47.061152      47.061152      47.061152      1.1761142     -243.88664     -2358.2739     -348.88633    
      8000   8000           304.44253     -1052.3818      24041.258      25644.091      6978.2599      18665.831      3048.6028      5813.3247      5351.03        451.07018     -1294.8203      15706.361     -10409.738     -769.75435      104433.33      47.091918      47.091918      47.091918      1.1738105     -622.26855     -1234.6252     -1300.2516    
      8100   8100           300.01317     -1127.4317      23807.525      25525.697      6876.7325      18648.964      2985.4113      5845.2271      5283.2558      442.84822     -1189.4738      15693.8       -10412.105     -769.29144      104496.18      47.101362      47.101362      47.101362      1.1731046      507.73683     -2946.898      -943.13402    
      8200   8200           298.39341     -1007.9186      23932.365      25470.558      6839.6053      18630.953      3027.6992      5824.8448      5244.1148      436.26135     -1199.5118      15707.037     -10409.492     -768.21326      104642.83      47.123387      47.123387      47.123387      1.1714605     -229.25998     -1084.3865     -1710.1094    
      8300   8300           298.43621     -1017.9975      23910.879      25463.658      6840.5864      18623.071      3063.7949      5816.4062      5219.6662      434.31122     -1204.697       15704.784     -10411.195     -768.60711      104589.21      47.115337      47.115337      47.115337      1.172061      -412.05211     -1332.018      -1309.9223    
      8400   8400           300.14042     -223.95095      25239.413      25581.052      6879.6493      18701.402      3072.5501      5879.0957      5262.8943      435.24519     -1247.7383      15707.052     -10407.696     -768.51566      104601.66      47.117205      47.117205      47.117205      1.1719216      963.59169     -317.33635     -1318.1082    
      8500   8500           303.945       -792.09531      24498.352      25706.208      6966.8558      18739.352      3006.5159      5943.1228      5258.0328      426.72844     -1199.1293      15713.968     -10409.887     -768.82838      104559.11      47.110816      47.110816      47.110816      1.1723985     -406.406       -721.92848     -1247.9514    
      8600   8600           301.86641     -1362.3932      23567.116      25645.557      6919.2115      18726.346      3029.1469      5928.8994      5287.0632      427.50985     -1274.8634      15733.01      -10404.42      -768.47881      104606.67      47.117958      47.117958      47.117958      1.1718654     -908.69693     -835.85865     -2342.624     
      8700   8700           298.83146     -976.1942       24052.822      25541.856      6849.6461      18692.21       3003.7048      5919.0179      5178.1757      437.6194      -1151.5638      15711.359     -10406.103     -768.59709      104590.58      47.115541      47.115541      47.115541      1.1720458     -260.42597     -2003.4399     -664.71669    
      8800   8800           300.91388     -712.80649      24441.764      25529.774      6897.3781      18632.396      3022.3016      5917.6214      5176.9488      439.60428     -1246.7935      15727.65      -10404.937     -768.0786       104661.18      47.126141      47.126141      47.126141      1.1712551     -631.60629     -544.68448     -962.12872    
      8900   8900           298.40432     -1784.1641      22787.968      25507.937      6839.8555      18668.081      3006.0346      5910.6614      5304.4083      427.92084     -1286.842       15713.044     -10407.146     -769.0207       104532.96      47.106889      47.106889      47.106889      1.1726917     -1509.6825     -2079.2424     -1763.5674    
      9000   9000           299.21248     -746.46575      24369.092      25502.537      6858.3796      18644.158      3047.8473      5861.3079      5231.5183      438.23609     -1246.6003      15717.444     -10405.595     -772.10524      104115.36      47.044075      47.044075      47.044075      1.1773954      234.61176     -2011.199      -462.81003    
      9100   9100           300.96329     -472.63868      24851.741      25565.893      6898.5107      18667.382      3033.1786      5865.1385      5288.8848      428.52198     -1261.7169      15719.992     -10406.618     -775.90106      103606.01      46.967234      46.967234      46.967234      1.1831837     -808.31996     -926.68461      317.08852    
      9200   9200           304.16664     -1005.7132      24092.332      25610.489      6971.9361      18638.553      3054.1833      5814.0927      5304.3594      437.30307     -1271.781       15707.545     -10407.15      -776.64868      103506.28      46.952158      46.952158      46.952158      1.1843238     -196.16804     -1603.5962     -1217.3754    
      9300   9300           304.72623     -850.45469      24249.787      25537.538      6984.7628      18552.775      3021.0547      5832.9312      5270.3154      436.457       -1311.3426      15708.446     -10405.086     -774.25965      103825.65      47.0004        47.0004        47.0004        1.1806807     -17.656637     -1574.6954     -959.01201    
      9400   9400           296.81586     -491.671        24669.405      25416.241      6803.4457      18612.795      3076.9048      5811.9936      5250.45        437.96988     -1258.5655      15704.606     -10410.563     -771.82062      104153.75      47.049857      47.049857      47.049857      1.1769614      20.078579     -1015.6804     -479.41123    
      9500   9500           300.68464     -211.76502      25092.604      25414.735      6892.1236      18522.612      3005.9796      5800.4272      5185.8018      446.39699     -1218.9439      15715.341     -10412.391     -770.70555      104304.44      47.072537      47.072537      47.072537      1.175261       643.92123     -174.00744     -1105.2088    
      9600   9600           302.8979      -1430.7644      23338.536      25518.192      6942.8547      18575.337      2966.2389      5798.0281      5325.3203      431.43361     -1269.115       15729.255     -10405.824     -769.56872      104458.53      47.095704      47.095704      47.095704      1.1735274     -1404.8943     -1245.0776     -1642.3214    
      9700   9700           301.77473     -849.96047      24301.594      25598.775      6917.1101      18681.665      3002.4899      5871.7851      5266.9855      442.30977     -1215.5898      15723.881     -10410.196     -768.18375      104646.85      47.123991      47.123991      47.123991      1.1714154     -910.00432     -390.88164     -1248.9954    
      9800   9800           300.66633     -2660.198       21524.67       25591.886      6891.704       18700.182      3077.5347      5793.8489      5341.714       446.70124     -1267.5123      15716.372     -10408.476     -766.80314      104835.27      47.152255      47.152255      47.152255      1.1693101     -2185.5503     -2762.3199     -3032.7239    
      9900   9900           302.15489     -67.086351      25449.237      25551.634      6925.8239      18625.81       3034.888       5777.8811      5292.132       442.65714     -1227.8467      15716.562     -10410.464     -768.0916       104659.41      47.125875      47.125875      47.125875      1.1712749     -511.20839      262.45089      47.498448    
     10000   10000          297.74987     -1238.8765      23599.184      25488.742      6824.8546      18663.888      2988.9435      5848.7751      5303.5668      445.9213      -1246.5155      15727         -10403.803     -768.66107      104581.87      47.114234      47.114234      47.114234      1.1721433     -728.97789     -1687.729      -1299.9226    
     10100   10100          297.26707     -1452.5248      23201.886      25413.052      6813.7881      18599.264      3009.1131      5755.8654      5324.3004      435.83456     -1228.9993      15713.659     -10410.51      -770.1394       104381.12      47.084069      47.084069      47.084069      1.1743977     -798.46264     -1415.6617     -2143.4501    
     10200   10200          292.07461     -413.38692      24667.556      25296.436      6694.7694      18601.667      3049.2818      5861.8612      5216.6115      436.28522     -1286.4675      15729.824     -10405.73      -770.64804      104312.23      47.073708      47.073708      47.073708      1.1751733      68.680417     -739.03878     -569.80239    
     10300   10300          296.97392     -1307.1942      23359.553      25345.072      6807.0687      18538.004      3000.4388      5762.3672      5297.1167      436.34656     -1277.7955      15725.129     -10405.6       -771.85046      104149.72      47.04925       47.04925       47.04925       1.1770069     -281.98709     -2342.1527     -1297.4429    
     10400   10400          298.98431     -586.59051      24615.496      25506.638      6853.1495      18653.488      3019.6823      5840.6834      5259.6657      440.73604     -1208.882       15712.882     -10411.279     -771.71241      104168.36      47.052056      47.052056      47.052056      1.1767964      425.26613     -1338.9608     -846.0769     
     10500   10500          299.55914     -879.59266      24230.595      25568.429      6866.3256      18702.103      3016.6673      5901.3564      5290.5033      447.95163     -1273.6697      15722.961     -10403.666     -770.80868      104290.49      47.070437      47.070437      47.070437      1.1754183     -246.25941     -1101.2017     -1291.3169    
     10600   10600          302.15425     -1384.4013      23452.31       25558.924      6925.8093      18633.114      3001.6199      5807.8851      5301.1002      449.26056     -1225.6947      15709.512     -10410.569     -770.44981      104339.06      47.077744      47.077744      47.077744      1.174871      -869.1332      -1060.6701     -2223.4007    
     10700   10700          297.43187     -133.95464      25270.786      25475.167      6817.5655      18657.601      3056.9177      5847.6024      5235.3974      440.54702     -1241.3487      15723.77      -10405.285     -768.39735      104617.76      47.119624      47.119624      47.119624      1.1717412     -540.46165     -399.17019      537.76793    
     10800   10800          298.67006     -2282.7774      21884.395      25373.382      6845.9466      18527.435      2958.313       5820.2286      5325.3934      423.41125     -1310.0865      15717.281     -10407.105     -767.06365      104799.66      47.146917      47.146917      47.146917      1.1697074     -1685.8316     -2410.7267     -2751.7738    
     10900   10900          298.74617     -1888.7755      22542.01       25428.685      6847.6912      18580.994      2946.2202      5863.7512      5277.5303      437.31084     -1266.1111      15727.412     -10405.12      -767.09589      104795.26      47.146256      47.146256      47.146256      1.1697566     -1807.0022     -1641.4674     -2217.8568    
     11000   11000          303.94779     -1406.7546      23456.956      25601.823      6966.9197      18634.903      3003.8478      5841.1773      5305.5993      424.35203     -1247.3558      15708.78      -10401.497     -768.92717      104545.68      47.108799      47.108799      47.108799      1.1725491     -2363.9345     -351.96079     -1504.3685    
     11100   11100          304.51398     -1577.3624      23191.775      25592.005      6979.8977      18612.107      2992.3011      5824.3064      5358.0318      437.13585     -1299.186       15703.438     -10403.92      -770.45267      104338.68      47.077686      47.077686      47.077686      1.1748754     -2493.8869     -471.9095      -1766.2909    
     11200   11200          301.12203      555.49252      26353.115      25509.856      6902.1492      18607.707      3075.9916      5864.6482      5191.9226      430.79913     -1258.3553      15708.66      -10405.959     -772.2973       104089.46      47.040175      47.040175      47.040175      1.1776883      7.0936162      1116.2685      543.11539    
     11300   11300          298.25301     -908.10742      24054.122      25434.445      6836.3872      18598.058      3126.6974      5778.511       5229.5071      424.54983     -1256.4389      15702.92      -10407.688     -771.30062      104223.97      47.060428      47.060428      47.060428      1.1761684     -215.64915     -1815.201      -693.47211    
     11400   11400          297.87908     -1032.4845      23818.943      25391.514      6827.8162      18563.698      2996.1877      5910.3791      5178.4035      419.8836      -1248.5658      15715.137     -10407.727     -769.73354      104436.16      47.092343      47.092343      47.092343      1.1737787      1005.3551     -2093.6911     -2009.1174    
     11500   11500          293.92586     -1542.3268      23036.848      25389.845      6737.2027      18652.642      2976.0462      5865.5118      5306.054       439.68537     -1234.1993      15709.493     -10409.949     -768.46183      104608.99      47.118306      47.118306      47.118306      1.1718395     -1473.6386     -2175.1202     -978.22162    
     11600   11600          299.77146     -941.44956      24066.341      25501.019      6871.1922      18629.826      2957.7527      5930.951       5263.2546      442.02201     -1263.9471      15711.711     -10411.918     -769.32511      104491.6       47.100675      47.100675      47.100675      1.1731559      80.313569     -1972.044      -932.61825    
     11700   11700          300.88576     -1263.6037      23692.948      25617.402      6896.7337      18720.669      3081.2302      5836.3997      5304.48        463.84661     -1258.1166      15698.32      -10405.491     -769.78691      104428.92      47.091254      47.091254      47.091254      1.1738601     -431.58073     -2188.8828     -1170.3475    
     11800   11800          302.43163      431.20838      26281.468      25625.779      6932.1672      18693.612      3052.4777      5905.1297      5177.3225      442.63461     -1183.0581      15703.942     -10404.836     -771.00392      104264.08      47.066464      47.066464      47.066464      1.175716       714.80542      212.66762      366.1521     
     11900   11900          298.45213     -1196.5728      23685.348      25505.371      6840.9512      18664.419      3065.2799      5896.8293      5185.8689      428.74902     -1233.6457      15725.976     -10404.638     -770.77859      104294.56      47.07105       47.07105       47.07105       1.1753724     -711.07047     -538.89471     -2339.7534    
     12000   12000          298.48122     -1079.7341      23791.947      25433.709      6841.6182      18592.091      2999.23        5792.8623      5267.5644      433.46803     -1199.2345      15708.616     -10410.415     -771.03439      104259.96      47.065844      47.065844      47.065844      1.1757624     -2163.3271      372.66286     -1448.5382    
     12100   12100          294.67003     -832.97111      24189.266      25455.796      6754.2602      18701.536      3048.946       5922.0569      5253.8354      421.08916     -1262.9605      15725.078     -10406.509     -771.04849      104258.05      47.065557      47.065557      47.065557      1.1757839     -693.37528     -1393.0148     -412.52325    
     12200   12200          302.24777     -1803.413       22761.568      25505.453      6927.9529      18577.5        3001.396       5833.9128      5300.0037      417.12824     -1282.9289      15715.841     -10407.852     -770.54221      104326.55      47.075863      47.075863      47.075863      1.1750119     -2518.4644     -1660.2523     -1231.5223    
     12300   12300          300.93275     -1112.255       23863.591      25559.481      6897.8107      18661.67       3077.6828      5977.0072      5186.3379      428.62333     -1309.4484      15707.821     -10406.354     -768.90714      104548.4       47.109208      47.109208      47.109208      1.1725186     -1129.4573     -1987.4643     -219.84335    
     12400   12400          300.45794      113.72509      25799.103      25625.766      6886.9274      18738.838      3066.0199      5974.8267      5118.8853      436.84841     -1183.854       15729.044     -10402.932     -769.18514      104510.62      47.103532      47.103532      47.103532      1.1729425     -506.8718      -876.70514      1724.7522    
     12500   12500          304.44497     -1961.8575      22695.005      25690.322      6978.3158      18712.006      2999.4357      5910.8056      5333.6553      429.21296     -1266.9829      15711.356     -10405.476     -767.87728      104688.62      47.130259      47.130259      47.130259      1.1709481     -1467.4166     -3124.3164     -1293.8396    
     12600   12600          300.01961     -1105.44        23916.375      25602.649      6876.8801      18725.769      2926.1946      6015.0649      5222.7458      437.82633     -1206.8839      15736.353     -10405.532     -768.55358      104596.5       47.116431      47.116431      47.116431      1.1719794     -127.62533     -2336.296      -852.39861    
     12700   12700          299.92672     -897.98808      24114.995      25484.259      6874.7511      18609.508      3026.4202      5859.4231      5218.3696      431.60587     -1240.4341      15719.667     -10405.543     -768.86563      104554.05      47.110055      47.110055      47.110055      1.1724553     -1468.3968     -668.51697     -557.05049    
     12800   12800          299.99575     -1713.8274      22849.275      25458.666      6876.3333      18582.332      3038.0061      5745.902       5279.5018      440.63808     -1241.8671      15726.553     -10406.401     -770.0078       104398.96      47.086751      47.086751      47.086751      1.174197      -1510.5816     -1342.4163     -2288.4844    
     12900   12900          297.11306      412.25372      26107.667      25481.552      6810.2579      18671.294      3108.1559      5780.2511      5200.5164      436.76626     -1163.9578      15714.47      -10404.908     -771.92901      104139.13      47.047655      47.047655      47.047655      1.1771267      1363.3298     -765.84778      639.27918    
     13000   13000          302.8606      -1149.0398      23907.188      25651.243      6941.9998      18709.243      3081.0835      5825.5825      5334.7756      441.2102      -1277.1209      15706.621     -10402.909     -772.39981      104075.65      47.038094      47.038094      47.038094      1.1778446     -1127.9578     -957.63179     -1361.5298    
     13100   13100          307.28628     -1220.3003      23820.286      25672.146      7043.4426      18628.703      3006.7378      5842.5096      5267.7216      446.35123     -1242.7585      15712.748     -10404.607     -772.54878      104055.58      47.03507       47.03507       47.03507       1.1780718      183.35761     -2122.5891     -1721.6694    
     13200   13200          304.74343     -43.324287      25498.994      25564.866      6985.157       18579.709      2993.782       5844.2523      5218.949       440.68953     -1243.6903      15732.806     -10407.08      -771.08034      104253.75      47.064909      47.064909      47.064909      1.1758325      1000.3479     -367.16723     -763.15352    
     13300   13300          302.21383     -1449.5426      23307.615      25516.154      6927.1749      18588.979      3013.9992      5783.4144      5254.7834      445.6141      -1214.6794      15710.783     -10404.935     -769.47227      104471.62      47.097672      47.097672      47.097672      1.1733803     -452.20818     -2862.0379     -1034.3817    
     13400   13400          301.09386     -1565.2399      23096.038      25483.081      6901.5036      18581.577      3039.2307      5755.5005      5336.363       438.95089     -1290.9982      15712.908     -10410.378     -768.75492      104569.1       47.112317      47.112317      47.112317      1.1722864     -803.80214     -2561.5602     -1330.3572    
     13500   13500          294.1074      -688.32561      24356.406      25403.556      6741.3639      18662.192      2999.5547      5917.6699      5240.4427      445.25448     -1244.7181      15709.487     -10405.499     -770.641        104313.18      47.073851      47.073851      47.073851      1.1751625      62.757696     -1005.0003     -1122.7343    
     13600   13600          296.12037     -1677.0703      22774.555      25322.04       6787.504       18534.536      3044.8036      5791.5097      5284.7466      430.25204     -1314.4521      15707.448     -10409.773     -771.80379      104156.02      47.050199      47.050199      47.050199      1.1769357     -802.61375     -2536.3947     -1692.2025    
     13700   13700          297.40187     -1032.7089      23777.252      25343.928      6816.8778      18527.05       2981.2761      5839.3153      5183.0341      446.4252      -1236.6664      15714.619     -10400.953     -772.79792      104022.04      47.030015      47.030015      47.030015      1.1784517     -1681.922      -1016.8134     -399.39125    
     13800   13800          299.61425      683.74596      26532.415      25495.476      6867.5887      18627.887      3091.3437      5812.6482      5166.4355      447.52874     -1208.2633      15721.613     -10403.418     -773.05189      103987.86      47.024864      47.024864      47.024864      1.178839       233.10258      1202.441       615.6943     
     13900   13900          297.86708     -1747.1082      22898.944      25556.069      6827.541       18728.528      3037.4015      5858.6436      5315.5164      445.78591     -1231.6693      15709.515     -10406.664     -770.85905      104283.67      47.069412      47.069412      47.069412      1.1754951     -2148.9075     -1426.2387     -1666.1783    
     14000   14000          303.10013     -1210.3529      23733.884      25577.063      6947.4902      18629.573      3051.5438      5802.027       5306.2509      439.53041     -1275.699       15712.687     -10406.767     -769.85979      104419.03      47.089768      47.089768      47.089768      1.1739713     -1375.1012     -1349.6175     -906.34018    
     14100   14100          303.319       -625.58582      24591.37       25545.11       6952.507       18592.603      3006.51        5871.8368      5194.9563      441.56347     -1233.6689      15719.069     -10407.663     -768.99569      104536.36      47.107399      47.107399      47.107399      1.1726536      194.51334     -879.40483     -1191.866     
     14200   14200          294.93921     -2033.9552      22295.724      25401.501      6760.43        18641.071      2996.7591      5819.8156      5297.886       453.26735     -1225.1885      15705.919     -10407.388     -767.78251      104701.54      47.132198      47.132198      47.132198      1.1708036     -2164.9422     -1964.5501     -1972.3733    
     14300   14300          299.01744     -252.20595      25000.715      25385.77       6853.909       18531.861      3003.3416      5780.866       5175.665       444.66635     -1194.2841      15728.333     -10406.727     -767.89001      104686.88      47.129998      47.129998      47.129998      1.1709675     -32.145162     -370.24679     -354.2259     
     14400   14400          299.38862     -896.81386      24139.382      25509.283      6862.417       18646.866      3028.0714      5812.9478      5261.9909      440.56401     -1210.4701      15721.318     -10407.556     -767.50317      104739.65      47.137915      47.137915      47.137915      1.1703776     -690.16268     -938.03536     -1062.2436    
     14500   14500          302.70977     -1646.6553      23073.949      25585.594      6938.5426      18647.051      3033.5648      5821.021       5278.2033      428.70456     -1231.3677      15723.152     -10406.227     -768.61998      104587.46      47.115074      47.115074      47.115074      1.1720807     -1615.9042     -1931.4066     -1392.6552    
     14600   14600          298.48323     -1197.8486      23746.257      25572.434      6841.6642      18730.769      3030.723       5877.3331      5288.2573      441.00897     -1210.1114      15713.805     -10410.246     -768.99983      104535.8       47.107315      47.107315      47.107315      1.1726599      496.25227     -3187.7072     -902.09078    
     14700   14700          297.782       -1553.3857      23149.243      25515.965      6825.591       18690.374      3034.8717      5924.3765      5221.0907      462.9164      -1261.6036      15717.044     -10408.321     -769.48312      104470.15      47.097451      47.097451      47.097451      1.1733969     -1346.1539     -1865.4969     -1448.5064    
     14800   14800          297.8829      -663.28162      24414.912      25423.638      6827.9038      18595.734      3036.5231      5853.3783      5193.2598      439.65605     -1227.3008      15705.814     -10405.596     -770.88935      104279.57      47.068795      47.068795      47.068795      1.1755413      16.499126     -337.99949     -1668.3445    
     14900   14900          294.10556      69.409775      25394.209      25288.714      6741.3218      18547.392      3060.0992      5863.7211      5126.3558      427.86312     -1232.0651      15709.647     -10408.229     -771.35989      104215.96      47.059223      47.059223      47.059223      1.1762588      1072.9136     -394.61264     -470.07168    
     15000   15000          292.48919     -1592.9494      22855.553      25277.445      6704.2721      18573.173      3039.9786      5776.3608      5235.1208      431.92095     -1218.4849      15714.937     -10406.66      -771.10654      104250.2       47.064376      47.064376      47.064376      1.1758725     -1255.6148     -2245.637      -1277.5964    
     15100   15100          303.2885      -793.92993      24277.448      25487.448      6951.8079      18535.64       3024.7405      5861.3999      5158.3138      435.39335     -1258.9231      15722.007     -10407.292     -769.24415      104502.6       47.102327      47.102327      47.102327      1.1730325     -172.04041     -932.75243     -1276.997     
     15200   15200          295.60156     -763.45252      24367.832      25532.234      6775.6121      18756.622      3046.9599      5916.6667      5183.7036      442.99657     -1155.3774      15723.988     -10402.316     -768.68124      104579.13      47.113822      47.113822      47.113822      1.1721741     -1192.8935     -257.22228     -840.24183    
     15300   15300          299.85329     -1741.912       22892.278      25552.258      6873.068       18679.19       3027.9229      5873.6313      5231.4785      431.94314     -1201.5729      15722.871     -10407.084     -767.74144      104707.14      47.133038      47.133038      47.133038      1.170741      -2171.8521     -1689.8894     -1363.9946    
     15400   15400          298.47962     -1465.4971      23301.896      25541.432      6841.5814      18699.851      2944.5845      5949.3777      5297.9333      434.7096      -1241.7231      15722.857     -10407.888     -767.17425      104784.56      47.144651      47.144651      47.144651      1.1698761     -1357.3636     -1335.0223     -1704.1055    
     15500   15500          297.95655     -515.16022      24687.875      25475.377      6829.5918      18645.785      3017.8291      5893.5939      5188.8621      445.57492     -1209.828       15715.881     -10406.129     -766.93376      104817.41      47.149578      47.149578      47.149578      1.1695093      360.91021     -919.38254     -987.00833    
     15600   15600          294.70901     -2396.7721      21718.478      25378.577      6755.1537      18623.423      2935.2404      5850.7034      5350.996       428.2113      -1242.8452      15709.279     -10408.162     -767.71689      104710.49      47.133541      47.133541      47.133541      1.1707035     -2951.7583     -1429.5322     -2809.0258    
     15700   15700          298.46959      354.94782      25934.143      25393.778      6841.3515      18552.427      3035.1371      5857.7484      5097.3632      423.07955     -1180.019       15725.852     -10406.734     -770.09573      104387.04      47.084959      47.084959      47.084959      1.1743311      975.67203      574.80752     -485.6361     
     15800   15800          301.34385     -1969.9532      22568.305      25570.424      6907.2336      18663.191      3036.5708      5834.7726      5336.434       443.9896      -1284.2151      15704.564     -10408.926     -769.2988       104495.17      47.101212      47.101212      47.101212      1.1731158     -2255.5514     -1872.1638     -1782.1443    
     15900   15900          302.17398     -373.90256      25011.749      25582.395      6926.2615      18656.134      3007.7616      5857.4824      5250.9223      447.00306     -1214.3053      15714.415     -10407.145     -768.1717       104648.5       47.124237      47.124237      47.124237      1.1713971     -391.73025     -1402.3191      672.34167    
     16000   16000          300.01258     -1548.5519      23162.49       25533.674      6876.7191      18656.955      2963.321       5960.3476      5259.3072      444.59557     -1277.1069      15716.095     -10409.605     -765.64543      104993.79      47.176009      47.176009      47.176009      1.1675447     -1335.0072     -884.19068     -2426.4579    
     16100   16100          298.39643     -671.88305      24438.44       25466.748      6839.6747      18627.074      3087.6312      5945.3237      5047.4349      417.07728     -1162.5485      15704.207     -10412.052     -766.01531      104943.09      47.168415      47.168415      47.168415      1.1681088     -1131.1791     -809.09917     -75.370889    
     16200   16200          298.69985     -41.543446      25360.465      25423.957      6846.6294      18577.327      3071.134       5926.0193      5087.996       432.45774     -1233.0573      15700.907     -10408.129     -767.10166      104794.47      47.146138      47.146138      47.146138      1.1697654      84.167088     -103.52664     -105.27079    
     16300   16300          298.16555     -1095.4164      23754.398      25423.869      6834.3824      18589.486      2988.9448      5907.476       5190.4319      438.04563     -1222.3865      15693.698     -10406.723     -769.25001      104501.8       47.102207      47.102207      47.102207      1.1730414     -478.65186     -1466.2755     -1341.3218    
     16400   16400          300.75786     -806.79256      24291.674      25518.724      6893.8019      18624.923      3003.446       5875.0013      5238.2013      434.95058     -1237.494       15714.872     -10404.054     -770.84397      104285.71      47.069719      47.069719      47.069719      1.1754721     -133.14366     -1539.4087     -747.82531    
     16500   16500          303.5924      -1555.7845      23250.289      25619.925      6958.7737      18661.152      3044.2088      5878.4357      5233.1855      435.3522      -1230.5948      15707.254     -10406.689     -769.72394      104437.46      47.092538      47.092538      47.092538      1.1737641     -1863.8196     -1203.1504     -1600.3834    
     16600   16600          304.77324      288.57753      26065.434      25625.315      6985.8403      18639.474      3029.8914      5902.5634      5159.5695      428.64889     -1180.7196      15710.042     -10410.521     -768.70339      104576.11      47.11337       47.11337       47.11337       1.1722079      735.7641       290.36253     -160.39404    
     16700   16700          301.16414     -1157.0838      23727.111      25496.635      6903.1145      18593.52       2984.5515      5838.0302      5254.5212      431.50829     -1203.9194      15699.581     -10410.753     -766.61222      104861.38      47.156169      47.156169      47.156169      1.169019      -996.70973     -1023.2423     -1451.2995    
     16800   16800          300.56733     -843.68582      24107.249      25398.081      6889.4346      18508.646      2962.4079      5831.0339      5218.5092      435.79295     -1240.6766      15709.81      -10408.231     -766.26357      104909.09      47.16332       47.16332       47.16332       1.1684873     -898.60881     -905.19294     -727.25571    
     16900   16900          301.52493     -887.66626      24080.547      25437.273      6911.3843      18525.889      2991.1923      5825.165       5193.9758      423.6083      -1214.9302      15713.742     -10406.864     -767.05166      104801.3       47.147162      47.147162      47.147162      1.1696891     -436.47421     -1084.0867     -1142.4379    
     17000   17000          300.20698     -2045.6849      22396.563      25516.57       6881.1749      18635.395      2948.0683      5802.7831      5350.2457      436.25055     -1200.814       15706.143     -10407.282     -768.68832      104578.16      47.113677      47.113677      47.113677      1.1721849     -83.075315     -3449.9233     -2604.0561    
     17100   17100          297.24701     -628.01914      24604.063      25561.528      6813.3282      18748.199      3052.6776      5930.8821      5278.9573      447.64074     -1265.418       15707.575     -10404.115     -768.98395      104537.96      47.107639      47.107639      47.107639      1.1726357      499.73254     -1156.0444     -1227.7455    
     17200   17200          301.96206     -522.50209      24750.288      25545.749      6921.4039      18624.345      3030.8577      5834.4271      5266.1001      452.84157     -1255.8464      15703.3       -10407.334     -770.08079      104389.06      47.085263      47.085263      47.085263      1.1743083      448.63007     -1601.1706     -414.96574    
     17300   17300          299.00128     -1124.7103      23794.492      25506.108      6853.5387      18652.569      3018.4291      5895.249       5232.0386      440.34343     -1235.9085      15712.201     -10409.783     -770.37382      104349.36      47.079292      47.079292      47.079292      1.1747551     -889.39275     -1353.2694     -1131.4686    
     17400   17400          295.4321      -729.21716      24278.394      25386.927      6771.7279      18615.199      3005.6734      5828.8983      5284.9836      448.12976     -1255.7327      15716.943     -10413.696     -771.21534      104235.5       47.062162      47.062162      47.062162      1.1760384     -672.73716     -1161.8626     -353.05176    
     17500   17500          295.26412     -492.93366      24509.11       25258.31       6767.8775      18490.433      2997.4946      5789.1249      5224.6237      434.56612     -1252.4496      15708.788     -10411.714     -771.36043      104215.89      47.059212      47.059212      47.059212      1.1762596      817.35044     -1965.1663     -330.98507    
     17600   17600          298.08233     -849.74762      24112.673      25404.666      6832.475       18572.191      3054.5342      5796.4813      5275.0417      433.57386     -1292.4871      15715.299     -10410.252     -771.0754       104254.41      47.065009      47.065009      47.065009      1.175825       354.72561     -1591.8269     -1312.1415    
     17700   17700          299.96973     -675.0342       24494.551      25520.821      6875.7369      18645.084      3033.8339      5890.8891      5226.4867      437.97045     -1241.5693      15706.895     -10409.422     -771.13723      104246.05      47.063751      47.063751      47.063751      1.1759193      262.92269     -1123.5207     -1164.5045    
     17800   17800          303.12386     -695.22837      24503.774      25559.738      6948.0341      18611.704      3046.4885      5805.8721      5245.701       450.15935     -1242.0126      15713.41      -10407.914     -771.87249      104146.75      47.048803      47.048803      47.048803      1.1770405     -290.85827     -1195.494      -599.33286    
     17900   17900          299.26962     -1675.0095      22975.26       25523.11       6859.6894      18663.42       3050.0442      5839.7686      5329.207       431.73784     -1288.2399      15709.9       -10408.997     -770.74487      104299.12      47.071736      47.071736      47.071736      1.1753209     -1058.9263     -2541.2051     -1424.8972    
     18000   18000          295.86842     -1602.8135      22964.482      25406.271      6781.729       18624.542      3007.1526      5801.8439      5291.426       450.18789     -1239.9535      15721.447     -10407.562     -769.55917      104459.82      47.095899      47.095899      47.095899      1.1735128     -1191.2797     -1943.4346     -1673.7262    
     18100   18100          294.87968     -2103.6673      22133.972      25343.848      6759.0656      18584.782      2947.2255      5835.0605      5295.4612      455.78983     -1264.7253      15721.83      -10405.859     -768.3446       104624.95      47.120702      47.120702      47.120702      1.1716607     -2547.098      -1608.0205     -2155.8833    
     18200   18200          297.94993     -68.69107       25374.394      25479.267      6829.4403      18649.826      3136.8204      5832.1959      5182.1719      436.63678     -1243.6043      15713.178     -10407.572     -767.89959      104685.58      47.129802      47.129802      47.129802      1.1709821      706.86113     -894.84232     -18.092018    
     18300   18300          305.41986     -771.4602       24434.07       25610.768      7000.6616      18610.107      3062.6513      5841.4309      5163.0751      432.70943     -1202.3925      15720.24      -10407.608     -768.62663      104586.56      47.114938      47.114938      47.114938      1.1720908     -452.88717     -566.02291     -1295.4705    
     18400   18400          300.4503      -1613.6102      23133.373      25593.268      6886.7521      18706.516      3055.8503      5860.5668      5316.7439      458.56744     -1311.4896      15734.25      -10407.973     -769.04033      104530.3       47.106488      47.106488      47.106488      1.1727217     -757.89882     -2470.7765     -1612.1553    
     18500   18500          297.774       -963.32837      24030.293      25494.643      6825.4076      18669.235      2980.9452      5833.3183      5329.3779      446.33256     -1219.7755      15708.936     -10409.899     -771.25264      104230.45      47.061404      47.061404      47.061404      1.1760952     -595.21602     -1950.8102     -343.95893    
     18600   18600          299.48362     -1812.0863      22680.149      25431.014      6864.5945      18566.42       3029.499       5803.9757      5298.8388      427.2019      -1312.0716      15724.754     -10405.778     -772.28344      104091.33      47.040456      47.040456      47.040456      1.1776671     -1210.1615     -3273.8727     -952.22458    
     18700   18700          298.52565     -422.13981      24769.978      25409.902      6842.6365      18567.265      2991.5767      5847.18        5215.3063      445.96004     -1246.5793      15722.154     -10408.332     -773.38353      103943.27      47.018142      47.018142      47.018142      1.1793447      163.29675     -733.34223     -696.37393    
     18800   18800          301.99588     -626.24794      24533.376      25482.283      6922.1792      18560.103      3060.3144      5865.8853      5165.386       436.81008     -1271.5554      15711.815     -10408.552     -773.73082      103896.62      47.011106      47.011106      47.011106      1.1798743      488.79122     -1439.2636     -928.27147    
     18900   18900          299.21942     -1174.5878      23817.8        25599.186      6858.5387      18740.648      3060.3973      5834.3102      5362.4858      449.74959     -1283.7418      15724.292     -10406.846     -773.02674      103991.24      47.025374      47.025374      47.025374      1.1788006      8.6484414     -2365.3378     -1167.0741    
     19000   19000          301.82175     -259.85049      25228.867      25623.717      6918.1878      18705.529      3023.0831      5867.5538      5258.781       459.34962     -1227.0426      15731.802     -10407.998     -771.54097      104191.5       47.055541      47.055541      47.055541      1.1765349      344.44145     -84.966547     -1039.0264    
     19100   19100          298.60006     -1198.7752      23715.426      25541.115      6844.3421      18696.773      3055.776       5861.5598      5274.5566      437.508       -1263.4069      15736.887     -10406.108     -769.80034      104427.09      47.09098       47.09098       47.09098       1.1738806     -1413.6612     -1889.439      -293.22529    
     19200   19200          296.62253     -863.76202      24089.15       25407.499      6799.0142      18608.485      3091.7136      5847.4324      5153.8497      427.89416     -1241.7322      15732.905     -10403.578     -768.12331      104655.09      47.125226      47.125226      47.125226      1.1713233     -2361.131      -339.44322      109.28811    
     19300   19300          297.8282      -1620.5473      22944.407      25416.529      6826.65        18589.879      2990.1421      5807.1441      5328.5868      436.14393     -1292.5675      15726.168     -10405.739     -768.52682      104600.14      47.116977      47.116977      47.116977      1.1719386     -1710.6804     -2043.3727     -1107.5889    
     19400   19400          300.91116     -1049.5449      23875.416      25471.528      6897.3158      18574.212      3024.868       5756.9122      5259.642       427.11769     -1211.6871      15721.455     -10404.095     -770.91189      104276.52      47.068337      47.068337      47.068337      1.1755756     -1887.7462     -1283.4058      22.51736     
     19500   19500          300.82237     -1169.1403      23741.658      25516.916      6895.2806      18621.635      3057.5755      5758.6831      5328.8441      442.62565     -1281.7639      15722.256     -10406.585     -772.09773      104116.37      47.044227      47.044227      47.044227      1.1773839     -1697.2418     -640.7239      -1169.4552    
     19600   19600          301.02153     -777.35461      24337.357      25517.632      6899.8456      18617.787      3031.128       5827.7443      5211.6241      435.04192     -1188.3618      15711.096     -10410.485     -772.1525       104108.98      47.043115      47.043115      47.043115      1.1774675      87.357195     -1778.6089     -640.8121     
     19700   19700          299.61915     -610.38905      24523.045      25451.174      6867.701       18583.473      3109.2848      5839.5174      5159.226       423.41209     -1270.1809      15726.583     -10404.369     -771.01983      104261.93      47.06614       47.06614       47.06614       1.1757402      155.05888     -1713.9485     -272.27754    
     19800   19800          296.13527     -1235.985       23416.892      25296.477      6787.8454      18508.632      3000.205       5792.0757      5240.7161      427.36296     -1262.9585      15719.819     -10408.589     -770.93591      104273.28      47.067848      47.067848      47.067848      1.1756123      755.08261     -1963.2363     -2499.8014    
     19900   19900          296.58615     -1354.3363      23201.338      25260.039      6798.1804      18461.859      2919.225       5813.3212      5244.0492      442.92906     -1258.0812      15709.353     -10408.937     -771.25923      104229.56      47.06127       47.06127       47.06127       1.1761053     -1226.8342     -946.85426     -1889.3203    
     20000   20000          300.58463     -1655.3492      22972.017      25487.794      6889.8313      18597.963      2981.6396      5829.9921      5291.9692      441.89343     -1252.4544      15711.462     -10406.539     -771.40879      104209.36      47.058228      47.058228      47.058228      1.1763334     -1969.9509     -1270.5928     -1725.504     
     20100   20100          302.38565     -860.31584      24231.698      25539.687      6931.1133      18608.574      3020.8268      5955.861       5170.0697      423.79335     -1262.2413      15707.996     -10407.731     -771.11847      104248.59      47.064133      47.064133      47.064133      1.1758907     -854.56378     -1505.7954     -220.58837    
     20200   20200          301.49724     -729.95827      24410.243      25519.746      6910.7496      18608.996      3084.9398      5851.9895      5173.1693      430.85335     -1228.8538      15707.932     -10411.033     -771.32362      104220.86      47.05996       47.05996       47.05996       1.1762035     -1230.1473     -892.77854     -66.948951    
     20300   20300          299.40722     -1074.3712      23814.702      25447.387      6862.8433      18584.543      3040.9465      5825.5329      5249.484       430.37776     -1281.3481      15728.283     -10408.733     -771.47024      104201.05      47.056979      47.056979      47.056979      1.1764271     -999.11627     -1398.8804     -825.11701    
     20400   20400          298.91252      50.477847      25498.356      25421.651      6851.5041      18570.147      3075.4547      5844.8735      5137.3876      431.72197     -1219.6822      15707.892     -10407.501     -771.51119      104195.53      47.056146      47.056146      47.056146      1.1764895     -150.81817      449.16714     -146.91543    
     20500   20500          300.60267     -1670.5572      22951.565      25489.071      6890.2447      18598.826      2991.2323      5870.7743      5256.1557      429.3942      -1248.2196      15709.347     -10409.858     -771.82958      104152.54      47.049675      47.049675      47.049675      1.176975      -1456.4726     -1228.423      -2326.776     
     20600   20600          303.08391     -665.82284      24597.834      25609.415      6947.1184      18662.297      3093.2004      5868.7245      5233.8301      446.75198     -1292.4723      15717.74      -10405.478     -771.65845      104175.64      47.053153      47.053153      47.053153      1.1767141     -577.9059      -1023.1936     -396.36901    
     20700   20700          305.77649     -663.109        24623.324      25631.341      7008.8361      18622.505      3041.9537      5861.3738      5241.2229      423.33838     -1240.2824      15705.284     -10410.385     -771.23023      104233.48      47.06186       47.06186       47.06186       1.1760611     -937.57775     -391.87676     -659.87248    
     20800   20800          298.66151     -610.52609      24548.538      25478.227      6845.7506      18632.477      3078.2083      5781.5097      5292.3024      425.52069     -1262.09        15722.283     -10405.258     -769.89889      104413.73      47.088971      47.088971      47.088971      1.1740309      430.47134     -1370.7178     -891.33181    
     20900   20900          297.47831     -768.81292      24228.849      25401.103      6818.6299      18582.473      3029.9137      5860.2588      5228.4491      445.05894     -1287.9751      15715.332     -10408.565     -768.89394      104550.2       47.109477      47.109477      47.109477      1.1724984     -588.76094     -1235.4078     -482.27004    
     21000   21000          301.46882     -1774.3469      22759.949      25465.429      6910.0983      18555.331      2954.8336      5829.9001      5321.208       431.28176     -1282.8999      15709.03      -10408.023     -768.88503      104551.41      47.109659      47.109659      47.109659      1.1724848      127.80947     -2959.9814     -2490.8688    
     21100   21100          299.13977     -490.42843      24793.546      25539.793      6856.713       18683.08       2996.0542      5851.8523      5249.1052      450.87862     -1160.3776      15706.568     -10411.001     -770.47763      104335.3       47.077178      47.077178      47.077178      1.1749134      1114.4506     -1209.5903     -1376.1457    
     21200   21200          300.89702     -981.16133      24065.458      25558.451      6896.9917      18661.459      3026.2084      5876.3512      5295.0488      447.04266     -1286.5987      15711.863     -10408.456     -770.45963      104337.74      47.077544      47.077544      47.077544      1.174886      -1325.03       -1447.4473     -171.00667    
[...]
    495200   495200         299.88815     -1986.057       22472.535      25505.428      6873.8669      18631.561      2959.4613      5799.0601      5313.9653      445.71017     -1204.9134      15727.688     -10409.411     -767.71822      104710.31      47.133514      47.133514      47.133514      1.1707056     -3245.0599     -1356.4482     -1356.6628    
    495300   495300         295.72488     -281.29527      25087.687      25516.598      6778.4389      18738.159      3059.815       5843.8192      5287.8911      438.65819     -1213.2287      15722.71      -10401.506     -768.88823      104550.97      47.109594      47.109594      47.109594      1.1724897     -154.31427      285.8533      -975.42482    
    495400   495400         302.45919     -1787.1174      22854.14       25575.069      6932.7988      18642.27       2975.5944      5831.4974      5352.8311      449.76554     -1289.7676      15722.549     -10400.2       -770.02185      104397.05      47.086464      47.086464      47.086464      1.1742184     -1354.6341     -2159.4709     -1847.2472    
    495500   495500         301.95804      89.483542      25767.931      25631.864      6921.3117      18710.553      3004.5516      5872.375       5261.7209      453.02672     -1206.5085      15724.519     -10399.132     -771.00566      104263.84      47.066428      47.066428      47.066428      1.1757186      1171.7176     -533.55256     -369.71438    
    495600   495600         303.04931     -917.9726       24224.653      25619.999      6946.3253      18673.674      3002.5691      5809.3002      5329.1882      442.06696     -1230.5252      15724.414     -10403.34      -771.28545      104226.02      47.060736      47.060736      47.060736      1.1761453     -922.59107     -1296.2647     -535.06201    
    495700   495700         300.74057     -1551.9953      23137.674      25499.7        6893.4056      18606.294      2946.1064      5859.1296      5284.631       430.97388     -1211.9554      15702.575     -10405.166     -770.32301      104356.24      47.080327      47.080327      47.080327      1.1746776     -1508.1913     -1607.9658     -1539.8289    
    495800   495800         295.97056     -1042.6207      23827.24       25415.353      6784.0701      18631.283      3020.401       5888.3426      5215.2286      419.12641     -1200.5304      15698.275     -10409.56      -769.68316      104442.99      47.09337       47.09337       47.09337       1.1737019     -223.36942     -1127.1582     -1777.3344    
    495900   495900         297.06377     -1024.4613      23879.329      25443.274      6809.128       18634.146      3037.8972      5818.7301      5257.6396      434.14754     -1213.2151      15703.046     -10404.099     -767.96484      104676.68      47.128468      47.128468      47.128468      1.1710816     -765.51391     -1003.4451     -1304.4249    
    496000   496000         298.44787     -1188.7599      23770.357      25588.994      6840.8536      18748.14       3065.6027      5835.5932      5283.3163      433.02161     -1175.9083      15712.067     -10405.552     -766.329        104900.13      47.161978      47.161978      47.161978      1.1685871     -485.28302     -1792.7004     -1288.2964    
    496100   496100         304.75985     -206.5704       25375.04       25691.752      6985.5334      18706.218      3061.8923      5951.5793      5133.7287      441.38738     -1201.0532      15721.594     -10402.91      -764.66551      105128.34      47.196153      47.196153      47.196153      1.1660504      1221.1132     -770.52616     -1070.2982    
    496200   496200         300.12367     -2577.8572      21667.95       25620.498      6879.2654      18741.232      3008.078       5907.1246      5294.0361      431.68791     -1216.4774      15722.034     -10405.251     -764.62578      105133.8       47.19697       47.19697       47.19697       1.1659898     -2255.0067     -3476.2147     -2002.3502    
    496300   496300         297.14484     -64.708986      25404.016      25502.844      6810.9863      18691.858      3030.2893      5870.5066      5217.8502      425.33284     -1151.6434      15705.22      -10405.697     -767.63227      104722.03      47.135273      47.135273      47.135273      1.1705745      413.5859      -781.89334      174.18048    
    496400   496400         297.30195     -641.94339      24458.818      25437.553      6814.5874      18622.966      2991.4669      5901.0091      5207.2091      423.15911     -1219.2136      15722.271     -10402.936     -768.95109      104542.43      47.10831       47.10831       47.10831       1.1725856      762.97436     -1227.8715     -1460.9331    
    496500   496500         302.27334     -165.30807      25221.042      25472.869      6928.539       18544.33       3035.3418      5849.4325      5118.47        418.10967     -1188.6849      15713.431     -10401.77      -769.58683      104456.07      47.095335      47.095335      47.095335      1.173555       668.44393     -921.06355     -243.30457    
    496600   496600         307.56741     -668.81916      24616.891      25636.108      7049.8865      18586.221      3059.0208      5896.8242      5126.3987      424.54549     -1243.5047      15725.402     -10402.465     -769.32406      104491.75      47.100696      47.100696      47.100696      1.1731543     -1638.4975      127.68171     -495.64168    
    496700   496700         305.8072      -914.80863      24288.343      25680.447      7009.54        18670.907      3022.6196      5933.5037      5199.38        426.07017     -1218.5089      15710.279     -10402.437     -770.41703      104343.51      47.078412      47.078412      47.078412      1.174821      -1350.4659     -754.27455     -639.68541    
    496800   496800         304.22269     -2046.938       22499.562      25614.249      6973.2209      18641.028      2987.2399      5862.2004      5306.3878      416.82767     -1238.1522      15710.288     -10403.764     -770.47317      104335.9       47.077269      47.077269      47.077269      1.1749066     -3191.2346     -589.59921     -2359.9802    
    496900   496900         301.97889      59.419976      25626.317      25535.879      6921.7898      18614.089      2981.282       5835.8727      5198.8504      421.356       -1133.5049      15716.186     -10405.953     -770.27857      104362.26      47.081233      47.081233      47.081233      1.1746099      172.69154      168.34545     -162.77706    
    497000   497000         297.20591     -1828.3335      22710.639      25500.84       6812.3861      18688.454      2939.8418      5867.1671      5351.7562      423.38219     -1207.7748      15719.189     -10405.107     -768.22267      104641.55      47.123195      47.123195      47.123195      1.1714748     -1901.8688     -1547.6252     -2035.5066    
    497100   497100         297.98941     -1008.8487      23952.654      25496.52       6830.345       18666.175      3071.7555      5889.921       5159.7232      428.45783     -1207.7664      15728.384     -10404.3       -766.09665      104931.95      47.166745      47.166745      47.166745      1.1682328      337.64435     -1141.1102     -2223.0802    
    497200   497200         299.16187     -1368.91        23396.756      25493.241      6857.2195      18636.022      3008.7328      5929.0643      5154.6865      421.73003     -1206.0881      15728.339     -10400.443     -765.50887      105012.52      47.178814      47.178814      47.178814      1.1673365     -646.21877     -1758.3628     -1702.1483    
    497300   497300         303.03483     -1351.6125      23518.526      25582.623      6945.9934      18636.63       3062.4025      5759.5768      5306.2902      431.05847     -1239.9912      15719.429     -10402.136     -767.69591      104713.35      47.13397       47.13397       47.13397       1.1706715     -1614.5514     -714.31183     -1725.9743    
    497400   497400         301.12         488.78977      26406.629      25662.99       6902.1027      18760.888      3119.489       5923.4012      5103.5947      418.31684     -1118.2639      15717.882     -10403.532     -770.59718      104319.11      47.074743      47.074743      47.074743      1.1750957      1062.4123     -542.43157      946.38855    
    497500   497500         298.80349     -1315.4312      23603.492      25603.657      6849.0049      18754.652      3031.272       5903.4992      5286.5971      422.15772     -1198.6132      15716.16      -10406.421     -771.02657      104261.02      47.066003      47.066003      47.066003      1.1757505     -1494.0567     -787.5075      -1664.7296    
    497600   497600         297.15018     -2297.8103      21976.856      25473.977      6811.1088      18662.869      3004.2731      5807.4615      5359.9862      424.06847     -1240.8712      15716.264     -10408.314     -770.31908      104356.77      47.080408      47.080408      47.080408      1.1746716     -1871.9966     -3047.1138     -1974.3205    
    497700   497700         297.21237     -783.25196      24251.381      25446.227      6812.5343      18633.692      3000.4575      5904.0106      5151.9538      425.73858     -1164.0434      15720.768     -10405.192     -768.52327      104600.62      47.11705       47.11705       47.11705       1.1719332     -321.90329     -1348.321      -679.53156    
    497800   497800         299.83606     -1579.4562      23052.084      25466.646      6872.6729      18593.973      3014.4127      5808.3795      5261.3584      430.00841     -1231.2441      15717.332     -10406.275     -766.89604      104822.57      47.150351      47.150351      47.150351      1.1694518     -2076.4168     -1795.3983     -866.55345    
    497900   497900         299.37197     -1108.684       23829.937      25525.203      6862.0353      18663.168      3043.465       5850.7961      5210.3989      427.52698     -1167.1911      15705.02      -10406.848     -766.72064      104846.55      47.153947      47.153947      47.153947      1.1691843     -1349.0485     -1505.1547     -471.84891    
    498000   498000         300.31814     -64.289234      25512.526      25610.862      6883.723       18727.139      3149.4687      5907.7891      5117.3122      419.16978     -1182.176       15718.167     -10402.592     -766.464        104881.66      47.159209      47.159209      47.159209      1.168793      -1767.8137      620.05605      954.88993    
    498100   498100         303.11173     -1347.3741      23743.084      25801.463      6947.7561      18853.707      3062.9502      5848.7337      5320.8224      427.98608     -1118.9513      15716.609     -10404.443     -767.41454      104751.75      47.13973       47.13973       47.13973       1.1702425     -1608.9076     -1097.3831     -1335.8316    
    498200   498200         308.97729     -2266.2896      22364.891      25829.009      7082.2031      18746.806      3012.2124      5818.5379      5393.5196      441.36967     -1224.5695      15710.966     -10405.23      -766.99032      104809.68      47.148419      47.148419      47.148419      1.1695956     -2437.0646     -2008.6157     -2353.1883    
    498300   498300         304.71258     -763.21134      24521.411      25687.19       6984.4499      18702.74       3038.6948      5920.4833      5236.6724      419.53387     -1225.8301      15720.612     -10407.427     -767.53092      104735.86      47.137347      47.137347      47.137347      1.1704199      224.24395     -386.66887     -2127.2091    
    498400   498400         303.13561     -1894.7395      22688.833      25579.785      6948.3034      18631.482      3026.6216      5856.1496      5249.035       415.73352     -1228.6917      15716.864     -10404.23      -768.37964      104620.18      47.119985      47.119985      47.119985      1.1717142     -1989.91       -1076.6847     -2617.6237    
    498500   498500         300.00832     -478.19939      24765.809      25494.282      6876.6214      18617.661      2954.1254      5885.4423      5208.6122      419.43999     -1158.0112      15713.361     -10405.309     -769.5958       104454.85      47.095152      47.095152      47.095152      1.1735687      73.322114     -1290.7957     -217.12461    
    498600   498600         297.67563     -554.31774      24629.7        25474.428      6823.1529      18651.275      3053.1131      5860.9286      5292.4169      432.68992     -1292.6232      15713.151     -10408.401     -769.32434      104491.71      47.100691      47.100691      47.100691      1.1731547      448.79122     -1084.4524     -1027.292     
    498700   498700         298.56359     -1655.6721      22950.566      25472.707      6843.506       18629.201      2990.9422      5792.0498      5343.395       424.38265     -1223.7096      15709.908     -10407.767     -769.61262      104452.57      47.094809      47.094809      47.094809      1.1735944     -853.55394     -2477.98       -1635.4824    
    498800   498800         306.7612      -1448.7095      23352.866      25560.926      7031.407       18529.519      2959.1598      5881.4824      5189.7356      411.80181     -1208.4452      15707.247     -10411.463     -769.19715      104508.98      47.103286      47.103286      47.103286      1.1729608     -1131.8209     -1748.2278     -1466.0799    
    498900   498900         304.07413     -1099.4092      23965.921      25642.528      6969.8157      18672.712      3021.1166      5877.9083      5258.8997      442.64669     -1233.5843      15713.913     -10408.188     -768.76808      104567.31      47.112048      47.112048      47.112048      1.1723065     -260.74002     -2427.0332     -610.45428    
    499000   499000         301.88168     -545.02412      24761.89       25593.669      6919.5614      18674.107      3073.1385      5940.8045      5112.1907      441.07063     -1204.4014      15717.368     -10406.063     -768.20151      104644.44      47.123627      47.123627      47.123627      1.1714425     -571.95653     -1539.5961      476.48026    
    499100   499100         297.54074     -71.604542      25348.823      25458.251      6820.061       18638.19       3090.798       5810.2751      5119.7777      433.05829     -1123.3302      15715.463     -10407.852     -767.14819      104788.12      47.145185      47.145185      47.145185      1.1698363      764.72831     -1004.7983      25.25634     
    499200   499200         301.56381     -1574.9552      23011.142      25418.064      6912.2755      18505.789      3019.4933      5842.0576      5159.0019      414.3804      -1235.8251      15714.783     -10408.103     -767.13791      104789.52      47.145395      47.145395      47.145395      1.1698206     -498.55441     -2997.8831     -1228.4282    
    499300   499300         299.7717      -1512.0397      23187.865      25494.894      6871.1977      18623.697      2978.4422      5924.1485      5206.7349      425.07698     -1221.663       15723.342     -10412.385     -768.38197      104619.86      47.119938      47.119938      47.119938      1.1717177     -1384.3832     -1683.8562     -1467.8796    
    499400   499400         302.02827     -1443.2994      23488.458      25687.932      6922.9217      18765.01       3018.0792      5830.8865      5333.2354      433.64046     -1153.8465      15711.215     -10408.2       -769.31589      104492.85      47.100863      47.100863      47.100863      1.1731419     -1390.0535     -1043.3911     -1896.4535    
    499500   499500         300.96716     -1798.8165      22902.815      25640.744      6898.5994      18742.145      3000.73        5853.7797      5335.5859      444.13682     -1197.695       15714.71      -10409.103     -770.25018      104366.11      47.081811      47.081811      47.081811      1.1745666     -1379.4999     -1831.08       -2185.8696    
    499600   499600         300.52637      83.944418      25650.391      25522.763      6888.496       18634.267      2988.7669      5811.1961      5285.1872      440.21216     -1208.1972      15725.976     -10408.875     -771.10314      104250.66      47.064445      47.064445      47.064445      1.1758673     -143.87418      377.04654      18.660893    
    499700   499700         298.73663     -930.3464       24047.699      25464.695      6847.4726      18617.222      3042.7197      5837.6118      5218.7337      432.29855     -1232.8129      15723.032     -10404.36      -769.73847      104435.49      47.092242      47.092242      47.092242      1.1737863      307.74021     -2766.4752     -332.30418    
    499800   499800         297.01433     -10.647848      25470.114      25486.368      6807.9948      18678.373      3094.9245      5861.3205      5146.8744      438.54742     -1166.0205      15709.601     -10406.874     -767.99066      104673.16      47.127939      47.127939      47.127939      1.171121       321.73904     -876.61325      522.93067    
    499900   499900         303.00863     -1402.9967      23501.508      25650.311      6945.3929      18704.918      3015.2476      5881.0192      5301.7682      435.32304     -1240.1429      15715.922     -10404.218     -765.46841      105018.07      47.179646      47.179646      47.179646      1.1672748     -360.28153     -1748.7366     -2099.972     
    500000   500000         302.77614     -2338.7153      22109.353      25691.149      6940.0639      18751.085      2951.7075      5857.3042      5401.2946      446.03706     -1223.5775      15724.577     -10406.258     -765.49736      105014.1       47.179051      47.179051      47.179051      1.1673189     -1641.0244     -1304.745      -4070.3766    
Loop time of 2347.06 on 1 procs for 500000 steps with 8720 atoms

Performance: 18.406 ns/day, 1.304 hours/ns, 213.033 timesteps/s, 1.858 Matom-step/s
100.0% CPU use with 1 MPI tasks x 1 OpenMP threads

MPI task timing breakdown:
Section |  min time  |  avg time  |  max time  |%varavg| %total
---------------------------------------------------------------
Pair    | 1074.5     | 1074.5     | 1074.5     |   0.0 | 45.78
Bond    | 340.1      | 340.1      | 340.1      |   0.0 | 14.49
Kspace  | 492.3      | 492.3      | 492.3      |   0.0 | 20.98
Neigh   | 78.931     | 78.931     | 78.931     |   0.0 |  3.36
Comm    | 13.245     | 13.245     | 13.245     |   0.0 |  0.56
Output  | 10.282     | 10.282     | 10.282     |   0.0 |  0.44
Modify  | 252.16     | 252.16     | 252.16     |   0.0 | 10.74
Other   |            | 85.56      |            |       |  3.65

Nlocal:           8720 ave        8720 max        8720 min
Histogram: 1 0 0 0 0 0 0 0 0 0
Nghost:          19916 ave       19916 max       19916 min
Histogram: 1 0 0 0 0 0 0 0 0 0
Neighs:              0 ave           0 max           0 min
Histogram: 1 0 0 0 0 0 0 0 0 0
FullNghs:   4.6066e+06 ave  4.6066e+06 max  4.6066e+06 min
Histogram: 1 0 0 0 0 0 0 0 0 0

Total # of neighbors = 4606598
Ave neighs/atom = 528.27959
Ave special neighs/atom = 5.6385321
Neighbor list builds = 12257
Dangerous builds = 0

# --- Cleanup ---
unfix npt_fix
unfix shake_fix
undump dump_npt

# --- Write Output ---
write_dump all custom /home/arz2/PolyJarvis/data/PEEK3/lammps/mechanical/bm_series/bm_P-1000/bm_P-1000_last.dump id type mol x y z xu yu zu vx vy vz modify sort id
write_data /home/arz2/PolyJarvis/data/PEEK3/lammps/mechanical/bm_series/bm_P-1000/bm_P-1000_out.data
System init for write_data ...
PPPM Kokkos initialization ...
  using 12-bit tables for long-range coulomb
  G vector (1/distance) = 0.3063864
  grid = 36 36 36
  stencil order = 5
  estimated absolute RMS force accuracy = 0.00038598797
  estimated relative force accuracy = 1.1623913e-06
  using double precision cuFFT
  3d grid and FFT values/proc = 79507 46656
Generated 21 of 21 mixed pair_coeff terms from sixthpower/sixthpower mixing rule

print "STAGE COMPLETE: NPT T=300.0->300.0K P=-1000.0->-1000.0atm steps=500000"
STAGE COMPLETE: NPT T=300.0->300.0K P=-1000.0->-1000.0atm steps=500000
quit
