units real
atom_style full
boundary p p p

# --- Force Field Styles ---
pair_style lj/cut 14.0
dielectric 1.000000
bond_style harmonic
angle_style harmonic
dihedral_style multi/harmonic
improper_style none
special_bonds lj 0 0 0
pair_modify mix arithmetic tail yes
neighbor 2.0 bin
neigh_modify delay 0 every 1 check yes
neigh_modify one 4000
package gpu 1 neigh yes

read_data /home/alexzhao/PolyJarvis/data/PE4/lammps/equil/npt_melt/npt_melt_out.data
Reading data file ...
  orthogonal box = (0.93485086 0.93485086 0.93485086) to (54.843521 54.843521 54.843521)
  1 by 1 by 1 MPI processor grid
  reading atoms ...
  4840 atoms
  reading velocities ...
  4840 velocities
  scanning bonds ...
  2 = max bonds/atom
  scanning angles ...
  1 = max angles/atom
  scanning dihedrals ...
  2 = max dihedrals/atom
  orthogonal box = (0.93485086 0.93485086 0.93485086) to (54.843521 54.843521 54.843521)
  1 by 1 by 1 MPI processor grid
  reading bonds ...
  4820 bonds
  reading angles ...
  4800 angles
  reading dihedrals ...
  4780 dihedrals
Finding 1-2 1-3 1-4 neighbors ...
  special bond factors lj:    0        0        0       
  special bond factors coul:  0        0        0       
     2 = max # of 1-2 neighbors
     2 = max # of 1-3 neighbors
     4 = max # of 1-4 neighbors
     6 = max # of special neighbors
  special bonds CPU = 0.002 seconds
  read_data CPU = 0.071 seconds
include /home/alexzhao/PolyJarvis/data/PE4/lammps/equil/emc_build.params
# LAMMPS parameters created by EMC v9.4.4, build Jul 31 2025 20:33:44

# Variables

variable	seed		index	942725
variable	ntotal		index	4840
variable	fshape		index	1
variable	output		index	emc_build
variable	field		index	trappe/2014/trappe-ua
variable	location1	index	~/emc/field/
variable	nav		index	0.6022141179
variable	temperature	index	300
variable	radius		index	5
variable	nrelax		index	100
variable	weight_nonbond	index	0.0001
variable	weight_bond	index	0.0001
variable	weight_focus	index	1
variable	cutoff		index	14
variable	charge_cutoff	index	14
variable	kappa		index	4
variable	density1	index	0.65
variable	lprevious	index	0
variable	lphase		index	55.7783720511
variable	f_poly		index	20
variable	chem_repeat	index	*CC*
variable	chem_cap	index	*C
variable	lg_repeat	index	2
variable	lg_cap		index	1
variable	norm_poly	index	100
variable	l_poly		index	242
variable	mg_repeat	index	28.0536
variable	mg_cap		index	15.0347
variable	m_poly		index	3396.5014
variable	n_poly		index	20
variable	mtotal		index	67930.028
variable	nphase1		index	4840
variable	mphase1		index	67930.028
variable	vphase1		index	173539.165354
variable	lbox		index	55.7783720511
variable	lphase1		index	55.7783720511
variable	lxx		index	55.7783720511
variable	lyy		index	55.7783720511
variable	lzz		index	55.7783720511
variable	lzy		index	0
variable	lzx		index	0
variable	lyx		index	0
variable	vtotal		index	173539.165354
variable	nl_poly		index	20

# Types

variable	type_c4h2	index	1
variable	type_c4h3	index	2

variable	type_bond_c4h2_c4h2 index	1
variable	type_bond_c4h2_c4h3 index	2

variable	type_angle_c4h2_c4h2_c4h2 index	1
variable	type_angle_c4h2_c4h2_c4h3 index	2

# Clusters

variable	n0_poly		index	1
variable	n1_poly		index	20
variable	nl_poly		index	20

# Flags

variable	flag_charged	index	0

# Masses

mass		1    14.02680  # c4h2
mass		2    15.03470  # c4h3

# Potentials

pair_modify	mix arithmetic tail yes
special_bonds	lj 0 0 0 coul 0 0 0.5
Finding 1-2 1-3 1-4 neighbors ...
  special bond factors lj:    0        0        0       
  special bond factors coul:  0        0        0.5     
     2 = max # of 1-2 neighbors
     2 = max # of 1-3 neighbors
     4 = max # of 1-4 neighbors
     6 = max # of special neighbors
  special bonds CPU = 0.002 seconds

# Pair Coeffs

pair_coeff	1 1    0.09141    3.95000  # c4h2,c4h2
pair_coeff	2 2    0.19475    3.75000  # c4h3,c4h3

# Bond Coeffs

bond_coeff	1  260.00013    1.54000  # c4h2,c4h2
bond_coeff	2  260.00013    1.54000  # c4h2,c4h3

# Angle Coeffs

angle_coeff	1   62.10020  114.00000  # c4h2,c4h2,c4h2
angle_coeff	2   62.10020  114.00000  # c4h2,c4h2,c4h3

# Dihedral Coeffs

dihedral_coeff	1    2.00702   -4.01203    0.27102    6.29006    0.00000  # c4h2,c4h2,c4h2,c4h2
dihedral_coeff	2    2.00702   -4.01203    0.27102    6.29006    0.00000  # c4h2,c4h2,c4h2,c4h3


# --- Thermo Output ---
thermo_style custom step time temp press enthalpy etotal ke pe ebond eangle edihed eimp evdwl ecoul elong etail vol lx ly lz density pxx pyy pzz
thermo_modify flush yes
thermo 1000

# --- Trajectory ---
dump dump_npt all custom 1000 npt_cool.dump id type mol x y z ix iy iz vx vy vz

# --- Restart Checkpointing ---
restart 10000 npt_1.rst npt_2.rst

# --- Initial Velocities (optional) ---
# Velocities read from data file

# --- SHAKE Constraints ---
# SHAKE disabled (TraPPE-UA united-atom)

# --- NPT Thermostat + Barostat (Nose-Hoover) ---
# T_damp = 100.0 fs  (heat bath coupling)
# P_damp = 1000.0 fs  (pressure bath coupling, ~10x T_damp typical)
# Ramp: T=550.0->300.0K  P=1.0->1.0atm
timestep 2.0
fix npt_fix all npt temp 550.0 300.0 100.0 iso 1.0 1.0 1000.0

run 1000000

CITE-CITE-CITE-CITE-CITE-CITE-CITE-CITE-CITE-CITE-CITE-CITE-CITE

Your simulation uses code contributions which should be cited:

- GPU package (short-range, long-range and three-body potentials): doi:10.1016/j.cpc.2010.12.021, doi:10.1016/j.cpc.2011.10.012, doi:10.1016/j.cpc.2013.08.002, doi:10.1016/j.commatsci.2014.10.068, doi:10.1016/j.cpc.2016.10.020, doi:10.3233/APC200086

@Article{Brown11,
 author = {W. M. Brown and P. Wang and S. J. Plimpton and A. N. Tharrington},
 title = {Implementing Molecular Dynamics on Hybrid High Performance Computers---Short Range Forces},
 journal = {Comput.\ Phys.\ Commun.},
 year =    2011,
 volume =  182,
 pages =   {898--911},
 doi =     {10.1016/j.cpc.2010.12.021}
}

@Article{Brown12,
 author = {W. M. Brown and A. Kohlmeyer and S. J. Plimpton and A. N. Tharrington},
 title = {Implementing Molecular Dynamics on Hybrid High Performance Computers - Particle-Particle Particle-Mesh},
 journal = {Comput.\ Phys.\ Commun.},
 year =    2012,
 volume =  183,
 doi =     {10.1016/j.cpc.2011.10.012},
 pages =   {449--459}
}

@Article{Brown13,
 author = {W. M. Brown and Y. Masako},
 title = {Implementing Molecular Dynamics on Hybrid High Performance Computers---Three-Body Potentials},
 journal = {Comput.\ Phys.\ Commun.},
 year =    2013,
 volume =  184,
 pages =   {2785--2793},
 doi =     {10.1016/j.cpc.2013.08.002},
}

@Article{Trung15,
 author = {T. D. Nguyen and S. J. Plimpton},
 title = {Accelerating Dissipative Particle Dynamics Simulations for Soft Matter Systems},
 journal = {Comput.\ Mater.\ Sci.},
 year =    2015,
 doi =     {10.1016/j.commatsci.2014.10.068},
 volume =  100,
 pages =   {173--180}
}

@Article{Trung17,
 author = {T. D. Nguyen},
 title = {{GPU}-Accelerated {T}ersoff Potentials for Massively Parallel
    Molecular Dynamics Simulations},
 journal = {Comput.\ Phys.\ Commun.},
 year =    2017,
 doi =     {10.1016/j.cpc.2016.10.020},
 volume =  212,
 pages =   {113--122}
}

@inproceedings{Nikolskiy19,
 author = {V. Nikolskiy and V. Stegailov},
 title = {{GPU} Acceleration of Four-Site Water Models in {LAMMPS}},
 booktitle = {Proceedings of the International Conference on Parallel
    Computing (ParCo 2019), Prague, Czech Republic},
 doi =     {10.3233/APC200086},
 year =    2019
}

CITE-CITE-CITE-CITE-CITE-CITE-CITE-CITE-CITE-CITE-CITE-CITE-CITE

Generated 1 of 1 mixed pair_coeff terms from arithmetic mixing rule
Per MPI rank memory allocation (min/avg/max) = 14.91 | 14.91 | 14.91 Mbytes
   Step          Time           Temp          Press         Enthalpy        TotEng         KinEng         PotEng         E_bond        E_angle        E_dihed        E_impro         E_vdwl         E_coul         E_long         E_tail         Volume           Lx             Ly             Lz          Density          Pxx            Pyy            Pzz      
         0   0              550.026        340.3834       14232.253      13454.539      7933.652       5520.887       2723.7588      2544.6935      4575.6313      0             -4323.1966      0              0             -159.13144      156666.4       53.90867       53.90867       53.90867       0.72000414    -91.670663      1009.5167      103.30415    
      1000   2000           539.26534      173.41814      13679.934      13285.124      7778.4387      5506.6851      2728.6501      2561.3092      4547.5449      0             -4330.8191      0              0             -159.70333      156105.38      53.844245      53.844245      53.844245      0.72259173     220.38022      584.06825     -284.19405    
      2000   4000           529.78515     -368.14964      12295.029      13125.161      7641.6951      5483.4659      2671.9013      2646.939       4558.4756      0             -4393.85        0              0             -161.24451      154613.32      53.672147      53.672147      53.672147      0.72956493    -669.37911      307.8528      -742.92261    
      3000   6000           543.91302      659.22503      14916.146      13422.048      7845.4775      5576.5708      2748.3894      2604.5266      4592.7152      0             -4369.0604      0              0             -160.42144      155406.59      53.763782      53.763782      53.763782      0.72584087     363.13311      820.28719      794.25481    
      4000   8000           557.52592     -507.27526      12402.553      13566.916      8041.8319      5525.084       2739.7375      2556.4095      4535.459       0             -4306.5219      0              0             -158.40289      157386.96      53.991192      53.991192      53.991192      0.71670776    -336.02966      108.93183     -1294.7279    
      5000   10000          546.21434     -390.77492      12506.308      13400.601      7878.672       5521.9294      2669.5625      2608.0064      4607.289       0             -4362.9284      0              0             -158.87464      156919.63      53.9377        53.9377        53.9377        0.71884223    -814.63787      242.5421      -600.22899    
      6000   12000          566.84266     -75.697928      13525.596      13697.576      8176.2177      5521.3583      2700.205       2618.5957      4574.6707      0             -4372.113       0              0             -160.03436      155782.48      53.807094      53.807094      53.807094      0.72408947     88.680243     -551.99946      236.22543    
      7000   14000          549.17958      54.11373       13534.609      13411.236      7921.4431      5489.7931      2588.3922      2686.2458      4584.4841      0             -4369.329       0              0             -159.47657      156327.35      53.869754      53.869754      53.869754      0.7215657      151.29921     -112.75687      123.79885    
      8000   16000          541.38325     -46.314391      13142.144      13248.521      7808.9877      5439.5336      2656.0477      2623.6969      4486.5635      0             -4326.7745      0              0             -158.29792      157491.33      54.003124      54.003124      54.003124      0.7162328      118.80454      117.2778      -375.02551    
      9000   18000          542.53862      515.66155      14580.439      13416.56       7825.6529      5590.9076      2677.5107      2629.5193      4643.4951      0             -4359.6175      0              0             -161.08865      154762.92      53.689452      53.689452      53.689452      0.7288597      495.3655       338.96974      712.64943    
     10000   20000          539.13766     -275.33325      12695.227      13325.356      7776.597       5548.7592      2665.8466      2625.2291      4546.9646      0             -4289.281       0              0             -158.86815      156926.04      53.938435      53.938435      53.938435      0.71881284     220.8397      -167.9715      -878.86796    
     11000   22000          539.33295     -243.50204      12949.123      13508.558      7779.4139      5729.1439      2825.4836      2554.7061      4627.9016      0             -4278.9474      0              0             -158.25612      157532.93      54.007878      54.007878      54.007878      0.71604368    -440.54775     -471.27859      181.32023    
     12000   24000          552.75865      430.90185      14535.138      13537.411      7973.0681      5564.3428      2617.3448      2684.3637      4548.7949      0             -4286.1606      0              0             -157.02707      158765.93      54.148418      54.148418      54.148418      0.71048274     373.67833      248.84013      670.1871     
     13000   26000          555.91531     -38.921588      13596.505      13685.556      8018.6001      5666.9555      2721.0397      2627.9014      4684.6958      0             -4366.6814      0              0             -158.91338      156881.37      53.933316      53.933316      53.933316      0.71901752    -7.8675825      191.22863     -300.12581    
     14000   28000          555.77553     -319.18234      12790.001      13523.055      8016.584       5506.4715      2631.1651      2643.1243      4559.7615      0             -4327.5794      0              0             -158.31074      157478.57      54.001666      54.001666      54.001666      0.71629082    -646.36171      50.936165     -362.12148    
     15000   30000          547.51535      886.85779      15573.629      13528.879      7897.438       5631.4409      2591.4369      2648.3139      4634.1666      0             -4242.4765      0              0             -157.69633      158092.13      54.071708      54.071708      54.071708      0.71351087     975.44689      729.07846      956.048      
     16000   32000          536.26972      34.239307      13244.655      13167.287      7735.2295      5432.0571      2608.3956      2611.8761      4619.3717      0             -4407.5862      0              0             -160.90488      154939.67      53.709883      53.709883      53.709883      0.72802824     509.06476      387.15308     -793.49992    
     17000   34000          549.22311      5.9477368      13306.637      13293.105      7922.0709      5371.034       2540.4238      2616.4195      4568.919       0             -4354.7283      0              0             -159.80815      156003         53.832471      53.832471      53.832471      0.72306595    -86.256029      720.95345     -616.85421    
     18000   36000          546.75421     -775.2603       11689.325      13442.494      7886.4592      5556.0351      2638.4221      2684.2794      4631.5368      0             -4398.2032      0              0             -160.77979      155060.22      53.723809      53.723809      53.723809      0.72746224    -476.07279     -718.62465     -1131.0835    
     19000   38000          555.10925      665.5426       15138.419      13624.847      8006.9734      5617.8732      2595.4479      2666.73        4709.4104      0             -4353.7151      0              0             -159.87498      155937.78      53.824969      53.824969      53.824969      0.72336834     985.63869      776.55459      234.43453    
     20000   40000          544.76517      663.37688      14776.643      13276.572      7857.769       5418.8034      2535.1545      2648.0496      4623.3639      0             -4387.7646      0              0             -160.78897      155051.37      53.722787      53.722787      53.722787      0.72750379     659.82837      284.26885      1046.0334    
     21000   42000          549.07638     -5.0939824      13485.852      13497.54       7919.9545      5577.5857      2566.4753      2663.9832      4631.2271      0             -4284.1         0              0             -158.46444      157325.83      53.984201      53.984201      53.984201      0.71698623     257.70089     -137.74573     -135.23711    
     22000   44000          537.89522     -139.50653      13045.586      13369.271      7758.6759      5610.595       2652.282       2603.4929      4613.9192      0             -4259.0991      0              0             -156.70383      159093.43      54.185625      54.185625      54.185625      0.70902019     40.714926     -112.46961     -346.76491    
     23000   46000          544.96396      362.09787      14206.726      13374.807      7860.6364      5514.1709      2627.2266      2634.7754      4540.3742      0             -4288.2053      0              0             -158.25338      157535.66      54.00819       54.00819       54.00819       0.71603127     196.37214     -375.7539       1265.6754    
     24000   48000          560.85786      511.76963      14815.149      13650.545      8089.8922      5560.6531      2629.0025      2673.4235      4606.6866      0             -4348.4595      0              0             -159.77321      156037.11      53.836395      53.836395      53.836395      0.72290787     242.59095      708.29191      584.42602    
     25000   50000          540.92252     -318.35138      12635.829      13368.834      7802.3421      5566.4923      2703.548       2539.4521      4638.6284      0             -4315.1362      0              0             -157.90916      157879.06      54.047404      54.047404      54.047404      0.71447384    -238.93368      67.858898     -783.97936    
     26000   52000          543.00926      454.04876      14554.084      13507.234      7832.4416      5674.7923      2629.539       2707.2443      4655.7628      0             -4317.7539      0              0             -157.69776      158090.7       54.071545      54.071545      54.071545      0.71351733     431.1849       731.44118      199.5202     
     27000   54000          552.35428      620.51383      14844.394      13424.474      7967.2354      5457.2381      2555.6439      2606.4131      4608.6337      0             -4313.4527      0              0             -158.88947      156904.98      53.936022      53.936022      53.936022      0.71890934     702.42952      577.17592      581.93604    
     28000   56000          552.24903      399.04571      14338.994      13421.325      7965.7173      5455.6079      2622.6423      2505.4656      4624.0703      0             -4296.5703      0              0             -158.10461      157683.88      54.025124      54.025124      54.025124      0.71535818     392.76496      513.36174      291.01044    
     29000   58000          535.0571      -253.11823      12587.903      13159.496      7717.7384      5441.7579      2666.6244      2632.0461      4571.7662      0             -4428.6789      0              0             -161.00675      154841.64      53.698553      53.698553      53.698553      0.72848917    -488.18805     -54.026349     -217.14029    
     30000   60000          539.76716     -616.2294       11667.341      13056.718      7785.6769      5271.0415      2611.0467      2566.1603      4529.072       0             -4435.2374      0              0             -161.26118      154597.34      53.670298      53.670298      53.670298      0.72964033    -887.06041     -464.08902     -497.53878    
     31000   62000          542.15114     -267.23706      12545.734      13145.565      7820.0639      5325.5015      2619.1783      2545.3083      4599.1263      0             -4438.1114      0              0             -161.98525      153906.29      53.59021       53.59021       53.59021       0.73291648    -349.13561     -416.31967     -36.255894    
     32000   64000          538.06981      530.59276      14479.252      13279.183      7761.1941      5517.9885      2722.9373      2648.4844      4542.8131      0             -4396.2464      0              0             -160.75436      155084.75      53.726642      53.726642      53.726642      0.7273472      746.46999      488.29861      357.0097     
     33000   66000          540.44383     -143.75921      12876.242      13209.193      7795.4374      5413.7557      2639.6666      2594.4918      4500.1016      0             -4320.5044      0              0             -156.98656      158806.9       54.153075      54.153075      54.153075      0.71029946    -35.089356      537.69544     -933.88372    
     34000   68000          537.94775     -355.8886       12243.217      13053.266      7759.4336      5293.8319      2649.9215      2482.053       4525.7194      0             -4363.8621      0              0             -159.7389       156070.62      53.840248      53.840248      53.840248      0.72275264    -101.92363     -312.53465     -653.20752    
     35000   70000          542.6913      -232.07353      12874.449      13401.249      7827.8551      5573.3937      2631.0031      2644.8353      4646.6602      0             -4349.1048      0              0             -160.17249      155648.14      53.791622      53.791622      53.791622      0.72471446     163.20131     -813.53539     -45.8865      
     36000   72000          541.34716      49.933584      13328.269      13215.732      7808.4672      5407.2644      2715.0703      2515.761       4552.8575      0             -4376.4243      0              0             -161.3262       154535.03      53.663086      53.663086      53.663086      0.72993454    -503.60829      594.24994      59.159108    
     37000   74000          530.33473     -142.25828      12635.529      12960.133      7649.6224      5310.5104      2560.5851      2552.5569      4550.0293      0             -4352.6608      0              0             -159.34257      156458.81      53.88485       53.88485       53.88485       0.72095942     214.60072     -4.8081082     -636.56744    
     38000   76000          531.95054      155.82285      13532.303      13180.419      7672.9289      5507.4904      2676.9611      2603.3749      4613.7679      0             -4386.6135      0              0             -161.00494      154843.38      53.698755      53.698755      53.698755      0.72848096     192.44351      633.58914     -358.56411    
     39000   78000          543.17274      177.53923      13688.331      13279.884      7834.7995      5445.0846      2589.2834      2623.3388      4557.3872      0             -4324.9247      0              0             -158.03974      157748.61      54.032515      54.032515      54.032515      0.71506465     78.716373     -43.037113      496.93843    
     40000   80000          528.53188     -460.16146      11998.447      13048.417      7623.6177      5424.7989      2651.6973      2569.2168      4554.9802      0             -4351.0955      0              0             -159.34599      156455.45      53.884464      53.884464      53.884464      0.72097491    -2.2434684     -602.7823      -775.4586     
     41000   82000          551.7293       115.12375      13569.264      13304.268      7958.2206      5346.0476      2492.0428      2656.8534      4487.07        0             -4289.9186      0              0             -157.95513      157833.11      54.042161      54.042161      54.042161      0.71468183    -53.790244      296.97881      102.18267    
     42000   84000          544.85523      458.38751      14287.363      13237.173      7859.068       5378.1047      2577.2464      2606.1781      4550.7627      0             -4356.0825      0              0             -158.69847      157093.83      53.957652      53.957652      53.957652      0.71804511     919.36701      780.89623     -325.10071    
     43000   86000          539.14399      812.80651      15059.983      13199.561      7776.6883      5422.8727      2503.6822      2582.4045      4645.3758      0             -4308.5897      0              0             -158.84861      156945.35      53.940647      53.940647      53.940647      0.71872444     1229.2755      375.36841      833.77566    
     44000   88000          540.93823      182.26663      13684.508      13275.06       7802.5686      5472.4911      2603.9406      2594.1623      4653.8978      0             -4379.5096      0              0             -161.85124      154033.72      53.604996      53.604996      53.604996      0.73231013    -6.1970007      719.16719     -166.17031    
     45000   90000          536.72536     -722.70277      11730.151      13380.912      7741.8016      5639.1105      2577.9033      2727.5574      4671.5917      0             -4337.9419      0              0             -159.17807      156620.5       53.903406      53.903406      53.903406      0.72021512    -553.9961      -223.15035     -1390.9619    
     46000   92000          528.99982     -276.21512      12533.772      13157.644      7630.3673      5527.2766      2602.1876      2716.2129      4596.5443      0             -4387.6682      0              0             -160.97542      154871.78      53.702037      53.702037      53.702037      0.72834739    -643.73179      25.790464     -210.70404    
     47000   94000          547.64048     -36.968306      13164.027      13248.018      7899.2429      5348.7748      2501.5961      2598.4669      4604.1254      0             -4355.4136      0              0             -160.03193      155784.85      53.807367      53.807367      53.807367      0.72407848    -808.44092      806.46332     -108.92731    
     48000   96000          536.96806      278.1348       13766.177      13131.537      7745.3024      5386.2345      2647.2655      2567.7249      4557.593       0             -4386.3489      0              0             -159.34402      156457.39      53.884687      53.884687      53.884687      0.72096597     120.35088      128.34422      585.7093     
     49000   98000          540.12594      94.814565      13562.313      13344.997      7790.8521      5554.1445      2661.3284      2638.5273      4565.5212      0             -4311.2325      0              0             -158.6317       157159.95      53.965221      53.965221      53.965221      0.71774301     324.10108      116.98439     -156.64178    
     50000   100000         543.06816      146.40012      13686.778      13352.095      7833.2911      5518.8044      2693.7331      2611.4223      4540.4049      0             -4326.7559      0              0             -159.04369      156752.84      53.918583      53.918583      53.918583      0.71960711     1060.3179     -273.70366     -347.41387    
     51000   102000         546.03957     -226.11166      12683.503      13197.375      7876.1511      5321.224       2537.1577      2632.4661      4506.1465      0             -4354.5463      0              0             -159.98373      155831.78      53.81277       53.81277       53.81277       0.72386039    -21.585521     -346.25753     -310.49194    
     52000   104000         527.75356      354.24835      13685.996      12885.374      7612.3912      5272.9829      2561.4111      2601.2963      4507.184       0             -4396.9085      0              0             -160.87478      154968.66      53.713233      53.713233      53.713233      0.72789205     707.41849      17.093712      338.23285    
     53000   106000         539.66189      511.76798      14123.264      12975.947      7784.1586      5191.7884      2560.1668      2553.7109      4524.2297      0             -4446.319       0              0             -162.18005      153721.43      53.568745      53.568745      53.568745      0.73379784     427.86023      505.47563      601.96808    
     54000   108000         542.9478       158.17617      13548.33       13193.551      7831.555       5361.9959      2666.1136      2542.0165      4591.8498      0             -4437.9839      0              0             -162.10315      153794.36      53.577215      53.577215      53.577215      0.7334499      527.43289      345.24298     -398.14735    
     55000   110000         531.54438      29.752145      13076.712      13009.303      7667.0704      5342.2326      2554.9262      2612.941       4562.8738      0             -4388.5083      0              0             -160.47569      155354.05      53.757723      53.757723      53.757723      0.72608634     191.25352     -119.48646      17.489369    
     56000   112000         533.71314     -152.2088       12522.494      12865.498      7698.3529      5167.145       2549.3586      2497.9375      4520.9205      0             -4401.0716      0              0             -161.34228      154519.63      53.661304      53.661304      53.661304      0.73000727    -873.5264      -141.81034      558.71033    
     57000   114000         533.79304      403.33802      14067.349      13145.724      7699.5055      5446.2183      2634.6495      2555.5101      4600.22        0             -4344.1614      0              0             -159.11911      156678.54      53.910063      53.910063      53.910063      0.71994833     363.29968      806.70377      40.010597    
     58000   116000         536.77136     -850.83545      11199.928      13127.937      7742.4651      5385.4715      2599.9286      2545.1243      4602.2184      0             -4361.7997      0              0             -160.45171      155377.28      53.760401      53.760401      53.760401      0.72597782    -289.25999     -687.54        -1575.7064    
     59000   118000         519.01031     -268.50272      12158.527      12765.57       7486.2773      5279.2926      2681.4629      2525.2259      4477.2821      0             -4404.6784      0              0             -160.81893      155022.48      53.71945       53.71945       53.71945       0.72763935    -104.05981     -368.5836      -332.86476    
     60000   120000         532.32119      203.84793      13523.259      13059.765      7678.2753      5381.4894      2635.3614      2571.486       4556.1076      0             -4381.4656      0              0             -159.90763      155905.94      53.821305      53.821305      53.821305      0.72351608     361.62409      1.3366187      248.58307    
     61000   122000         537.69286      97.60066       13218.72       12996.374      7755.7571      5240.6166      2647.1815      2504.421       4498.0813      0             -4409.0672      0              0             -159.59918      156207.26      53.855955      53.855955      53.855955      0.72212046     717.6245      -453.41756      28.595043    
     62000   124000         534.61196      96.1179        13373.97       13153.435      7711.3176      5442.1173      2614.1087      2579.6555      4588.6809      0             -4340.3279      0              0             -158.46518      157325.1       53.984117      53.984117      53.984117      0.71698958    -495.67032      16.439302      767.58472    
     63000   126000         526.79635     -476.56546      11822.346      12903.526      7598.5842      5304.9414      2570.0975      2634.0688      4526.3954      0             -4425.6202      0              0             -160.26263      155560.59      53.781535      53.781535      53.781535      0.72512233    -915.62646     -332.775       -181.29493    
     64000   128000         531.11569      170.12512      13255.898      12866.501      7660.887       5205.6142      2517.9623      2543.0066      4510.7001      0             -4366.0548      0              0             -158.84882      156945.13      53.940622      53.940622      53.940622      0.71872542     380.71373     -0.25637542     129.91801    
     65000   130000         541.14388     -253.03267      12703.634      13287.847      7805.535       5482.3115      2503.6528      2606.967       4624.9522      0             -4253.2604      0              0             -157.47575      158313.58      54.096943      54.096943      54.096943      0.71251281    -416.03645     -327.0277      -16.033862    
     66000   132000         546.42299      321.28949      13982.805      13243.448      7881.6816      5361.7662      2581.0811      2564.2455      4538.8213      0             -4322.3817      0              0             -157.99746      157790.83      54.037335      54.037335      54.037335      0.71487333     433.90293      1099.0746     -569.10907    
     67000   134000         527.21096     -306.22342      12336.351      13036.91       7604.5645      5432.3453      2614.1751      2561.0303      4596.4471      0             -4339.3074      0              0             -158.92838      156866.57      53.93162       53.93162       53.93162       0.71908536    -195.24981     -275.67618     -447.74429    
     68000   136000         532.63393      865.64003      15049.191      13097.265      7682.7863      5414.4792      2602.4324      2577.9968      4639.7363      0             -4405.6864      0              0             -161.24334      154614.45      53.672277      53.672277      53.672277      0.72955961     283.56731      876.70874      1436.644     
     69000   138000         530.88862     -6.9143097      12943.184      12958.756      7657.6117      5301.1439      2570.0716      2587.7958      4568.4187      0             -4425.1422      0              0             -161.44799      154418.45      53.649589      53.649589      53.649589      0.73048559    -546.47341      99.424609      426.30587    
     70000   140000         534.13551     -117.84902      12548.799      12813.884      7704.4453      5109.439       2578.8016      2593.6255      4386.5718      0             -4449.5599      0              0             -161.63955      154235.46      53.628388      53.628388      53.628388      0.7313523     -214.54188     -221.13036      82.125184    
     71000   142000         533.12783     -360.10897      12011.491      12821.731      7689.9104      5131.8201      2491.5056      2538.6073      4538.8641      0             -4437.1569      0              0             -161.59514      154277.84      53.633299      53.633299      53.633299      0.73115139    -365.56947     -495.31028     -219.44717    
     72000   144000         538.17391      114.90886      13467.704      13208.837      7762.6957      5446.1413      2652.2504      2633.1344      4567.7297      0             -4406.9732      0              0             -161.39288      154471.18      53.655695      53.655695      53.655695      0.73023624    -260.99719      110.71532      495.00844    
     73000   146000         527.99283      271.03858      13383.924      12771.32       7615.8425      5155.4775      2552.9794      2505.9079      4476.2087      0             -4379.6186      0              0             -160.86415      154978.9       53.714416      53.714416      53.714416      0.72784395     247.15762      503.65656      62.301548    
     74000   148000         534.00994     -27.947413      12764.272      12826.332      7702.6341      5123.6975      2599.0518      2531.5161      4459.9723      0             -4466.8428      0              0             -163.73494      152261.63      53.398635      53.398635      53.398635      0.7408331      86.132053     -57.272655     -112.70164    
     75000   150000         536.51271     -156.08735      12478.235      12823.929      7738.7344      5085.1942      2600.8133      2513.0162      4479.0581      0             -4507.6934      0              0             -164.16648      151861.39      53.351806      53.351806      53.351806      0.74278561    -451.52123      147.29407     -164.03487    
     76000   152000         527.48214      684.1814       14259.533      12723.083      7608.4762      5114.6064      2570.9051      2470.8596      4563.2216      0             -4490.3798      0              0             -161.90509      153982.49      53.599053      53.599053      53.599053      0.73255377     718.68518      630.13518      703.72383    
     77000   154000         527.48749      87.883124      13087.647      12888.577      7608.5534      5280.0236      2650.1273      2478.7505      4569.7775      0             -4418.6318      0              0             -160.51205      155318.86      53.753663      53.753663      53.753663      0.72625085    -38.897407      164.22277      138.32401    
     78000   156000         533.17998     -44.388778      12953.736      13054.09       7690.6627      5363.427       2719.9896      2614.0793      4424.9893      0             -4395.6311      0              0             -160.82295      155018.61      53.719003      53.719003      53.719003      0.72765751    -100.88884      362.00311     -394.2806     
     79000   158000         541.20254      377.49612      13804.408      12950.234      7806.3812      5143.8531      2578.1046      2491.1554      4482.4264      0             -4407.8333      0              0             -160.68453      155152.14      53.734423      53.734423      53.734423      0.72703125     346.83788      968.96744     -183.31696    
     80000   160000         533.02639     -204.98843      12467.115      12926.779      7688.4472      5238.3316      2633.9875      2586.1936      4475.3558      0             -4457.2053      0              0             -162.14231      153757.21      53.572901      53.572901      53.572901      0.73362709    -298.98067     -526.09627      210.11166    
     81000   162000         527.29609      634.36617      14175.925      12754.168      7605.7925      5148.3757      2600.5384      2496.2586      4476.2129      0             -4424.6342      0              0             -162.22676      153677.17      53.563604      53.563604      53.563604      0.73400918     504.62458      603.43491      795.03902    
     82000   164000         539.65062      264.1533       13668.687      13070.983      7783.996       5286.9868      2649.7367      2559.0442      4442.5121      0             -4364.3062      0              0             -160.68569      155151.02      53.734294      53.734294      53.734294      0.72703649     280.07166      513.33939     -0.95115791   
     83000   166000         529.76602     -46.526161      12702.485      12807.754      7641.4191      5166.3345      2562.9887      2561.9733      4440.0323      0             -4398.6598      0              0             -160.69559      155141.47      53.733191      53.733191      53.733191      0.72708126     134.94884     -480.19289      205.66557    
     84000   168000         526.79897      65.393512      12855.822      12709.053      7598.6221      5110.431       2613.3175      2550.0469      4421.2261      0             -4474.1595      0              0             -161.99698      153895.15      53.588917      53.588917      53.588917      0.73296951     1110.8607     -829.25656     -85.42362     
     85000   170000         518.1797      -288.74999      11983.342      12627.904      7474.2965      5153.6076      2543.6999      2550.7977      4456.4081      0             -4397.2981      0              0             -162.87885      153061.92      53.492027      53.492027      53.492027      0.73695961    -585.58247     -179.97398     -100.69354    
     86000   172000         522.0842      -182.84281      12327.883      12744.113      7530.6156      5213.4977      2552.033       2524.3965      4512.5349      0             -4375.4668      0              0             -159.71726      156091.77      53.84268       53.84268       53.84268       0.72265474    -147.48837     -475.94946      74.909399    
     87000   174000         529.26425      275.61969      13529.71       12907.4        7634.1816      5273.2184      2672.2544      2536.9643      4481.2085      0             -4417.2087      0              0             -161.0315       154817.84      53.695802      53.695802      53.695802      0.72860115    -156.54772      30.389291      953.0175     
     88000   176000         521.22119      149.32611      13137.369      12797.201      7518.1673      5279.0339      2535.4926      2531.6637      4559.2454      0             -4347.3679      0              0             -159.60633      156200.26      53.855151      53.855151      53.855151      0.72215282    -149.54675      796.8309      -199.3058     
     89000   178000         519.54069      390.54901      13582.957      12713.406      7493.9275      5219.4781      2559.5342      2529.4275      4590.1044      0             -4459.588       0              0             -163.30067      152666.55      53.445929      53.445929      53.445929      0.73886818     745.61138     -15.039219      441.07487    
     90000   180000         517.13472     -344.0591       11982.101      12766.41       7459.2235      5307.1866      2553.3328      2576.4738      4539.4549      0             -4362.0749      0              0             -159.49747      156306.86      53.8674        53.8674        53.8674        0.72166028    -248.22978     -675.7728      -108.17472    
     91000   182000         522.19701     -285.54152      12094.905      12741.758      7532.2426      5209.5149      2578.6826      2532.7617      4485.4143      0             -4387.3438      0              0             -160.49875      155331.74      53.755148      53.755148      53.755148      0.72619066    -261.07679     -90.375939     -505.17183    
     92000   184000         529.30242     -147.76905      12390.231      12720.683      7634.7322      5085.951       2547.9982      2551.7136      4494.2387      0             -4507.9996      0              0             -162.58598      153337.63      53.524126      53.524126      53.524126      0.73563453     12.585884      171.60656     -627.49959    
     93000   186000         524.5449       549.5152       13951.77       12715.983      7566.109       5149.874       2630.0705      2575.3528      4423.1304      0             -4478.6796      0              0             -161.67543      154201.23      53.62442       53.62442       53.62442       0.73151464    -382.28594      1427.1914      603.64017    
     94000   188000         538.72058      608.63374      14509.633      13112.46       7770.581       5341.8786      2609.3615      2489.1097      4572.6737      0             -4329.2663      0              0             -158.38473      157405         53.993255      53.993255      53.993255      0.7166256      380.36974      892.13004      553.40146    
     95000   190000         523.71563      42.931246      12892.098      12795.308      7554.1475      5241.1604      2618.7669      2550.2082      4474.2486      0             -4402.0633      0              0             -161.26854      154590.29      53.669482      53.669482      53.669482      0.72967362     424.21685     -569.20607      273.78296    
     96000   192000         528.63096      522.15339      14109.602      12919.949      7625.0469      5294.902       2570.6625      2539.8279      4553.5115      0             -4369.0999      0              0             -159.58257      156223.52      53.857824      53.857824      53.857824      0.7220453      657.39123      63.476824      845.59212    
     97000   194000         527.18371      77.291928      13049.562      12872.193      7604.1716      5268.021       2544.0556      2493.9622      4571.4176      0             -4341.4144      0              0             -158.439        157351.09      53.98709       53.98709       53.98709       0.71687114     193.84897     -235.66722      273.69403    
     98000   196000         512.60062     -572.42858      11102.793      12375.86       7393.823       4982.0371      2554.7152      2452.3528      4469.9141      0             -4494.9451      0              0             -163.485        152494.42      53.425835      53.425835      53.425835      0.73970219     54.279588     -1144.7261     -626.83926    
     99000   198000         531.906        824.82646      14607.133      12768.017      7672.2865      5095.7301      2538.0855      2460.3593      4541.2821      0             -4443.997       0              0             -163.06511      152887.09      53.471652      53.471652      53.471652      0.73780237     1097.8188      627.51236      749.14826    
    100000   200000         521.26583     -94.799882      12480.404      12693.72       7518.8113      5174.909       2557.7708      2526.7785      4550.6526      0             -4460.2928      0              0             -161.5816       154290.77      53.634798      53.634798      53.634798      0.73109012     233.00004     -677.46543      160.06575    
    101000   202000         512.12294     -4.6614698      12613.926      12624.551      7386.9329      5237.6186      2542.3877      2533.2823      4481.5674      0             -4319.6188      0              0             -159.51412      156290.55      53.865526      53.865526      53.865526      0.72173562     238.9244       283.80436     -536.71317    
    102000   204000         525.96376     -177.3863       12219.537      12620.574      7586.5748      5033.9995      2498.0065      2492.6167      4424.0413      0             -4380.665       0              0             -160.82105      155020.44      53.719214      53.719214      53.719214      0.72764894    -600.24093      208.40384     -140.3218     
    103000   206000         521.41832      832.92661      14319.481      12465.792      7521.0107      4944.7817      2465.4683      2528.1221      4410.8174      0             -4459.626       0              0             -163.37206      152599.83      53.438142      53.438142      53.438142      0.73919122     203.48626      1535.5637      759.72993    
    104000   208000         519.44873      362.08718      13327.143      12518.75       7492.6011      5026.1492      2479.2508      2493.6654      4511.4763      0             -4458.2433      0              0             -162.85397      153085.3       53.49475       53.49475       53.49475       0.73684706     955.9757      -379.17001      509.45586    
    105000   210000         533.52717      377.66628      13706.571      12856.929      7695.6705      5161.2583      2525.0292      2469.8772      4586.2469      0             -4419.8951      0              0             -161.61428      154259.57      53.631182      53.631182      53.631182      0.73123797    -156.25503      982.40794      306.84593    
    106000   212000         524.73697     -140.64826      12264.278      12576.729      7568.8794      5007.8494      2557.7617      2422.0484      4521.6567      0             -4493.6174      0              0             -163.66683      152325         53.406042      53.406042      53.406042      0.74052489    -249.46135      11.095151     -183.57859    
    107000   214000         521.04301      154.88662      13127.268      12773.996      7515.5972      5258.3988      2568.4855      2611.8302      4455.1802      0             -4377.097       0              0             -159.409        156393.62      53.877364      53.877364      53.877364      0.72125997     389.63259      117.36006     -42.332788    
    108000   216000         511.25172     -38.172223      12326.869      12413.15       7374.3663      5038.7842      2543.8897      2416.981       4516.3854      0             -4438.4719      0              0             -160.85569      154987.06      53.715358      53.715358      53.715358      0.72780564    -170.70966     -183.9955       240.18848    
    109000   218000         533.88666     -462.01346      11827.389      12892.843      7700.8559      5191.9868      2552.4066      2522.0225      4472.8603      0             -4355.3026      0              0             -157.66228      158126.28      54.075601      54.075601      54.075601      0.71335678    -215.51855     -1341.293       170.77116    
    110000   220000         516.56674     -20.562323      12420.493      12467.212      7451.0309      5016.1813      2522.7746      2462.29        4394.4125      0             -4363.2958      0              0             -160.02478      155791.8       53.808167      53.808167      53.808167      0.72404615     372.67364     -712.61528      278.25467    
    111000   222000         530.9865       6.6538612      12828.668      12813.564      7659.0235      5154.5409      2544.0881      2456.3531      4509.0818      0             -4354.9821      0              0             -160.17269      155647.95      53.7916        53.7916        53.7916        0.72471535    -328.12947      353.83602     -5.7449695    
    112000   224000         518.92352      36.607598      12644.171      12561.444      7485.0254      5076.4187      2540.332       2481.1544      4435.5821      0             -4380.6499      0              0             -160.89126      154952.79      53.711399      53.711399      53.711399      0.72796659    -548.307        650.21167      7.91812      
    113000   226000         516.5617       167.15252      13078.98       12700.952      7450.9582      5249.9941      2560.9473      2552.492       4538.7194      0             -4402.1647      0              0             -160.7672       155072.36      53.725211      53.725211      53.725211      0.72740529     312.90173     -1.2091191      189.76495    
    114000   228000         533.42335     -905.09968      10791.605      12826.355      7694.173       5132.1819      2567.2116      2517.6547      4507.6579      0             -4460.3423      0              0             -161.73092      154148.32      53.618286      53.618286      53.618286      0.73176573    -882.77863     -312.09576     -1520.4246    
    115000   230000         520.54048      428.49525      13604.483      12645.997      7508.3487      5137.6478      2525.7742      2502.7383      4580.6         0             -4471.4647      0              0             -162.5429       153378.27      53.528854      53.528854      53.528854      0.7354396      138.3435       824.24043      322.90183    
    116000   232000         526.96065     -490.56787      11572.825      12678.266      7600.9541      5077.3117      2493.1663      2525.1174      4520.6778      0             -4461.6497      0              0             -161.35084      154511.43      53.660355      53.660355      53.660355      0.73004601    -457.67533     -435.70773     -578.32056    
    117000   234000         522.83802     -564.51591      11431.904      12705.796      7541.4887      5164.3074      2555.5384      2527.7309      4543.0733      0             -4462.0352      0              0             -161.12062      154732.21      53.6859        53.6859        53.6859        0.72900437    -750.98257     -505.08079     -437.48437    
    118000   236000         516.84766      60.646477      12444.464      12310.384      7455.0829      4855.3008      2487.4763      2389.9267      4487.8224      0             -4509.9246      0              0             -164.45577      151594.26      53.320504      53.320504      53.320504      0.74409452    -614.37438      624.18166      172.13215    
    119000   238000         524.7982      -615.50052      11340.106      12723.346      7569.7626      5153.5832      2476.1438      2533.6321      4595.7643      0             -4451.957       0              0             -161.78519      154096.62      53.612291      53.612291      53.612291      0.73201125    -601.4035      -704.66224     -540.43582    
    120000   240000         511.23904     -270.61625      11726.221      12326.101      7374.1834      4951.9181      2471.474       2520.3626      4480.3072      0             -4520.2257      0              0             -164.01996      151997.05      53.367687      53.367687      53.367687      0.74212268    -101.40848     -114.47179     -595.96848    
    121000   242000         503.39453     -405.42596      11330.829      12239.199      7261.0331      4978.1656      2505.1414      2474.9089      4472.5479      0             -4474.4327      0              0             -162.27681      153629.78      53.558096      53.558096      53.558096      0.73423563    -1026.1999     -277.71673      87.638761    
    122000   244000         517.27529      41.002247      12696.248      12602.98       7461.2511      5141.7289      2493.9971      2511.3441      4517.675       0             -4381.2873      0              0             -159.83822      155973.64      53.829094      53.829094      53.829094      0.72320205    -192.07845     -185.99118      501.07638    
    123000   246000         524.68298     -62.07014       12512.216      12652.086      7568.1007      5083.9849      2491.5645      2492.9123      4523.1091      0             -4423.601       0              0             -161.34945      154512.77      53.660509      53.660509      53.660509      0.73003971    -74.655426     -312.56487      201.00987    
    124000   248000         523.24206      117.73244      12755.687      12495.231      7547.3166      4947.914       2478.8526      2542.8034      4447.7329      0             -4521.4749      0              0             -164.34986      151691.94      53.331955      53.331955      53.331955      0.74361533     427.43644     -418.71055      344.47143    
    125000   250000         524.17687      29.54668       12519.781      12453.825      7560.8004      4893.0247      2520.4558      2468.5891      4340.7665      0             -4436.7867      0              0             -162.87888      153061.89      53.492023      53.492023      53.492023      0.73695979     185.9426      -284.73928      187.43672    
    126000   252000         520.66569      523.80556      13723.248      12554.873      7510.1548      5044.7185      2571.4754      2447.1446      4473.5725      0             -4447.474       0              0             -163.00305      152945.29      53.478437      53.478437      53.478437      0.7375216      1155.528      -280.21088      696.0996     
    127000   254000         518.98735      470.45057      13395.119      12333.666      7485.9461      4847.7199      2406.0437      2455.687       4409.5628      0             -4423.5736      0              0             -161.1466       154707.27      53.683016      53.683016      53.683016      0.7291219      610.40875      159.20897      641.73399    
    128000   256000         514.80937      56.062502      12595.417      12467.217      7425.6824      5041.5341      2540.4917      2484.5891      4376.4038      0             -4359.9504      0              0             -158.99705      156798.82      53.923855      53.923855      53.923855      0.71939607     170.67517     -358.51082      356.02315    
    129000   258000         513.22807     -583.99536      11150.215      12490.768      7402.8734      5087.8948      2536.7687      2449.9072      4454.4594      0             -4353.2405      0              0             -158.39199      157397.79      53.99243       53.99243       53.99243       0.71665845    -1074.6095     -349.54922     -327.82741    
    130000   260000         526.8898       693.76917      14032.802      12472.792      7599.9322      4872.86        2550.8893      2439.0093      4375.4862      0             -4492.5248      0              0             -161.69453      154183.01      53.622309      53.622309      53.622309      0.73160105     1162.0161      967.07332     -47.781964    
    131000   262000         521.91464     -72.515765      12336.516      12498.236      7528.1697      4970.0666      2519.1634      2588.4513      4351.0279      0             -4488.576       0              0             -163.03319      152917.02      53.475141      53.475141      53.475141      0.73765797     666.53953     -432.52535     -451.56147    
    132000   264000         522.81888      425.63558      13547.124      12599.354      7541.2127      5058.1411      2606.7832      2466.2719      4493.8251      0             -4508.7392      0              0             -163.28362      152682.49      53.447789      53.447789      53.447789      0.73879104     298.86648      305.14645      672.89381    
    133000   266000         525.44472     -73.309134      12434.33       12598.915      7579.0881      5019.8269      2549.7537      2452.0123      4502.9515      0             -4484.8906      0              0             -161.94816      153941.55      53.594301      53.594301      53.594301      0.73274862    -697.87982      100.36734      377.58507    
    134000   268000         521.8052       595.06653      13661.713      12315.824      7526.5912      4789.2327      2463.3947      2417.7093      4358.1024      0             -4449.9737      0              0             -160.7548       155084.32      53.726593      53.726593      53.726593      0.72734917    -44.648488      1000.4824      829.36571    
    135000   270000         520.65318      258.2275       13220.708      12643.182      7509.9743      5133.2076      2528.2433      2544.3082      4485.6168      0             -4424.9608      0              0             -162.56938      153353.29      53.525948      53.525948      53.525948      0.7355594      507.70776     -236.29059      503.26532    
    136000   272000         516.80946     -135.39374      11956.562      12260.156      7454.532       4805.6239      2508.1756      2464.8971      4296.1491      0             -4463.5979      0              0             -162.14872      153751.13      53.572195      53.572195      53.572195      0.7336561     -200.33422     -524.29528      318.44827    
    137000   274000         514.27838      370.67437      13226.606      12397.548      7418.0233      4979.525       2534.2147      2551.4435      4342.7927      0             -4448.9259      0              0             -162.56075      153361.43      53.526895      53.526895      53.526895      0.73552035     162.27489      838.23665      111.51156    
    138000   276000         509.76971     -335.59288      11591.198      12354.308      7352.9896      5001.3186      2477.4344      2447.8066      4418.2461      0             -4342.1685      0              0             -159.89433      155918.91      53.822796      53.822796      53.822796      0.72345592    -706.37666     -188.8425      -111.55946    
    139000   278000         508.84625      405.91953      13241.006      12312.379      7339.6694      4972.7095      2585.3657      2425.838       4369.6225      0             -4408.1168      0              0             -158.93024      156864.73      53.931409      53.931409      53.931409      0.71909381     662.85578      130.32443      424.57837    
    140000   280000         512.90843      214.61936      12599.235      12118.47       7398.263       4720.2074      2463.8425      2377.1298      4350.1385      0             -4470.9034      0              0             -162.30946      153598.87      53.554505      53.554505      53.554505      0.73438337    -140.22137      330.30078      453.77869    
    141000   282000         510.20989     -425.68229      11149.668      12083.235      7359.3388      4723.8959      2474.7936      2436.3322      4409.3716      0             -4596.6016      0              0             -165.78597      150377.92      53.177513      53.177513      53.177513      0.75011314    -483.30604     -299.00884     -494.732      
    142000   284000         508.18685      221.44994      12621.678      12124.587      7330.1582      4794.4285      2494.246       2380.9538      4402.4137      0             -4483.185       0              0             -161.97458      153916.43      53.591386      53.591386      53.591386      0.7328682     -64.344718     -225.63839      954.33293    
    143000   286000         520.53288     -353.92499      11749.903      12550.539      7508.2391      5042.3003      2556.7935      2457.6593      4435.41        0             -4407.5625      0              0             -160.72516      155112.92      53.729895      53.729895      53.729895      0.72721509    -363.75956     -37.138509     -660.8769     
    144000   288000         513.94744     -140.5323       11962.435      12272.548      7413.2497      4859.2984      2509.5246      2480.4162      4424.546       0             -4555.1884      0              0             -164.76459      151310.12      53.28717       53.28717       53.28717       0.74549181    -23.310668     -512.2986       114.01236    
    145000   290000         518.67812      439.17586      13349.932      12363.933      7481.4857      4882.4468      2489.7903      2503.6544      4349.1239      0             -4460.1219      0              0             -161.94566      153943.92      53.594577      53.594577      53.594577      0.73273733     254.34104     -66.706109      1129.8926    
    146000   292000         512.37933      85.707214      12385.519      12190.236      7390.6311      4799.6053      2460.4876      2424.1472      4318.6094      0             -4403.639       0              0             -159.57341      156232.48      53.858854      53.858854      53.858854      0.72200386     143.52961      94.735211      18.856825    
    147000   294000         517.80457     -92.222083      12179.234      12387.098      7468.8855      4918.2121      2497.9475      2453.7275      4406.7126      0             -4440.1755      0              0             -161.31079      154549.79      53.664795      53.664795      53.664795      0.72986482    -667.43211     -237.52277      628.28864    
    148000   296000         507.24665     -338.14368      11413.422      12176.665      7316.5967      4860.0679      2482.8266      2498.4627      4335.2388      0             -4456.4602      0              0             -161.08178      154769.52      53.690215      53.690215      53.690215      0.72882862    -831.28087     -281.21258      98.062399    
    149000   298000         511.94017     -750.43693      10639.824      12321.71       7384.2966      4937.4133      2495.5172      2491.0502      4439.1278      0             -4488.282       0              0             -162.22785      153676.14      53.563484      53.563484      53.563484      0.73401411    -469.55834     -498.15671     -1283.5957    
    150000   300000         516.20971     -285.26238      11672.605      12305.958      7445.881       4860.0768      2481.9469      2483.6133      4380.3666      0             -4485.85        0              0             -163.75942      152238.88      53.395975      53.395975      53.395975      0.74094382    -200.9567      -8.3657901     -646.46465    
    151000   302000         514.14122     -86.182033      12060.804      12254.38       7416.0449      4838.335       2484.9092      2496.2167      4382.5439      0             -4525.3349      0              0             -161.8729       154013.12      53.602606      53.602606      53.602606      0.7324081      160.64209     -362.0587      -57.129492    
    152000   304000         511.46249      214.1409       12538.235      12059.94       7377.4065      4682.5334      2439.5342      2381.6342      4335.1316      0             -4473.7666      0              0             -162.78401      153151.09      53.502413      53.502413      53.502413      0.73653053     803.71224      529.82105     -691.11058    
    153000   306000         505.43725     -382.19006      11380.092      12231.576      7290.4976      4941.0781      2532.6115      2503.7281      4420.4151      0             -4515.6767      0              0             -163.19644      152764.05      53.457305      53.457305      53.457305      0.73839658    -222.49423     -666.70324     -257.3727     
    154000   308000         521.3034      -487.35858      11162.563      12242.404      7519.3531      4723.0514      2502.2841      2409.757       4374.9481      0             -4563.9378      0              0             -164.09542      151927.15      53.359506      53.359506      53.359506      0.7424641     -480.42985     -400.2559      -581.38998    
    155000   310000         514.36754      297.36192      12754.151      12094.021      7419.3093      4674.7117      2475.1654      2309.9343      4394.0491      0             -4504.4371      0              0             -163.78105      152218.76      53.393624      53.393624      53.393624      0.74104173     521.48033      83.249502      287.35593    
    156000   312000         516.07256     -60.990709      12145.022      12280.256      7443.9027      4836.3531      2524.0617      2415.1352      4397.3659      0             -4500.2097      0              0             -163.978        152035.94      53.372239      53.372239      53.372239      0.74193284    -152.5597      -140.94508      110.53266    
    157000   314000         520.03037      19.366007      12557.097      12513.682      7500.9908      5012.6914      2568.1027      2455.0378      4420.3814      0             -4430.8306      0              0             -162.1845       153717.21      53.568255      53.568255      53.568255      0.73381799    -45.205074      182.63423     -79.331133    
    158000   316000         522.95336      421.30881      13329.258      12394.306      7543.1525      4851.1539      2442.1608      2495.2057      4406.9547      0             -4493.1674      0              0             -163.8397       152164.28      53.387252      53.387252      53.387252      0.74130708     286.90405      187.39176      789.63062    
    159000   318000         505.95198     -37.452294      12054.703      12137.441      7297.9222      4839.5191      2491.6636      2535.8422      4348.0068      0             -4535.9935      0              0             -164.5804       151479.45      53.307041      53.307041      53.307041      0.74465846     718.16198     -93.705463     -736.8134     
    160000   320000         510.41185     -562.27508      10987.916      12252.042      7362.2518      4889.7905      2518.3858      2442.0821      4349.7763      0             -4420.4536      0              0             -161.72086      154157.91      53.619398      53.619398      53.619398      0.73172019    -1136.5335     -283.95707     -266.33469    
    161000   322000         508.0913       37.507598      12197.804      12114.764      7328.78        4785.9839      2539.9577      2430.6541      4325.8842      0             -4510.5123      0              0             -164.22485      151807.41      53.345484      53.345484      53.345484      0.74304971     724.71282     -1074.4479      462.25791    
    162000   324000         506.3769       179.61895      12578.139      12182.51       7304.0512      4878.4588      2562.6239      2474.883       4373.098       0             -4532.1461      0              0             -165.0713       151028.98      53.254146      53.254146      53.254146      0.74687956     45.567396      477.79775      15.491691    
    163000   326000         508.6392      -179.42068      11664.822      12057.412      7336.683       4720.729       2554.7699      2433.9215      4329.8308      0             -4597.7932      0              0             -166.16572      150034.25      53.136972      53.136972      53.136972      0.75183135     502.91304     -1149.6145      108.43946    
    164000   328000         517.6324      -141.11357      11873.648      12183.959      7466.4021      4717.5569      2553.1558      2426.5417      4319.1339      0             -4581.2745      0              0             -165.34066      150782.93      53.225211      53.225211      53.225211      0.7480983     -465.67698     -216.10664      258.4429     
    165000   330000         505.86639     -190.635        11581.017      12001.821      7296.6876      4705.1335      2489.1669      2433.9512      4351.8126      0             -4569.7972      0              0             -164.71399      151356.6       53.292626      53.292626      53.292626      0.74526288     194.30738     -523.59758     -242.61478    
    166000   332000         494.77653      20.657259      12014.527      11969.157      7136.7259      4832.4308      2586.5075      2391.7804      4399.1426      0             -4544.9998      0              0             -165.54039      150601         53.203796      53.203796      53.203796      0.74900201     537.28131      378.89053     -854.20006    
    167000   334000         515.4269      -540.95526      10898.937      12092.076      7434.5896      4657.486       2402.7812      2440.0919      4412.9457      0             -4598.3327      0              0             -164.84584      151235.53      53.278413      53.278413      53.278413      0.74585947    -871.1402      -91.426917     -660.29867    
    168000   336000         511.02255      532.32136      13339.863      12160.138      7371.0607      4789.0773      2556.3261      2540.4308      4220.0907      0             -4527.7704      0              0             -164.05936      151960.54      53.363415      53.363415      53.363415      0.74230094     894.76128      306.42207      395.78072    
    169000   338000         516.90212      76.198286      12355.099      12187.993      7455.8685      4732.1249      2531.8469      2430.9179      4356.8587      0             -4587.4986      0              0             -165.79139      150373.01      53.176934      53.176934      53.176934      0.75013766     99.745716      261.8112      -132.96205    
    170000   340000         503.91168     -60.88586       11831.264      11967.823      7268.4925      4699.3301      2427.0393      2456.6247      4327.5039      0             -4511.8378      0              0             -162.10878      153789.02      53.576595      53.576595      53.576595      0.73347536    -170.98269      439.02799     -450.70289    
    171000   342000         510.03085     -35.384727      11925.315      12003.694      7356.7562      4646.9381      2419.1386      2417.4991      4350.2063      0             -4539.9059      0              0             -164.14369      151882.47      53.354274      53.354274      53.354274      0.74268252    -29.402734      833.93424     -910.68569    
    172000   344000         495.57638     -559.89263      10472.32       11705.661      7148.263       4557.3976      2454.2713      2419.5571      4261.8279      0             -4578.2587      0              0             -165.05526      151043.65      53.255871      53.255871      53.255871      0.74680701    -967.70903     -339.45861     -372.51024    
    173000   346000         507.71607      98.226325      12161.965      11944.008      7323.3676      4620.64        2410.5403      2421.0178      4297.7678      0             -4508.6858      0              0             -163.85698      152148.23      53.385375      53.385375      53.385375      0.74138527    -783.17535      507.59491      570.25941    
    174000   348000         504.87519     -40.381113      11833.384      11922.334      7282.3904      4639.9438      2406.5499      2392.5832      4363.3332      0             -4522.5225      0              0             -165.05909      151040.14      53.255459      53.255459      53.255459      0.74682433     481.7937      -218.13908     -384.79796    
    175000   350000         503.89981      430.80372      12782.46       11832.853      7268.3213      4564.5316      2508.7703      2365.6505      4289.4731      0             -4599.3623      0              0             -164.94651      151143.23      53.267572      53.267572      53.267572      0.74631495     302.84779      1128.0018     -138.43843    
    176000   352000         501.23843      112.0295       12228.743      11979.675      7229.9332      4749.7422      2514.4828      2425.6703      4354.4407      0             -4544.8515      0              0             -163.53983      152443.29      53.419863      53.419863      53.419863      0.7399503     -199.65181      729.98204     -194.24173    
    177000   354000         512.05231      220.78982      12374.338      11887.343      7385.9141      4501.429       2406.1204      2427.1849      4222.1321      0             -4554.0083      0              0             -164.84003      151240.87      53.279039      53.279039      53.279039      0.74583317     564.60757     -190.16005      287.92193    
    178000   356000         503.76502      754.51274      13542.497      11888.365      7266.377       4621.9883      2520.4042      2381.5276      4332.232       0             -4612.1755      0              0             -165.84571      150323.75      53.171127      53.171127      53.171127      0.75038345     1097.4281      990.57936      175.53071    
    179000   358000         500.12921     -737.63088      10402.749      12017.889      7213.9336      4803.9555      2527.1311      2498.549       4360.4373      0             -4582.1618      0              0             -166.04918      150139.56      53.149401      53.149401      53.149401      0.75130405    -715.72964     -811.82126     -685.34173    
    180000   360000         499.0808      -880.70512      9850.4364      11796.421      7198.8113      4597.6102      2475.7034      2365.2922      4308.1095      0             -4551.495       0              0             -164.55033      151507.14      53.310288      53.310288      53.310288      0.74452239    -935.37049     -1250.2188     -456.5261     
    181000   362000         511.64662      317.37885      12857.504      12158.602      7380.0624      4778.5391      2495.1686      2500.2786      4341.1749      0             -4558.083       0              0             -165.10849      150994.96      53.250147      53.250147      53.250147      0.74704783     277.0235       792.26508     -117.15202    
    182000   364000         499.46871      735.91098      13459.388      11826.847      7204.4065      4622.4403      2500.908       2332.5903      4325.7574      0             -4536.8154      0              0             -163.89615      152111.86      53.381122      53.381122      53.381122      0.74156251     505.22375      787.30865      915.20053    
    183000   366000         516.8516       198.24921      12706.09       12261.538      7455.1397      4806.3983      2581.2013      2456.2505      4252.6794      0             -4483.7329      0              0             -162.14233      153757.2       53.572899      53.572899      53.572899      0.73362716     3.6233754      318.84979      272.27446    
    184000   368000         503.57629      144.99211      12146.013      11822.98       7263.6548      4559.3253      2465.5484      2339.6749      4282.015       0             -4527.913       0              0             -163.19459      152765.78      53.457506      53.457506      53.457506      0.73838823     618.97518     -525.90245      341.9036     
    185000   370000         495.65335      191.96826      12200.876      11774.336      7149.3732      4624.9623      2494.3309      2391.1374      4281.8735      0             -4542.3794      0              0             -163.63528      152354.37      53.409474      53.409474      53.409474      0.74038215    -78.036246      684.86848     -30.927445    
    186000   372000         493.56424     -168.62935      11317.607      11691.737      7119.2396      4572.4975      2423.8407      2357.844       4290.2406      0             -4499.4279      0              0             -163.87725      152129.41      53.383174      53.383174      53.383174      0.74147697    -288.02325      309.46808     -527.33288    
    187000   374000         512.05673     -44.95154       11943.82       12044.412      7385.9779      4658.4337      2431.2689      2399.1813      4359.223       0             -4531.2394      0              0             -162.47605      153441.38      53.536194      53.536194      53.536194      0.73513714    -266.98628     -154.15112      286.28278    
    188000   376000         500.39831      15.02948       11892.027      11858.67       7217.8152      4640.855       2405.9231      2441.1586      4365.955       0             -4572.1819      0              0             -163.82132      152181.35      53.389249      53.389249      53.389249      0.74122391    -722.28442      329.65618      437.71669    
    189000   378000         494.02437     -22.53326       11890.017      11941.515      7125.8766      4815.6381      2458.0508      2440.95        4312.9885      0             -4396.3512      0              0             -159.0905       156706.71      53.913294      53.913294      53.913294      0.71981891     450.04009      97.00247      -614.64234    
    190000   380000         504.82184     -522.07462      10714.62       11880.165      7281.6208      4598.5437      2452.9331      2404.1264      4280.1186      0             -4538.6345      0              0             -162.85894      153080.63      53.494207      53.494207      53.494207      0.73686953    -1212.4801     -361.91397      8.1702125    
    191000   382000         497.70262      74.883251      11989.45       11822.433      7178.9323      4643.5005      2480.717       2392.7826      4261.2458      0             -4491.2448      0              0             -163.01629      152932.87      53.476989      53.476989      53.476989      0.7375815      77.79968       320.83266     -173.98259    
    192000   384000         500.15318     -227.69923      11342.309      11852.269      7214.2794      4637.9896      2428.259       2377.8576      4354.3882      0             -4522.5152      0              0             -162.34282      153567.3       53.550836      53.550836      53.550836      0.73453432     209.18977     -334.35844     -557.92902    
    193000   386000         500.19875     -519.58485      10612.321      11774.108      7214.9367      4559.1717      2427.7037      2404.4198      4232.3263      0             -4505.2781      0              0             -162.60631      153318.46      53.521895      53.521895      53.521895      0.7357265     -264.87595     -461.80847     -832.07014    
    194000   388000         502.17925     -413.7216       11104.333      12029.911      7243.5037      4786.4069      2515.6255      2431.2384      4338.9007      0             -4499.3577      0              0             -162.51858      153401.23      53.531525      53.531525      53.531525      0.73532954    -331.67256     -541.78496     -367.70729    
    195000   390000         498.96024      109.1188       12015.248      11774.019      7197.0722      4576.9472      2444.2366      2365.6135      4336.5284      0             -4569.4313      0              0             -164.46726      151583.66      53.319262      53.319262      53.319262      0.74414655     254.73076      273.67008     -201.04443    
    196000   392000         491.49172     -358.34294      11028.295      11815.54       7089.3453      4726.1942      2454.3571      2450.8571      4392.4532      0             -4571.4732      0              0             -165.49957      150638.16      53.208171      53.208171      53.208171      0.74881729    -342.22379     -206.57376     -526.23125    
    197000   394000         496.12739      569.81212      13085.424      11821.527      7156.2109      4665.3157      2396.4674      2487.2476      4333.3167      0             -4551.716       0              0             -163.91833      152091.28      53.378714      53.378714      53.378714      0.74166285     682.51297      668.21666      358.70672    
    198000   396000         496.25908      408.7872       12762.685      11855.197      7158.1103      4697.0866      2420.8896      2433.3208      4381.2448      0             -4538.3685      0              0             -163.78124      152218.59      53.393604      53.393604      53.393604      0.74104256     23.633423      110.33349      1092.3947    
    199000   398000         501.40962      101.54818      12039.848      11813.819      7232.4025      4581.4166      2385.526       2419.4162      4297.6568      0             -4521.1824      0              0             -163.34851      152621.83      53.44071       53.44071       53.44071       0.73908466     500.57795      248.10545     -444.03884    
    200000   400000         502.19658     -40.698837      11925.842      12016.464      7243.7537      4772.7103      2424.6227      2458.3928      4392.9372      0             -4503.2425      0              0             -163.2888       152677.65      53.447224      53.447224      53.447224      0.73881447    -456.92134      396.92332     -62.098489    
[...]
    958000   1916000        305.00095      251.47003      5103.4581      4616.88        4399.3764      217.5036       1520.4723      1518.4791      2816.0348      0             -5637.4826      0              0             -187.90633      132675.41      51.003128      51.003128      51.003128      0.85019867     534.99047     -764.67365      984.09328    
    959000   1918000        309.98376      1190.4775      7010.1544      4692.1488      4471.249       220.8998       1508.8647      1499.2392      2796.2078      0             -5583.4119      0              0             -186.73015      133511.11      51.10999       51.10999       51.10999       0.84487694     730.27124      1080.5512      1760.6101    
    960000   1920000        309.93115     -92.073232      4470.6595      4649.1027      4470.4903      178.61243      1506.5842      1481.6538      2750.5828      0             -5560.2084      0              0             -187.60354      132889.55      51.030553      51.030553      51.030553      0.84882866     174.17647     -372.83577     -77.560395    
    961000   1922000        305.87894      68.819456      4770.1409      4637.0208      4412.0406      224.98014      1530.1411      1489.3926      2820.0501      0             -5614.6037      0              0             -187.96419      132634.57      50.997894      50.997894      50.997894      0.85046044    -107.23772      98.810966      214.88512    
    962000   1924000        308.26658     -508.41934      3739.5279      4723.0347      4446.4802      276.55447      1505.9791      1514.5858      2886.2841      0             -5630.2945      0              0             -187.95438      132641.49      50.998781      50.998781      50.998781      0.85041608    -210.9418      -957.74579     -356.57044    
    963000   1926000        309.21362      633.61306      6024.6192      4798.9559      4460.1406      338.81538      1516.6456      1530.4493      2896.837       0             -5605.1164      0              0             -187.95795      132638.97      50.998459      50.998459      50.998459      0.85043221     775.76704      700.06314      425.00901    
    964000   1928000        308.28576      27.056497      4632.8116      4580.5209      4446.7569      133.764        1483.36        1478.1972      2798.7177      0             -5626.511       0              0             -188.12862      132518.64      50.983032      50.983032      50.983032      0.85120444     418.52403     -50.24401      -287.11052    
    965000   1930000        305.94107     -557.23316      3539.5721      4612.9667      4412.9368      200.02991      1525.6745      1495.5515      2821.5736      0             -5642.7697      0              0             -188.74926      132082.9       50.92709       50.92709       50.92709       0.85401259    -701.99793     -808.932       -160.76955    
    966000   1932000        311.32295     -9.0975774      4783.8921      4801.4652      4490.5658      310.89943      1548.3428      1590.7944      2793.4577      0             -5621.6954      0              0             -188.22812      132448.6       50.974047      50.974047      50.974047      0.8516546      80.65198       120.07147     -228.01618    
    967000   1934000        300.25917      67.911627      4683.2434      4551.79        4330.9803      220.80976      1538.9212      1454.164       2822.0397      0             -5594.3152      0              0             -187.8366       132724.67      51.009439      51.009439      51.009439      0.84988314    -20.757908     -175.36134      399.85413    
    968000   1936000        309.86624     -157.48187      4408.9104      4715.237       4469.554       245.68298      1565.9122      1482.2443      2785.3799      0             -5587.8534      0              0             -186.91905      133376.18      51.092767      51.092767      51.092767      0.84573163    -242.84256      11.115944     -240.71901    
    969000   1938000        310.43017      926.58765      6489.8868      4688.1033      4477.6881      210.41516      1495.611       1502.3735      2804.7827      0             -5592.352       0              0             -186.97849      133333.78      51.087353      51.087353      51.087353      0.84600056     1340.1928      1194.1936      245.37659    
    970000   1940000        303.20612      348.57701      5284.0372      4612.7001      4373.4875      239.21256      1534.904       1481.2103      2844.9029      0             -5621.8047      0              0             -188.78428      132058.4       50.923941      50.923941      50.923941      0.85417101     689.62018      696.44143     -340.3306     
    971000   1942000        309.33731      42.590092      4778.5491      4695.8193      4461.9246      233.89466      1532.7872      1459.5096      2807.7246      0             -5566.1267      0              0             -187.17769      133191.88      51.069223      51.069223      51.069223      0.84690188     441.04201      89.618197     -402.88994    
    972000   1944000        301.49711      555.81512      5628.5921      4554.1027      4348.8364      205.26625      1541.1328      1471.4681      2811.4704      0             -5618.805       0              0             -188.07712      132554.93      50.987685      50.987685      50.987685      0.85097141     280.25088      391.91519      995.27931    
    973000   1946000        305.38798     -52.395558      4488.8043      4589.469       4404.9589      184.51002      1526.6685      1536.3384      2787.8809      0             -5666.3778      0              0             -189.24536      131736.65      50.88255       50.88255       50.88255       0.85625721     156.92357     -872.95088      558.84063    
    974000   1948000        297.42804      109.87677      4657.7765      4444.4426      4290.1437      154.29892      1526.7884      1486.7951      2728.3232      0             -5587.6077      0              0             -187.2638       133130.64      51.061394      51.061394      51.061394      0.84729148    -510.98275      523.43377      317.17929    
    975000   1950000        302.60939     -201.08887      4191.6305      4580.0971      4364.8801      215.21696      1557.7579      1505.1691      2782.8564      0             -5630.5665      0              0             -188.20975      132461.52      50.975705      50.975705      50.975705      0.8515715     -420.86255     -193.29823      10.894176    
    976000   1952000        309.13797     -747.14576      3250.3891      4699.5574      4459.0493      240.50812      1554.6464      1459.0827      2797.9029      0             -5571.1238      0              0             -187.4538       132995.7       51.044137      51.044137      51.044137      0.84815114    -693.51868     -383.19794     -1164.7207    
    977000   1954000        306.17656     -820.45494      2949.228       4529.9499      4416.3335      113.61645      1484.8101      1446.8663      2843.4669      0             -5661.5269      0              0             -188.71525      132106.71      50.93015       50.93015       50.93015       0.85385867    -958.48242     -154.90426     -1347.9781    
    978000   1956000        305.09769     -467.60412      3698.2076      4608.3619      4400.7717      207.59018      1540.8005      1486.8042      2795.8531      0             -5615.8677      0              0             -186.7975       133462.97      51.103847      51.103847      51.103847      0.84518167    -609.13947     -135.57976     -658.09312    
    979000   1958000        302.59747     -476.80291      3529.1904      4445.3826      4364.7082      80.674417      1510.9907      1443.4381      2752.9749      0             -5626.7292      0              0             -189.21697      131756.42      50.885095      50.885095      50.885095      0.85612875    -244.63655     -382.76776     -803.00442    
    980000   1960000        307.66613      431.63989      5335.6148      4505.4555      4437.8193      67.63625       1485.4696      1470.677       2751.6592      0             -5640.1696      0              0             -189.04618      131875.45      50.900414      50.900414      50.900414      0.85535599     669.69652      754.42139     -129.19823    
    981000   1962000        303.48914      307.37431      5051.2623      4457.9095      4377.5698      80.339742      1520.7702      1426.172       2763.212       0             -5629.8144      0              0             -188.34856      132363.9       50.963179      50.963179      50.963179      0.85219957     298.17137      806.57157     -182.62       
    982000   1964000        303.21013      634.84476      5625.9705      4410.7606      4373.5453      37.215296      1475.9751      1467.7648      2770.1339      0             -5676.6585      0              0             -189.94329      131252.59      50.820153      50.820153      50.820153      0.85941505     693.10253      160.16178      1051.27      
    983000   1966000        296.03428     -424.65343      3590.7049      4412.8118      4270.0398      142.77199      1480.1589      1486.8265      2797.8484      0             -5622.0618      0              0             -187.80801      132744.87      51.012027      51.012027      51.012027      0.84975379    -556.97544      18.567849     -735.55271    
    984000   1968000        304.36208     -471.68105      3750.7179      4669.2994      4390.1612      279.13826      1546.7572      1511.2191      2823.7491      0             -5602.5871      0              0             -186.69748      133534.47      51.112971      51.112971      51.112971      0.84472912    -765.61474     -539.76275     -109.66565    
    985000   1970000        301.45088     -738.05434      3022.657       4464.4014      4348.1697      116.23173      1513.1834      1399.2976      2785.9341      0             -5582.1834      0              0             -186.12632      133944.24      51.165201      51.165201      51.165201      0.84214485    -1123.4494     -490.31662     -600.39698    
    986000   1972000        301.68433     -518.44998      3483.0866      4491.9293      4351.537       140.39228      1544.1622      1396.8281      2815.1751      0             -5615.7732      0              0             -186.84915      133426.08      51.099138      51.099138      51.099138      0.84541537    -266.93461     -701.76529     -586.65005    
    987000   1974000        301.09054     -431.83865      3575.2721      4402.3604      4342.972       59.388367      1494.2855      1447.9229      2775.3375      0             -5658.1574      0              0             -189.83548      131327.13      50.829771      50.829771      50.829771      0.85892728    -417.35807     -401.03816     -477.11973    
    988000   1976000        301.66384     -416.5637       3632.9333      4439.5924      4351.2415      88.350916      1458.3522      1461.8334      2786.2238      0             -5618.0585      0              0             -187.75829      132780.02      51.01653       51.01653       51.01653       0.84952882    -383.02785     -240.05721     -626.60604    
    989000   1978000        303.41184      275.15988      4960.8699      4431.9382      4376.4549      55.483377      1449.73        1453.9723      2762.2768      0             -5610.4957      0              0             -189.14432      131807.02      50.891609      50.891609      50.891609      0.85580004     9.5117981      601.12152      214.84634    
    990000   1980000        303.71568     -47.969955      4357.1814      4449.9403      4380.8374      69.102969      1490.5235      1447.38        2743.7668      0             -5612.5674      0              0             -188.02742      132589.97      50.992177      50.992177      50.992177      0.85074652    -156.81958      381.45034     -368.54062    
    991000   1982000        305.47588     -101.97755      4370.9387      4568.2343      4406.2267      162.00756      1527.2433      1445.8585      2813.3358      0             -5624.4301      0              0             -187.92952      132659.04      51.001031      51.001031      51.001031      0.85030356     185.73444     -675.39849      183.73142    
    992000   1984000        303.78825     -177.17098      4139.8796      4481.6025      4381.8843      99.718277      1470.7364      1486.2259      2760.7159      0             -5617.96        0              0             -188.50643      132253.05      50.948949      50.948949      50.948949      0.85291386    -88.784768     -413.05406     -29.674103    
    993000   1986000        306.89761      548.97182      5455.8171      4401.791       4426.734      -24.943086      1448.0545      1462.0142      2706.7263      0             -5641.7381      0              0             -189.36792      131651.39      50.871571      50.871571      50.871571      0.85681173     104.26743      883.75984      658.88817    
    994000   1988000        304.62076     -509.66602      3520.6369      4508.6936      4393.8925      114.80119      1508.5111      1480.7796      2750.1294      0             -5624.6189      0              0             -187.54762      132929.17      51.035624      51.035624      51.035624      0.84857564    -645.78911     -579.73574     -303.47321    
    995000   1990000        303.08133     -198.09236      4041.5768      4425.5198      4371.6876      53.832275      1496.4193      1459.5953      2709.7799      0             -5611.9622      0              0             -187.58955      132899.46      51.031822      51.031822      51.031822      0.84876534    -741.95513     -559.70561      707.38368    
    996000   1992000        306.36034     -317.20877      3789.1711      4402.1876      4418.9844     -16.796722      1473.1092      1415.5855      2739.6231      0             -5645.1145      0              0             -188.13984      132510.74      50.982019      50.982019      50.982019      0.85125517     26.77908      -860.91107     -117.49433    
    997000   1994000        303.82014      463.11479      5346.4298      4453.6915      4382.3442      71.347271      1496.3418      1512.9761      2709.5793      0             -5647.5499      0              0             -188.61325      132178.14      50.939329      50.939329      50.939329      0.85339718     820.22063      279.22724      289.8965     
    998000   1996000        305.99119      80.183967      4642.8406      4488.4425      4413.6597      74.782861      1482.9781      1458.6285      2761.6931      0             -5628.5169      0              0             -188.82238      132031.75      50.920516      50.920516      50.920516      0.8543434      57.384107      72.465799      110.702      
    999000   1998000        297.12563      536.92996      5305.5022      4271.2946      4285.7816     -14.487014      1496.8541      1429.8195      2701.4749      0             -5642.6354      0              0             -188.76334      132073.05      50.925824      50.925824      50.925824      0.85407628     759.38579      195.44932      655.95478    
   1000000   2000000        297.68135      258.37481      4795.9501      4297.4604      4293.7974      3.6630326      1481.215       1416.3594      2757.5758      0             -5651.4871      0              0             -188.45243      132290.94      50.953815      50.953815      50.953815      0.85266952     653.20304      29.655777      92.265607    
Loop time of 827.106 on 1 procs for 1000000 steps with 4840 atoms

Performance: 208.921 ns/day, 0.115 hours/ns, 1209.034 timesteps/s, 5.852 Matom-step/s
99.5% CPU use with 1 MPI tasks x 1 OpenMP threads

MPI task timing breakdown:
Section |  min time  |  avg time  |  max time  |%varavg| %total
---------------------------------------------------------------
Pair    | 84.773     | 84.773     | 84.773     |   0.0 | 10.25
Bond    | 584.06     | 584.06     | 584.06     |   0.0 | 70.61
Neigh   | 0.19849    | 0.19849    | 0.19849    |   0.0 |  0.02
Comm    | 54.152     | 54.152     | 54.152     |   0.0 |  6.55
Output  | 8.0479     | 8.0479     | 8.0479     |   0.0 |  0.97
Modify  | 80.731     | 80.731     | 80.731     |   0.0 |  9.76
Other   |            | 15.14      |            |       |  1.83

Nlocal:           4840 ave        4840 max        4840 min
Histogram: 1 0 0 0 0 0 0 0 0 0
Nghost:          16004 ave       16004 max       16004 min
Histogram: 1 0 0 0 0 0 0 0 0 0
Neighs:              0 ave           0 max           0 min
Histogram: 1 0 0 0 0 0 0 0 0 0

Total # of neighbors = 0
Ave neighs/atom = 0
Ave special neighs/atom = 5.9504132
Neighbor list builds = 33941
Dangerous builds = 0

# --- Cleanup ---
unfix npt_fix

undump dump_npt

# --- Write Output ---
write_dump all custom npt_cool_last.dump id type mol x y z xu yu zu vx vy vz modify sort id
write_data /home/alexzhao/PolyJarvis/data/PE4/lammps/equil/npt_cool/npt_cool_out.data
System init for write_data ...
Generated 1 of 1 mixed pair_coeff terms from arithmetic mixing rule

print "STAGE COMPLETE: NPT T=550.0->300.0K P=1.0->1.0atm steps=1000000"
STAGE COMPLETE: NPT T=550.0->300.0K P=1.0->1.0atm steps=1000000
quit
| 0.19849    | 0.19849    | 0.19849    |   0.0 |  0.02
Comm    | 54.152     | 54.152     | 54.152     |   0.0 |  6.55
Output  | 8.0479     | 8.0479     | 8.0479     |   0.0 |  0.97
Modify  | 80.731     | 80.731     | 80.731     |   0.0 |  9.76
Other   |            | 15.14      |            |       |  1.83

Nlocal:           4840 ave        4840 max        4840 min
Histogram: 1 0 0 0 0 0 0 0 0 0
Nghost:          16004 ave       16004 max       16004 min
Histogram: 1 0 0 0 0 0 0 0 0 0
Neighs:              0 ave           0 max           0 min
Histogram: 1 0 0 0 0 0 0 0 0 0

Total # of neighbors = 0
Ave neighs/atom = 0
Ave special neighs/atom = 5.9504132
Neighbor list builds = 33941
Dangerous builds = 0
System init for write_data ...


---------------------------------------------------------------------
      Device Time Info (average): 
---------------------------------------------------------------------
Data Transfer:   35.8114 s.
Neighbor copy:   2.5927 s.
Neighbor build:  20.6691 s.
Force calc:      90.2698 s.
Device Overhead: 42.4064 s.
CPU Neighbor:    4.8552 s.
CPU Cast/Pack:   27.9405 s.
CPU Driver_Time: 17.4007 s.
CPU Idle_Time:   2.3284 s.
Average split:   1.0000.
Max Mem / Proc:  34.70 MB.
Prefetch mode:   None.
Vector width:    32.
Lanes / atom:    4.
Pair block:      256.
Neigh block:     128.
Neigh mode:      Hybrid (binning on host) with subgroup support.
Neigh sorting:   Unavailable or disabled.
---------------------------------------------------------------------


--------------------------------------------------------------------------
- Using acceleration for lj/cut:
-  with 1 proc(s) per device.
-  with 1 thread(s) per proc.
-  Horizontal vector operations: ENABLED
-  Shared memory system: No
--------------------------------------------------------------------------
Device 0: NVIDIA A800 40GB Active, 108 CUs, 39/39 GB, 1.4 GHZ (Mixed Precision)
--------------------------------------------------------------------------

Initializing Device and compiling on process 0...Done.
Initializing Device 0 on core 0...Done.

Generated 1 of 1 mixed pair_coeff terms from arithmetic mixing rule
STAGE COMPLETE: NPT T=550.0->300.0K P=1.0->1.0atm steps=1000000
Cuda driver error 4 in call at file '/home/alexzhao/lammps/lib/gpu/geryon/nvd_timer.h' in line 98.
Cuda driver error 4 in call at file '/home/alexzhao/lammps/lib/gpu/geryon/nvd_timer.h' in line 99.
Cuda driver error 4 in call at file '/home/alexzhao/lammps/lib/gpu/geryon/nvd_timer.h' in line 98.
Cuda driver error 4 in call at file '/home/alexzhao/lammps/lib/gpu/geryon/nvd_timer.h' in line 99.
Cuda driver error 4 in call at file '/home/alexzhao/lammps/lib/gpu/geryon/nvd_timer.h' in line 98.
Cuda driver error 4 in call at file '/home/alexzhao/lammps/lib/gpu/geryon/nvd_timer.h' in line 99.
