units real
atom_style full
boundary p p p

# --- Force Field Styles ---
pair_style lj/class2/coul/long 9.5 9.5
kspace_style pppm 1e-6
dielectric 1.000000
bond_style class2
angle_style class2
dihedral_style class2
improper_style class2
special_bonds lj/coul 0 0 1
pair_modify mix sixthpower tail yes
neighbor 2.0 bin
neigh_modify delay 0 every 1 check yes
neigh_modify one 4000
# KOKKOS: package loaded via -pk kokkos on the command line

read_data /home/arz2/PolyJarvis/data/PEEK3/lammps/npt_cool/npt_cool_out.data
Reading data file ...
  orthogonal box = (4.0461362 4.0461362 4.0461362) to (53.009392 53.009392 53.009392)
  1 by 1 by 1 MPI processor grid
  reading atoms ...
  8720 atoms
  reading velocities ...
  8720 velocities
  scanning bonds ...
  3 = max bonds/atom
  scanning angles ...
  9 = max angles/atom
  scanning dihedrals ...
  18 = max dihedrals/atom
  scanning impropers ...
  4 = max impropers/atom
  orthogonal box = (4.0461362 4.0461362 4.0461362) to (53.009392 53.009392 53.009392)
  1 by 1 by 1 MPI processor grid
  reading bonds ...
  9480 bonds
  reading angles ...
  15104 angles
  reading dihedrals ...
  22512 dihedrals
  reading impropers ...
  4864 impropers
Finding 1-2 1-3 1-4 neighbors ...
  special bond factors lj:    0        0        1       
  special bond factors coul:  0        0        1       
     3 = max # of 1-2 neighbors
     6 = max # of 1-3 neighbors
     9 = max # of special neighbors
  special bonds CPU = 0.004 seconds
  read_data CPU = 0.330 seconds
include /home/arz2/PolyJarvis/data/PEEK3/lammps/cell/emc_build.params
# LAMMPS parameters created by EMC v9.4.4, build Jul 31 2025 20:33:44

# Variables

variable	seed		index	481572
variable	ntotal		index	8720
variable	fshape		index	1
variable	output		index	emc_build
variable	field		index	pcff/pcff
variable	location1	index	/home/arz2/emc/field/
variable	nav		index	0.6022141179
variable	temperature	index	300
variable	radius		index	5
variable	nrelax		index	100
variable	weight_nonbond	index	0.0001
variable	weight_bond	index	0.0001
variable	weight_focus	index	1
variable	cutoff		index	9.5
variable	charge_cutoff	index	9.5
variable	kappa		index	4
variable	density1	index	0.66
variable	lprevious	index	0
variable	lphase		index	57.0555285531
variable	f_poly		index	8
variable	chem_repeat	index	*Oc1ccc(Oc2ccc(C(=O)c3ccc(cc3)*)cc2)cc1
variable	chem_cap	index	*[H]
variable	lg_repeat	index	34
variable	lg_cap		index	1
variable	norm_poly	index	100
variable	l_poly		index	1090
variable	mg_repeat	index	260.29514
variable	mg_cap		index	0
variable	m_poly		index	8329.44448
variable	n_poly		index	8
variable	mtotal		index	73822.38416
variable	nphase1		index	8720
variable	mphase1		index	73822.38416
variable	vphase1		index	185734.764243
variable	lbox		index	57.0555285531
variable	lphase1		index	57.0555285531
variable	lxx		index	57.0555285531
variable	lyy		index	57.0555285531
variable	lzz		index	57.0555285531
variable	lzy		index	0
variable	lzx		index	0
variable	lyx		index	0
variable	vtotal		index	185734.764243
variable	nl_poly		index	8

# Types

variable	type_c_0	index	1
variable	type_cp		index	2
variable	type_hc		index	3
variable	type_ho		index	4
variable	type_o_1	index	5
variable	type_oc		index	6
variable	type_oh		index	7

variable	type_bond_c_0_cp index	1
variable	type_bond_c_0_o_1 index	2
variable	type_bond_cp_cp	index	3
variable	type_bond_cp_hc	index	4
variable	type_bond_cp_oc	index	5
variable	type_bond_cp_oh	index	6
variable	type_bond_ho_oh	index	7

variable	type_angle_c_0_cp_cp index	1
variable	type_angle_cp_c_0_cp index	2
variable	type_angle_cp_c_0_o_1 index	3
variable	type_angle_cp_cp_cp index	4
variable	type_angle_cp_cp_hc index	5
variable	type_angle_cp_cp_oc index	6
variable	type_angle_cp_cp_oh index	7
variable	type_angle_cp_oc_cp index	8
variable	type_angle_cp_oh_ho index	9

# Clusters

variable	n0_poly		index	1
variable	n1_poly		index	8
variable	nl_poly		index	8

# Flags

variable	flag_charged	index	1

# Masses

mass		1    12.01115  # c_0
mass		2    12.01115  # cp
mass		3     1.00797  # hc
mass		4     1.00797  # ho
mass		5    15.99940  # o_1
mass		6    15.99940  # oc
mass		7    15.99940  # oh

# Potentials

pair_modify	mix sixthpower tail yes
special_bonds	lj/coul 0 0 1

# Pair Coeffs

pair_coeff	 1  1    0.12000    3.30800  # c_0,c_0
pair_coeff	 2  2    0.06400    4.01000  # cp,cp
pair_coeff	 3  3    0.02000    2.99500  # hc,hc
pair_coeff	 4  4    0.01300    1.09800  # ho,ho
pair_coeff	 5  5    0.26700    3.30000  # o_1,o_1
pair_coeff	 6  6    0.24000    3.53500  # oc,oc
pair_coeff	 7  7    0.24000    3.53500  # oh,oh

# Bond Coeffs

bond_coeff	1    1.48900  339.35740 -655.72360  670.23620  # c_0,cp
bond_coeff	2    1.21600  823.79480 -1878.79400 2303.53110  # c_0,o_1
bond_coeff	3    1.41700  470.83610 -627.61790 1327.63450  # cp,cp
bond_coeff	4    1.09820  372.82510 -803.45260  894.31730  # cp,hc
bond_coeff	5    1.37680  428.87980 -738.23510 1114.96550  # cp,oc
bond_coeff	6    1.37680  428.87980 -738.23510 1114.96550  # cp,oh
bond_coeff	7    0.96500  532.50620 -1282.90500 2004.76580  # ho,oh

# Angle Coeffs

angle_coeff	1  108.40000   43.95940   -8.39240   -9.33790  # c_0,cp,cp
angle_coeff	2  110.58840   34.62140   -7.09390   -7.40320  # cp,c_0,cp
angle_coeff	3  119.30000   65.10160  -17.97660    0.00000  # cp,c_0,o_1
angle_coeff	4  118.90000   61.02260  -34.99310    0.00000  # cp,cp,cp
angle_coeff	5  117.94000   35.15580  -12.46820    0.00000  # cp,cp,hc
angle_coeff	6  123.42000   73.67810  -21.67870    0.00000  # cp,cp,oc
angle_coeff	7  123.42000   73.67810  -21.67870    0.00000  # cp,cp,oh
angle_coeff	8  109.50000   60.00000    0.00000    0.00000  # cp,oc,cp
angle_coeff	9  108.19000   53.12500   -8.50160    0.00000  # cp,oh,ho

# BondBond Coeffs

angle_coeff	1 bb    0.00000    1.48900    1.41700  # c_0,cp,cp
angle_coeff	2 bb    0.00000    1.48900    1.48900  # cp,c_0,cp
angle_coeff	3 bb    0.00000    1.48900    1.21600  # cp,c_0,o_1
angle_coeff	4 bb   68.28560    1.41700    1.41700  # cp,cp,cp
angle_coeff	5 bb    1.07950    1.41700    1.09820  # cp,cp,hc
angle_coeff	6 bb   48.47540    1.41700    1.37680  # cp,cp,oc
angle_coeff	7 bb   48.47540    1.41700    1.37680  # cp,cp,oh
angle_coeff	8 bb    0.00000    1.37680    1.37680  # cp,oc,cp
angle_coeff	9 bb   20.65770    1.37680    0.96500  # cp,oh,ho

# BondAngle Coeffs

angle_coeff	1 ba    0.00000    0.00000    1.48900    1.41700  # c_0,cp,cp
angle_coeff	2 ba    0.00000    0.00000    1.48900    1.48900  # cp,c_0,cp
angle_coeff	3 ba    0.00000    0.00000    1.48900    1.21600  # cp,c_0,o_1
angle_coeff	4 ba   28.87080   28.87080    1.41700    1.41700  # cp,cp,cp
angle_coeff	5 ba   20.00330   24.21830    1.41700    1.09820  # cp,cp,hc
angle_coeff	6 ba   58.47900  107.68060    1.41700    1.37680  # cp,cp,oc
angle_coeff	7 ba   58.47900  107.68060    1.41700    1.37680  # cp,cp,oh
angle_coeff	8 ba    0.00000    0.00000    1.37680    1.37680  # cp,oc,cp
angle_coeff	9 ba   53.86140   23.92240    1.37680    0.96500  # cp,oh,ho

# Dihedral Coeffs

dihedral_coeff	 1    0.00000    0.00000    4.62820    0.00000    0.00000    0.00000  # c_0,cp,cp,cp
dihedral_coeff	 2    0.00000    0.00000    2.16700    0.00000    0.00000    0.00000  # c_0,cp,cp,hc
dihedral_coeff	 3    0.00000    0.00000    2.50000    0.00000    0.00000    0.00000  # cp,c_0,cp,cp
dihedral_coeff	 4    0.00000    0.00000    0.90630    0.00000    0.00000    0.00000  # cp,cp,c_0,o_1
dihedral_coeff	 5    8.36670    0.00000    1.19320    0.00000    0.00000    0.00000  # cp,cp,cp,cp
dihedral_coeff	 6    0.00000    0.00000    3.96610    0.00000    0.00000    0.00000  # cp,cp,cp,hc
dihedral_coeff	 7    0.00000    0.00000    4.84980    0.00000    0.00000    0.00000  # cp,cp,cp,oc
dihedral_coeff	 8    0.00000    0.00000    4.84980    0.00000    0.00000    0.00000  # cp,cp,cp,oh
dihedral_coeff	 9    0.00000    0.00000    1.80000    0.00000    0.00000    0.00000  # cp,cp,oc,cp
dihedral_coeff	10   -0.69000    0.00000    0.50970    0.00000    0.00950    0.00000  # cp,cp,oh,ho
dihedral_coeff	11    0.00000    0.00000    1.87690    0.00000    0.00000    0.00000  # hc,cp,cp,hc
dihedral_coeff	12    0.00000    0.00000    1.72340    0.00000    0.00000    0.00000  # hc,cp,cp,oc
dihedral_coeff	13    0.00000    0.00000    1.72340    0.00000    0.00000    0.00000  # hc,cp,cp,oh

# MiddleBondTorsion Coeffs

dihedral_coeff	 1 mbt    0.00000    0.00000    0.00000    1.41700  # c_0,cp,cp,cp
dihedral_coeff	 2 mbt    0.00000    0.00000    0.00000    1.41700  # c_0,cp,cp,hc
dihedral_coeff	 3 mbt    0.00000    0.00000    0.00000    1.48900  # cp,c_0,cp,cp
dihedral_coeff	 4 mbt    0.00000    0.00000    0.00000    1.48900  # cp,cp,c_0,o_1
dihedral_coeff	 5 mbt   27.59890   -2.31200    0.00000    1.41700  # cp,cp,cp,cp
dihedral_coeff	 6 mbt    0.00000   -1.15210    0.00000    1.41700  # cp,cp,cp,hc
dihedral_coeff	 7 mbt    0.00000    4.82550    0.00000    1.41700  # cp,cp,cp,oc
dihedral_coeff	 8 mbt    0.00000    4.82550    0.00000    1.41700  # cp,cp,cp,oh
dihedral_coeff	 9 mbt    0.00000    0.00000    0.00000    1.37680  # cp,cp,oc,cp
dihedral_coeff	10 mbt    1.15800    3.26970    3.51320    1.37680  # cp,cp,oh,ho
dihedral_coeff	11 mbt    0.00000    4.82280    0.00000    1.41700  # hc,cp,cp,hc
dihedral_coeff	12 mbt    0.00000    5.54320    0.00000    1.41700  # hc,cp,cp,oc
dihedral_coeff	13 mbt    0.00000    5.54320    0.00000    1.41700  # hc,cp,cp,oh

# EndBondTorsion Coeffs

dihedral_coeff	 1 ebt    0.00000    0.00000    0.00000    0.00000    0.00000    0.00000    1.48900    1.41700  # c_0,cp,cp,cp
dihedral_coeff	 2 ebt    0.00000    0.00000    0.00000    0.00000    0.00000    0.00000    1.48900    1.09820  # c_0,cp,cp,hc
dihedral_coeff	 3 ebt    0.00000    0.00000    0.00000    0.00000    0.00000    0.00000    1.48900    1.41700  # cp,c_0,cp,cp
dihedral_coeff	 4 ebt    0.00000    0.00000    0.00000    0.00000    0.00000    0.00000    1.41700    1.21600  # cp,cp,c_0,o_1
dihedral_coeff	 5 ebt   -0.11850    6.32040    0.00000   -0.11850    6.32040    0.00000    1.41700    1.41700  # cp,cp,cp,cp
dihedral_coeff	 6 ebt    0.00000   -6.89580    0.00000    0.00000   -0.46690    0.00000    1.41700    1.09820  # cp,cp,cp,hc
dihedral_coeff	 7 ebt    0.00000    0.26550    0.00000    0.00000    4.89050    0.00000    1.41700    1.37680  # cp,cp,cp,oc
dihedral_coeff	 8 ebt    0.00000    0.26550    0.00000    0.00000    4.89050    0.00000    1.41700    1.37680  # cp,cp,cp,oh
dihedral_coeff	 9 ebt    0.00000    0.00000    0.00000    0.00000    0.00000    0.00000    1.41700    1.37680  # cp,cp,oc,cp
dihedral_coeff	10 ebt    0.90000   -1.34560    1.19000    3.41320    0.58730   -0.13230    1.41700    0.96500  # cp,cp,oh,ho
dihedral_coeff	11 ebt    0.00000   -0.68900    0.00000    0.00000   -0.68900    0.00000    1.09820    1.09820  # hc,cp,cp,hc
dihedral_coeff	12 ebt    0.00000   -1.58670    0.00000    0.00000    4.26410    0.00000    1.09820    1.37680  # hc,cp,cp,oc
dihedral_coeff	13 ebt    0.00000   -1.58670    0.00000    0.00000    4.26410    0.00000    1.09820    1.37680  # hc,cp,cp,oh

# AngleTorsion Coeffs

dihedral_coeff	 1 at    0.00000    0.00000    0.00000    0.00000    0.00000    0.00000  108.40000  118.90000  # c_0,cp,cp,cp
dihedral_coeff	 2 at    0.00000    0.00000    0.00000    0.00000    0.00000    0.00000  108.40000  117.94000  # c_0,cp,cp,hc
dihedral_coeff	 3 at    0.00000    0.00000    0.00000    0.00000    0.00000    0.00000  110.58840  108.40000  # cp,c_0,cp,cp
dihedral_coeff	 4 at    0.00000    0.00000    0.00000    0.00000    0.00000    0.00000  108.40000  119.30000  # cp,cp,c_0,o_1
dihedral_coeff	 5 at    1.97670    1.02390    0.00000    1.97670    1.02390    0.00000  118.90000  118.90000  # cp,cp,cp,cp
dihedral_coeff	 6 at    0.00000    2.50140    0.00000    0.00000    2.71470    0.00000  118.90000  117.94000  # cp,cp,cp,hc
dihedral_coeff	 7 at    0.00000   10.01550    0.00000    0.00000    1.74040    0.00000  118.90000  123.42000  # cp,cp,cp,oc
dihedral_coeff	 8 at    0.00000   10.01550    0.00000    0.00000    1.74040    0.00000  118.90000  123.42000  # cp,cp,cp,oh
dihedral_coeff	 9 at    0.00000    0.00000    0.00000    0.00000    0.00000    0.00000  123.42000  109.50000  # cp,cp,oc,cp
dihedral_coeff	10 at   -5.13600   -1.01220    0.00000    4.68520    0.02300   -0.59800  123.42000  108.19000  # cp,cp,oh,ho
dihedral_coeff	11 at    0.00000    2.45010    0.00000    0.00000    2.45010    0.00000  117.94000  117.94000  # hc,cp,cp,hc
dihedral_coeff	12 at    0.00000    1.87290    0.00000    0.00000    2.57060    0.00000  117.94000  123.42000  # hc,cp,cp,oc
dihedral_coeff	13 at    0.00000    1.87290    0.00000    0.00000    2.57060    0.00000  117.94000  123.42000  # hc,cp,cp,oh

# AngleAngleTorsion Coeffs

dihedral_coeff	 1 aat    0.00000  108.40000  118.90000  # c_0,cp,cp,cp
dihedral_coeff	 2 aat    0.00000  108.40000  117.94000  # c_0,cp,cp,hc
dihedral_coeff	 3 aat    0.00000  110.58840  108.40000  # cp,c_0,cp,cp
dihedral_coeff	 4 aat    0.00000  108.40000  119.30000  # cp,cp,c_0,o_1
dihedral_coeff	 5 aat    0.00000  118.90000  118.90000  # cp,cp,cp,cp
dihedral_coeff	 6 aat   -4.81410  118.90000  117.94000  # cp,cp,cp,hc
dihedral_coeff	 7 aat  -21.02470  118.90000  123.42000  # cp,cp,cp,oc
dihedral_coeff	 8 aat  -21.02470  118.90000  123.42000  # cp,cp,cp,oh
dihedral_coeff	 9 aat    0.00000  123.42000  109.50000  # cp,cp,oc,cp
dihedral_coeff	10 aat   -4.60720  123.42000  108.19000  # cp,cp,oh,ho
dihedral_coeff	11 aat    0.35980  117.94000  117.94000  # hc,cp,cp,hc
dihedral_coeff	12 aat    4.22960  117.94000  123.42000  # hc,cp,cp,oc
dihedral_coeff	13 aat    4.22960  117.94000  123.42000  # hc,cp,cp,oh

# BondBond13 Coeffs

dihedral_coeff	 1 bb13    0.00000    1.48900    1.41700  # c_0,cp,cp,cp
dihedral_coeff	 2 bb13    0.00000    1.48900    1.09820  # c_0,cp,cp,hc
dihedral_coeff	 3 bb13    0.00000    1.48900    1.41700  # cp,c_0,cp,cp
dihedral_coeff	 4 bb13    0.00000    1.41700    1.21600  # cp,cp,c_0,o_1
dihedral_coeff	 5 bb13   53.00000    1.41700    1.41700  # cp,cp,cp,cp
dihedral_coeff	 6 bb13   -6.27410    1.41700    1.09820  # cp,cp,cp,hc
dihedral_coeff	 7 bb13   -2.24360    1.41700    1.37680  # cp,cp,cp,oc
dihedral_coeff	 8 bb13   -2.24360    1.41700    1.37680  # cp,cp,cp,oh
dihedral_coeff	 9 bb13    0.00000    1.41700    1.37680  # cp,cp,oc,cp
dihedral_coeff	10 bb13    1.15900    1.41700    0.96500  # cp,cp,oh,ho
dihedral_coeff	11 bb13   -1.70770    1.09820    1.09820  # hc,cp,cp,hc
dihedral_coeff	12 bb13    2.05170    1.09820    1.37680  # hc,cp,cp,oc
dihedral_coeff	13 bb13    2.05170    1.09820    1.37680  # hc,cp,cp,oh

# Improper Coeffs

improper_coeff	1   38.79490    0.00000  # c_0,cp,cp,o_1
improper_coeff	2    0.00000    0.00000  # cp,c_0,cp,cp
improper_coeff	3    4.89120    0.00000  # cp,cp,cp,hc
improper_coeff	4   13.04210    0.00000  # cp,cp,cp,oc
improper_coeff	5   13.04210    0.00000  # cp,cp,cp,oh

# AngleAngle Coeffs

improper_coeff	1 aa    0.00000    0.00000    0.00000  110.58840  119.30000  119.30000  # c_0,cp,cp,o_1
improper_coeff	2 aa    0.00000    0.00000    0.00000  108.40000  108.40000  118.90000  # cp,c_0,cp,cp
improper_coeff	3 aa    0.00000    0.00000    0.00000  118.90000  117.94000  117.94000  # cp,cp,cp,hc
improper_coeff	4 aa    0.00000    0.00000    0.00000  118.90000  123.42000  123.42000  # cp,cp,cp,oc
improper_coeff	5 aa    0.00000    0.00000    0.00000  118.90000  123.42000  123.42000  # cp,cp,cp,oh


# --- Thermo Output ---
thermo_style custom step time temp press enthalpy etotal ke pe ebond eangle edihed eimp evdwl ecoul elong etail vol lx ly lz density pxx pyy pzz
thermo_modify flush yes
thermo 1000

# --- Trajectory ---
dump dump_nvt all custom 1000 nvt_production.dump id type mol x y z ix iy iz vx vy vz

# --- Restart Checkpointing ---
# No restart checkpointing

# --- Initial Velocities (optional) ---
# Velocities read from data file

# --- SHAKE Constraints ---
# Constrains H-X bonds to allow 2fs timestep
# SHAKE disabled

# --- NVT Thermostat (Nose-Hoover) ---
# T_damp = 100.0 fs  (coupling timescale for heat exchange)
# Ramp: 770.0 K -> 770.0 K over 2000000 steps
timestep 1.0
fix nvt_fix all nvt temp 770.0 770.0 100.0

run 2000000
PPPM Kokkos initialization ...
  using 12-bit tables for long-range coulomb
  G vector (1/distance) = 0.31205924
  grid = 40 40 40
  stencil order = 5
  estimated absolute RMS force accuracy = 0.00026765245
  estimated relative force accuracy = 8.0602741e-07
  using double precision cuFFT
  3d grid and FFT values/proc = 103823 64000
Generated 21 of 21 mixed pair_coeff terms from sixthpower/sixthpower mixing rule
Neighbor list info ...
  update: every = 1 steps, delay = 0 steps, check = yes
  max neighbors/atom: 4000, page size: 100000
  master list distance cutoff = 11.5
  ghost atom cutoff = 11.5
  binsize = 11.5, bins = 5 5 5
  1 neighbor lists, perpetual/occasional/extra = 1 0 0
  (1) pair lj/class2/coul/long/kk, perpetual
      attributes: full, newton off, kokkos_device
      pair build: full/bin/kk/device
      stencil: full/bin/3d
      bin: kk/device
Per MPI rank memory allocation (min/avg/max) = 37.88 | 37.88 | 37.88 Mbytes
   Step          Time           Temp          Press         Enthalpy        TotEng         KinEng         PotEng         E_bond        E_angle        E_dihed        E_impro         E_vdwl         E_coul         E_long         E_tail         Volume           Lx             Ly             Lz          Density          Pxx            Pyy            Pzz      
         0   0              767.60827      995.52508      54936.009      53231.737      19949.895      33281.841      8554.4918      8646.3341      9191.8995      1085.9086      374.53638      15956.263     -10527.592     -684.82628      117384.53      48.963256      48.963256      48.963256      1.0443023      1168.2026      2509.3715     -690.99889    
      1000   1000           770.63903      658.8679       54801.989      53674.051      20028.664      33645.387      8697.437       8758.3973      9350.0507      1119.3573      315.43731      15933.828     -10529.12      -684.82628      117384.53      48.963256      48.963256      48.963256      1.0443023     -879.61751      1589.1249      1267.0964    
      2000   2000           776.7494       1417.1683      55761.267      53335.17       20187.471      33147.699      8356.3967      8925.9557      8973.1039      1136.4004      344.75172      15940.795     -10529.704     -684.82628      117384.53      48.963256      48.963256      48.963256      1.0443023      913.67668      1055.3686      2282.4596    
      3000   3000           781.79785      2470.7908      57839.116      53609.288      20318.678      33290.61       8481.5711      8969.7578      8908.0596      1102.2994      403.51498      15949.989     -10524.582     -684.82628      117384.53      48.963256      48.963256      48.963256      1.0443023      1742.8172      3134.4676      2535.0875    
      4000   4000           769.95741     -674.43521      51916.551      53071.139      20010.949      33060.19       8433.3726      8810.6524      9039.1241      1079.2287      239.81017      15979.051     -10521.048     -684.82628      117384.53      48.963256      48.963256      48.963256      1.0443023     -848.4334       731.26419     -1906.1364    
      5000   5000           778.158       -1694.3173      50737.559      53638.116      20224.079      33414.037      8713.3538      8525.5655      9387.9874      1139.7449      237.36413      15938.875     -10528.853     -684.82628      117384.53      48.963256      48.963256      48.963256      1.0443023     -1397.0814     -1471.0563     -2214.8141    
      6000   6000           776.42721     -142.65029      53390.258      53634.466      20179.097      33455.369      8574.0598      8774.1113      9267.3098      1057.2609      345.28513      15961.335     -10523.993     -684.82628      117384.53      48.963256      48.963256      48.963256      1.0443023     -1975.8713      481.52765      1066.3928    
      7000   7000           769.3457      -946.74106      51679.971      53300.729      19995.051      33305.678      8665.0502      8649.3786      9287.9393      1096.5389      187.41781      15950.55      -10531.197     -684.82628      117384.53      48.963256      48.963256      48.963256      1.0443023     -1751.5049     -1222.1505      133.43224    
      8000   8000           786.67197      193.84006      53979.814      53647.973      20445.355      33202.618      8431.3351      8807.1434      9179.8736      1096.08        273.82199      15938.785     -10524.421     -684.82628      117384.53      48.963256      48.963256      48.963256      1.0443023      123.99113      416.26791      41.261132    
      9000   9000           774.11768     -60.083331      53277.77       53380.628      20119.073      33261.556      8449.9844      8812.4943      9153.075       1093.0904      319.42695      15961.319     -10527.835     -684.82628      117384.53      48.963256      48.963256      48.963256      1.0443023     -840.43244     -721.49902      1381.6815    
     10000   10000          780.53685     -1536.3911      50931.74       53561.939      20285.905      33276.033      8271.901       8936.3324      9326.4947      1103.6241      224.65121      15939.501     -10526.471     -684.82628      117384.53      48.963256      48.963256      48.963256      1.0443023     -63.572909     -2705.4199     -1840.1803    
     11000   11000          769.94014     -1204.1272      50936.787      52998.173      20010.5        32987.672      8429.0739      8707.3621      9071.9735      1075.8859      266.07936      15955.099     -10517.802     -684.82628      117384.53      48.963256      48.963256      48.963256      1.0443023     -567.92513     -1847.6137     -1196.8428    
     12000   12000          782.83187      523.01139      54440.197      53544.837      20345.552      33199.285      8544.0001      8600.1003      9217.7621      1091.7974      301.21982      15964.484     -10520.079     -684.82628      117384.53      48.963256      48.963256      48.963256      1.0443023     -2401.6592      2963.089       1007.6043    
     13000   13000          759.43281      993.57336      54591.329      52890.398      19737.418      33152.98       8477.8846      8724.921       9027.7547      1084.8385      405.72604      15957.132     -10525.277     -684.82628      117384.53      48.963256      48.963256      48.963256      1.0443023      680.43362      337.35815      1962.9283    
     14000   14000          779.22295     -456.17948      52860.006      53640.955      20251.757      33389.198      8568.5461      8743.0507      9212.2435      1113.5953      331.35544      15941.52      -10521.113     -684.82628      117384.53      48.963256      48.963256      48.963256      1.0443023     -1093.3803      423.04227     -698.20041    
     15000   15000          766.99931      423.20388      53958.824      53234.327      19934.069      33300.258      8664.7621      8894.8194      8914.6586      1103.544       294.95396      15950.907     -10523.387     -684.82628      117384.53      48.963256      48.963256      48.963256      1.0443023     -536.02175      2319.5133     -513.87987    
     16000   16000          766.30477     -1027.7297      51516.201      53275.605      19916.018      33359.587      8511.2161      8857.7505      9124.6342      1083.2264      338.12018      15961.803     -10517.163     -684.82628      117384.53      48.963256      48.963256      48.963256      1.0443023     -582.6531      -1233.7235     -1266.8125    
     17000   17000          768.33446      1273.5729      55332.389      53152.117      19968.769      33183.349      8732.45        8685.9739      8988.4372      1096.1174      275.37174      15937.307     -10532.309     -684.82628      117384.53      48.963256      48.963256      48.963256      1.0443023      1065.3747      764.7972       1990.5467    
     18000   18000          776.57317     -982.58303      51868.615      53550.731      20182.89       33367.841      8625.7338      8670.9173      9268.3023      1122.5183      247.27458      15953.251     -10520.156     -684.82628      117384.53      48.963256      48.963256      48.963256      1.0443023     -691.41394     -1182.0199     -1074.3153    
     19000   19000          772.41445     -1848.896       50112.471      53277.657      20074.807      33202.85       8558.1111      8648.9197      9232.8232      1056.0144      291.41033      15944.188     -10528.616     -684.82628      117384.53      48.963256      48.963256      48.963256      1.0443023     -2661.5934     -1641.8069     -1243.2877    
     20000   20000          777.48396      537.37316      54363.746      53443.8        20206.561      33237.238      8698.6604      8645.1599      9042.4448      1093.9135      335.2046       15949.713     -10527.858     -684.82628      117384.53      48.963256      48.963256      48.963256      1.0443023      2779.636      -994.16976     -173.34672    
     21000   21000          782.15102      1319.0788      55874.513      53616.338      20327.857      33288.481      8531.2415      8802.773       9101.7676      1127.8744      298.94854      15950.417     -10524.541     -684.82628      117384.53      48.963256      48.963256      48.963256      1.0443023      1183.803       2503.1753      270.2582     
     22000   22000          766.37824      654.27241      54374.343      53254.273      19917.927      33336.345      8656.5813      8722.3982      9110.2989      1113.9726      273.7502       15982.119     -10522.775     -684.82628      117384.53      48.963256      48.963256      48.963256      1.0443023      330.44664      721.18816      911.18244    
     23000   23000          769.87073      546.68172      53991.488      53055.606      20008.696      33046.91       8514.1927      8712.8907      8964.1885      1072.178       339.76681      15972.956     -10529.263     -684.82628      117384.53      48.963256      48.963256      48.963256      1.0443023      522.45216      1157.1127     -39.519743    
     24000   24000          768.08197     -351.68806      52846.317      53448.384      19962.207      33486.177      8460.5622      8800.7091      9424.538       1137.2183      245.55898      15950.09      -10532.499     -684.82628      117384.53      48.963256      48.963256      48.963256      1.0443023     -350.24793     -842.99992      138.18366    
     25000   25000          766.59529     -2997.2668      48258.919      53390.038      19923.568      33466.47       8566.7858      8744.3812      9370.1669      1113.3145      237.15737      15960.233     -10525.569     -684.82628      117384.53      48.963256      48.963256      48.963256      1.0443023     -2999.9834     -2758.8577     -3232.9594    
     26000   26000          764.15527     -234.08593      52404.698      52805.438      19860.153      32945.285      8435.6863      8589.941       9076.9997      1104.5624      321.52708      15949.896     -10533.328     -684.82628      117384.53      48.963256      48.963256      48.963256      1.0443023      1325.4535      159.86735     -2187.5787    
     27000   27000          766.02459     -681.18469      52363.432      53529.575      19908.736      33620.838      8593.8923      8813.6698      9339.4001      1079.1737      338.57775      15983.69      -10527.565     -684.82628      117384.53      48.963256      48.963256      48.963256      1.0443023     -1027.1829     -491.42527     -524.94588    
     28000   28000          764.04767     -343.79549      52523.713      53112.268      19857.357      33254.912      8695.0551      8771.5156      9012.4413      1088.7843      263.78533      15955.183     -10531.854     -684.82628      117384.53      48.963256      48.963256      48.963256      1.0443023      162.9392       72.949514     -1267.2752    
     29000   29000          778.69528     -292.90297      53295.507      53796.937      20238.043      33558.893      8590.0757      8786.8549      9239.6304      1160.1835      324.93371      15979.094     -10521.879     -684.82628      117384.53      48.963256      48.963256      48.963256      1.0443023      149.75245      282.08281     -1310.5442    
     30000   30000          772.81529      1539.4787      55804.049      53168.565      20085.224      33083.34       8465.2939      8846.7046      8954.4491      1076.1428      304.15462      15964.216     -10527.621     -684.82628      117384.53      48.963256      48.963256      48.963256      1.0443023      2435.2924      2212.2135     -29.069846    
     31000   31000          776.46091     -1608.2977      50625.853      53379.151      20179.973      33199.178      8633.5702      8606.4578      9206.0365      1103.5784      223.79403      15950.53      -10524.789     -684.82628      117384.53      48.963256      48.963256      48.963256      1.0443023     -2961.8934      188.82682     -2051.8266    
     32000   32000          771.85187     -837.92002      52260.532      53694.995      20060.185      33634.81       8480.4142      9243.5673      9018.8116      1126.3618      309.93531      15974.026     -10518.306     -684.82628      117384.53      48.963256      48.963256      48.963256      1.0443023      581.91123     -771.51957     -2324.1517    
     33000   33000          775.34393     -326.49909      52873.546      53432.49       20150.943      33281.547      8722.7185      8813.6616      8944.8896      1066.3886      312.10055      15952.523     -10530.734     -684.82628      117384.53      48.963256      48.963256      48.963256      1.0443023     -1536.2662      9.0427843      547.72619    
     34000   34000          767.15658     -1403.4649      50775.154      53177.792      19938.156      33239.635      8631.1358      8843.526       9052.7319      1062.0137      233.43318      15945.996     -10529.201     -684.82628      117384.53      48.963256      48.963256      48.963256      1.0443023     -2649.5096     -275.22013     -1285.665     
     35000   35000          774.05659     -1895.3998      50154.335      53399.132      20117.485      33281.647      8352.0213      8756.8595      9327.0583      1098.2453      327.69251      15945.88      -10526.11      -684.82628      117384.53      48.963256      48.963256      48.963256      1.0443023     -2251.2395     -916.33578     -2518.624     
     36000   36000          778.35926     -181.08621      53417.795      53727.802      20229.31       33498.492      8617.164       8733.0241      9205.8114      1139.6739      391.81834      15943.443     -10532.443     -684.82628      117384.53      48.963256      48.963256      48.963256      1.0443023      2249.1571     -2098.4448     -693.97095    
     37000   37000          761.1668      -1518.881       50583.331      53183.553      19782.484      33401.07       8674.0297      8659.8312      9214.2864      1093.2181      349.86186      15942.09      -10532.248     -684.82628      117384.53      48.963256      48.963256      48.963256      1.0443023     -1279.6045     -1780.5078     -1496.5307    
     38000   38000          768.79989     -267.92678      52949.688      53408.36       19980.865      33427.495      8872.4177      8669.8052      9186.5294      1109.9078      168.83004      15949.218     -10529.213     -684.82628      117384.53      48.963256      48.963256      48.963256      1.0443023     -1100.9283     -34.155504      331.30344    
     39000   39000          761.56004      78.698097      53304.716      53169.99       19792.704      33377.286      8625.0009      8635.0295      9201.1784      1150.7954      362.86006      15933.86      -10531.438     -684.82628      117384.53      48.963256      48.963256      48.963256      1.0443023      360.69911     -213.8754       89.270583    
     40000   40000          766.6945      -844.01384      51923.286      53368.181      19926.147      33442.035      8418.7681      8957.9076      9228.7509      1141.2977      272.96634      15951.193     -10528.849     -684.82628      117384.53      48.963256      48.963256      48.963256      1.0443023     -879.64559     -1445.1365     -207.25949    
     41000   41000          769.06069     -82.71028       52927.046      53068.641      19987.643      33080.997      8499.4412      8852.5953      8974.0575      1090.4463      248.23526      15949.274     -10533.052     -684.82628      117384.53      48.963256      48.963256      48.963256      1.0443023     -2172.5718      428.37134      1496.0696    
     42000   42000          768.76148      676.7627       54542.93       53384.358      19979.867      33404.491      8771.2613      8752.8736      9080.599       1140.3914      252.46476      15940.407     -10533.506     -684.82628      117384.53      48.963256      48.963256      48.963256      1.0443023      887.42567      507.80937      635.05306    
     43000   43000          771.19671     -533.16126      52511.413      53424.149      20043.158      33380.991      8582.3399      8847.5405      9179.3549      1132.2785      226.51632      15936.472     -10523.511     -684.82628      117384.53      48.963256      48.963256      48.963256      1.0443023     -1516.1529     -796.04296      712.71205    
     44000   44000          749.97055      102.26302      52671.489      52496.422      19491.497      33004.925      8419.233       8842.5413      8930.5757      1102.7872      314.06703      15928.7       -10532.98      -684.82628      117384.53      48.963256      48.963256      48.963256      1.0443023      687.9478       445.79873     -826.95747    
     45000   45000          779.06271      992.99492      55030.886      53330.945      20247.593      33083.352      8505.2394      8795.9883      9020.1401      1059.8146      257.77463      15970.915     -10526.52      -684.82628      117384.53      48.963256      48.963256      48.963256      1.0443023      1395.2341      2749.7049     -1165.9543    
     46000   46000          778.60493     -151.39523      53407.383      53666.562      20235.695      33430.866      8457.3215      8880.9954      9129.121       1105.8397      433.91813      15945.665     -10521.995     -684.82628      117384.53      48.963256      48.963256      48.963256      1.0443023     -895.51934      315.64426      125.68938    
     47000   47000          775.5924      -167.87235      53292.607      53579.994      20157.4        33422.593      8578.0439      8847.5791      9228.3523      1114.2247      211.07033      15965.591     -10522.268     -684.82628      117384.53      48.963256      48.963256      48.963256      1.0443023     -2395.4386     -618.47943      2510.301     
     48000   48000          763.10998      1035.8813      54850.036      53076.677      19832.986      33243.691      8533.4889      8629.9831      9167.3688      1062.6517      428.56845      15947.472     -10525.843     -684.82628      117384.53      48.963256      48.963256      48.963256      1.0443023      1134.2573      1037.6786      935.70795    
     49000   49000          775.85362      1206.6522      55575.369      53509.661      20164.189      33345.472      8555.5584      8748.2392      9076.5646      1131.237       410.10647      15952.102     -10528.336     -684.82628      117384.53      48.963256      48.963256      48.963256      1.0443023      233.75477     -133.74186      3519.9437    
     50000   50000          767.94038      635.72632      54370.41       53282.09       19958.527      33323.563      8560.4093      8699.3875      9245.7         1118.6689      244.16874      15976.968     -10521.74      -684.82628      117384.53      48.963256      48.963256      48.963256      1.0443023      1393.2665     -728.3864       1242.2989    
     51000   51000          780.3589       563.83314      54630.699      53665.455      20281.28       33384.174      8562.4653      8646.3034      9277.7699      1096.5656      337.61037      15979.362     -10515.903     -684.82628      117384.53      48.963256      48.963256      48.963256      1.0443023      342.97843      102.02588      1246.4951    
     52000   52000          772.88487      1732.8589      56446.568      53480.029      20087.033      33392.997      8584.6302      8901.4501      9118.6184      1081.77        246.5033       15975.003     -10514.978     -684.82628      117384.53      48.963256      48.963256      48.963256      1.0443023      3858.7372     -104.33026      1444.1698    
     53000   53000          782.61782      1398.0484      56030.016      53636.651      20339.989      33296.662      8567.9022      8812.2273      9011.6283      1116.0126      357.03459      15952.917     -10521.06      -684.82628      117384.53      48.963256      48.963256      48.963256      1.0443023      740.25672      552.89814      2900.9903    
     54000   54000          776.84172      2150.3479      56929.925      53248.673      20189.87       33058.804      8369.7076      8844.534       9066.8034      1106.2668      234.63947      15959.226     -10522.374     -684.82628      117384.53      48.963256      48.963256      48.963256      1.0443023      1078.1857      3123.7533      2249.1047    
     55000   55000          770.79172     -633.1195       52551.313      53635.171      20032.632      33602.539      8627.7953      8834.8804      9293.0066      1117.9308      294.2293       15950.742     -10516.046     -684.82628      117384.53      48.963256      48.963256      48.963256      1.0443023     -926.73552     -826.95488     -145.66811    
     56000   56000          766.83899     -77.079692      53040.981      53172.937      19929.902      33243.035      8576.124       8721.1141      9173.6709      1112.3513      245.66865      15939.255     -10525.149     -684.82628      117384.53      48.963256      48.963256      48.963256      1.0443023      555.22582     -1382.5796      596.1147     
     57000   57000          769.58236      83.254441      53725.459      53582.933      20001.201      33581.732      8660.7467      8597.9347      9318.4426      1107.3263      455.66547      15962.322     -10520.706     -684.82628      117384.53      48.963256      48.963256      48.963256      1.0443023      318.35216      1535.0349     -1603.6237    
     58000   58000          765.07676     -822.93245      51835.358      53244.164      19884.102      33360.061      8695.9994      8673.7811      9273.021       1123.6442      176.22989      15932.617     -10515.232     -684.82628      117384.53      48.963256      48.963256      48.963256      1.0443023     -721.61643     -1100.2421     -646.93882    
     59000   59000          778.98244      2694.5504      58097.384      53484.494      20245.507      33238.987      8513.98        8863.4239      8932.8316      1074.9335      404.78225      15968.393     -10519.357     -684.82628      117384.53      48.963256      48.963256      48.963256      1.0443023      1836.0914      1689.4376      4558.1224    
     60000   60000          785.05157     -254.54234      53407.491      53843.251      20403.241      33440.009      8646.351       8863.3545      9065.2244      1082.4584      340.26426      15963.141     -10520.784     -684.82628      117384.53      48.963256      48.963256      48.963256      1.0443023      781.37567     -783.62622     -761.37646    
     61000   61000          765.81092      1339.5009      55494.76       53201.624      19903.183      33298.441      8612.1018      8776.3431      9100.5053      1077.2158      306.63773      15950.356     -10524.718     -684.82628      117384.53      48.963256      48.963256      48.963256      1.0443023      1534.8554      2347.1927      136.45458    
     62000   62000          777.73436      1832.4338      56574.764      53437.76       20213.069      33224.691      8765.5919      8626.9389      8999.391       1059.2253      328.37032      15967.473     -10522.3       -684.82628      117384.53      48.963256      48.963256      48.963256      1.0443023      3268.6055      838.29951      1390.3964    
     63000   63000          765.70101     -1419.1781      51087.488      53517.026      19900.326      33616.699      8582.4972      8744.8274      9460.1886      1152.4037      225.07185      15975.08      -10523.369     -684.82628      117384.53      48.963256      48.963256      48.963256      1.0443023     -214.1488       52.908395     -4096.2939    
     64000   64000          756.7787      -1311.1805      50766.837      53011.49       19668.438      33343.051      8672.9324      8798.5199      9117.2171      1092.8698      247.66931      15942.346     -10528.503     -684.82628      117384.53      48.963256      48.963256      48.963256      1.0443023     -1218.7036     -1301.7605     -1413.0773    
     65000   65000          761.51888     -1030.445       51608.607      53372.659      19791.634      33581.025      8727.2315      8693.8797      9346.9282      1089.4982      314.68382      15936.183     -10527.379     -684.82628      117384.53      48.963256      48.963256      48.963256      1.0443023     -1356.8637     -752.40688     -982.0645     
     66000   66000          772.25685     -461.69131      52309.644      53100.028      20070.71       33029.318      8501.2789      8567.6331      9120.5324      1104.5994      313.58348      15938.101     -10516.411     -684.82628      117384.53      48.963256      48.963256      48.963256      1.0443023     -1701.7019      30.926331      285.70159    
     67000   67000          762.5606       762.58658      54453.982      53148.485      19818.708      33329.777      8488.4103      8784.726       9145.249       1128.2976      337.11635      15965.072     -10519.095     -684.82628      117384.53      48.963256      48.963256      48.963256      1.0443023      782.80425      270.30415      1234.6513    
     68000   68000          773.34804      859.88813      54938.104      53466.033      20099.07       33366.963      8318.9256      8991.5653      9217.5233      1116.7036      295.89406      15955.528     -10529.176     -684.82628      117384.53      48.963256      48.963256      48.963256      1.0443023      1604.631      -5.47263        980.50603    
     69000   69000          769.03895     -306.8682       52753.191      53278.529      19987.078      33291.45       8450.1585      8769.7425      9249.8156      1105.2901      275.96967      15964.995     -10524.521     -684.82628      117384.53      48.963256      48.963256      48.963256      1.0443023     -1021.5847      34.394478      66.585598    
     70000   70000          768.00442     -86.633308      53239.413      53387.724      19960.191      33427.532      8536.8531      8790.2097      9220.1848      1098.5182      372.7766       15935.807     -10526.817     -684.82628      117384.53      48.963256      48.963256      48.963256      1.0443023     -411.19118     -442.33801      593.62927    
     71000   71000          768.29547     -154.47028      52889.284      53153.726      19967.755      33185.971      8475.8708      8819.8975      8961.166       1064.068       433.02307      15954.104     -10522.159     -684.82628      117384.53      48.963256      48.963256      48.963256      1.0443023     -574.63765      669.36659     -558.13979    
     72000   72000          771.33218     -1813.9725      50198.236      53303.635      20046.679      33256.957      8449.3552      8639.7933      9415.0534      1100.6225      253.58925      15931.649     -10533.106     -684.82628      117384.53      48.963256      48.963256      48.963256      1.0443023     -3674.0445     -2267.0899      499.21673    
     73000   73000          768.30609      396.01645      54282.467      53604.513      19968.032      33636.481      8669.5336      8737.052       9305.9867      1138.4852      352.17742      15957.643     -10524.396     -684.82628      117384.53      48.963256      48.963256      48.963256      1.0443023     -1413.519       916.61006      1684.9583    
     74000   74000          772.48547     -420.40593      52609.611      53329.318      20076.652      33252.665      8565.631       8597.713       9191.0575      1145.3859      329.42001      15943.13      -10519.672     -684.82628      117384.53      48.963256      48.963256      48.963256      1.0443023     -0.86545879    -189.71657     -1070.6357    
     75000   75000          768.45275      1741.5908      56480.148      53498.661      19971.843      33526.818      8684.3955      8777.094       9205.3466      1104.4439      335.58138      15946.59      -10526.633     -684.82628      117384.53      48.963256      48.963256      48.963256      1.0443023      184.8231       2870.7816      2169.1676    
     76000   76000          773.33857      1318.4507      55537.911      53280.812      20098.824      33181.988      8496.2249      8790.3336      9026.4385      1151.1073      298.85824      15949.169     -10530.144     -684.82628      117384.53      48.963256      48.963256      48.963256      1.0443023      1989.9096      1187.8453      777.59702    
     77000   77000          764.72319      680.50002      54537.697      53372.726      19874.913      33497.813      8530.3575      8817.2302      9301.5918      1120.3012      297.89883      15953.631     -10523.197     -684.82628      117384.53      48.963256      48.963256      48.963256      1.0443023      1461.8018     -166.67926      746.37749    
     78000   78000          774.4616      -324.32274      52968.148      53523.366      20128.011      33395.355      8618.3807      8775.965       9236.7815      1099.0191      252.49722      15938.444     -10525.733     -684.82628      117384.53      48.963256      48.963256      48.963256      1.0443023     -364.72074     -1578.5299      970.28241    
     79000   79000          759.53996      111.5151       53175.398      52984.492      19740.203      33244.289      8412.9302      8706.7075      9121.1747      1112.5111      458.87165      15954.432     -10522.338     -684.82628      117384.53      48.963256      48.963256      48.963256      1.0443023      946.23999     -699.57619      87.881493    
     80000   80000          762.55701      1514.6525      55793.147      53200.163      19818.615      33381.548      8604.5978      8768.0383      9098.4997      1117.5228      349.89954      15963.582     -10520.592     -684.82628      117384.53      48.963256      48.963256      48.963256      1.0443023      1905.5745      34.970515      2603.4126    
     81000   81000          770.56568      1546.6369      55797.734      53149.995      20026.758      33123.237      8276.2219      8770.647       9218.4307      1063.6201      363.99879      15948.88      -10518.561     -684.82628      117384.53      48.963256      48.963256      48.963256      1.0443023      1160.5225      1338.0392      2141.3488    
     82000   82000          766.46831      1177.7202      55423.68       53407.502      19920.268      33487.233      8582.0306      8695.5882      9236.564       1144.5289      417.08797      15936.775     -10525.341     -684.82628      117384.53      48.963256      48.963256      48.963256      1.0443023      2570.8251      713.85906      248.4764     
     83000   83000          770.14724     -776.99887      52168.361      53498.531      20015.883      33482.649      8608.4294      8796.9213      9266.5256      1111.9027      251.71417      15970.857     -10523.701     -684.82628      117384.53      48.963256      48.963256      48.963256      1.0443023     -265.5332      -638.38218     -1427.0812    
     84000   84000          757.63791      211.19117      53435.546      53074          19690.769      33383.232      8655.7055      8748.4113      9130.4022      1101.5718      282.51746      15984.218     -10519.594     -684.82628      117384.53      48.963256      48.963256      48.963256      1.0443023     -25.443736      405.37645      253.64081    
     85000   85000          777.28492      1570.5841      56158.344      53469.609      20201.389      33268.221      8504.7617      8747.8285      9183.6612      1113.4916      263.6395       15979.285     -10524.446     -684.82628      117384.53      48.963256      48.963256      48.963256      1.0443023      1881.552       775.67618      2054.5242    
     86000   86000          760.67886     -342.51137      52384.163      52970.519      19769.802      33200.717      8455.4537      8685.1615      9211.6684      1131.3657      306.36134      15944.314     -10533.607     -684.82628      117384.53      48.963256      48.963256      48.963256      1.0443023     -337.6113      -85.164823     -604.758      
     87000   87000          761.49144     -575.78764      52179.681      53165.391      19790.921      33374.47       8581.6528      8803.183       9135.5842      1101.6424      340.90746      15943.176     -10531.675     -684.82628      117384.53      48.963256      48.963256      48.963256      1.0443023     -1181.1795     -798.41641      252.23302    
     88000   88000          776.48662     -200.43794      53126.434      53469.57       20180.641      33288.929      8408.587       8716.4569      9334.1721      1151.5695      248.07031      15954.51      -10524.437     -684.82628      117384.53      48.963256      48.963256      48.963256      1.0443023     -1152.2507      499.28414      51.652749    
     89000   89000          769.54592      92.67646       53642.638      53483.982      20000.254      33483.727      8541.7777      8792.0032      9246.6354      1111.3373      367.6673       15951.233     -10526.926     -684.82628      117384.53      48.963256      48.963256      48.963256      1.0443023      298.40082     -577.12422      556.75278    
     90000   90000          767.00029     -1615.4116      50516.775      53282.252      19934.094      33348.157      8368.8232      8803.4444      9376.1646      1098.9365      271.43644      15956.839     -10527.486     -684.82628      117384.53      48.963256      48.963256      48.963256      1.0443023     -831.29668     -2578.9167     -1436.0213    
     91000   91000          767.28616     -1683.768       50924.53       53807.028      19941.524      33865.505      8565.8702      9006.4377      9454.9034      1114.7066      305.15217      15953.986     -10535.551     -684.82628      117384.53      48.963256      48.963256      48.963256      1.0443023     -639.79558     -29.896982     -4381.6115    
     92000   92000          770.20199     -1489.1463      50683.052      53232.371      20017.305      33215.065      8350.9128      8694.0098      9272.6421      1124.8933      349.41499      15951.656     -10528.463     -684.82628      117384.53      48.963256      48.963256      48.963256      1.0443023     -2059.2944     -1611.0679     -797.07674    
     93000   93000          784.64117     -596.01177      52522.057      53542.39       20392.575      33149.814      8401.982       8761.9465      9118.9105      1095.3899      333.28687      15958.589     -10520.29      -684.82628      117384.53      48.963256      48.963256      48.963256      1.0443023     -2163.0626     -590.39886      965.42617    
     94000   94000          771.13161      198.9812       54290.774      53950.131      20041.466      33908.665      8616.5572      8751.9313      9514.3496      1147.7659      438.62825      15968.669     -10529.236     -684.82628      117384.53      48.963256      48.963256      48.963256      1.0443023      165.49325     -290.29991      721.75027    
     95000   95000          761.49241     -1051.2898      51671.016      53470.754      19790.946      33679.808      8764.9863      8642.7917      9379.2322      1110.1505      352.90675      15952.145     -10522.405     -684.82628      117384.53      48.963256      48.963256      48.963256      1.0443023     -1914.3668     -887.33698     -352.16556    
     96000   96000          762.6582       427.72371      53739.481      53007.247      19821.245      33186.002      8357.3596      8854.5512      9130.3455      1090.9298      355.69063      15929.987     -10532.861     -684.82628      117384.53      48.963256      48.963256      48.963256      1.0443023     -812.5971       206.22781      1889.5404    
     97000   97000          768.58417     -12.060175      53274.934      53295.58       19975.259      33320.321      8676.6759      8775.4786      9098.1134      1106.7661      244.89974      15947.669     -10529.282     -684.82628      117384.53      48.963256      48.963256      48.963256      1.0443023     -221.75605     -115.72313      301.29866    
     98000   98000          781.31107     -505.2519       52850.141      53715.098      20306.027      33409.071      8548.1631      8965.3954      9216.2039      1101.8345      179.39858      15922.696     -10524.62      -684.82628      117384.53      48.963256      48.963256      48.963256      1.0443023     -498.12294     -117.2485      -900.38427    
     99000   99000          782.82205      79.0506        53371.284      53235.955      20345.297      32890.658      8280.6716      8769.8025      9072.061       1086.9134      244.01707      15958.429     -10521.236     -684.82628      117384.53      48.963256      48.963256      48.963256      1.0443023      1578.2227     -1711.6054      370.53452    
    100000   100000         767.9172      -1016.6337      51490.259      53230.668      19957.924      33272.744      8532.9334      8804.6893      9107.5374      1117.5711      299.72624      15932.474     -10522.188     -684.82628      117384.53      48.963256      48.963256      48.963256      1.0443023     -1492.1992     -801.08277     -756.61907    
    101000   101000         763.32284      516.41481      53889.837      53005.77       19838.519      33167.251      8557.8882      8780.4817      9113.8203      1109.0264      180.43699      15955.6       -10530.003     -684.82628      117384.53      48.963256      48.963256      48.963256      1.0443023      926.64818      63.475863      559.12039    
    102000   102000         761.69699      1108.1314      55189.001      53291.954      19796.263      33495.691      8665.4194      8928.5384      9101.2762      1135.255       260.15138      15930.568     -10525.517     -684.82628      117384.53      48.963256      48.963256      48.963256      1.0443023      1533.4877      26.246956      1764.6596    
    103000   103000         763.33219      763.93286      54482.321      53174.519      19838.762      33335.758      8645.4188      8948.1063      8967.5219      1074.919       274.00405      15952.055     -10526.267     -684.82628      117384.53      48.963256      48.963256      48.963256      1.0443023      1412.3248     -793.16298      1672.6367    
    104000   104000         772.41625     -286.65757      52785.38       53276.118      20074.853      33201.265      8340.3484      8727.4972      9262.4142      1132.8988      315.0271       15950.18      -10527.101     -684.82628      117384.53      48.963256      48.963256      48.963256      1.0443023     -3126.0753      1331.24        934.86255    
    105000   105000         767.06977      1351.6439      55555.285      53241.361      19935.9        33305.461      8474.5406      8651.9707      9236.8975      1125.6995      380.00711      15956.805     -10520.459     -684.82628      117384.53      48.963256      48.963256      48.963256      1.0443023      1173.456       2146.0952      735.38045    
    106000   106000         770.24979     -709.15348      52218.717      53432.741      20018.548      33414.193      8397.1316      8905.8664      9223.8125      1142.232       295.24049      15972.942     -10523.032     -684.82628      117384.53      48.963256      48.963256      48.963256      1.0443023     -1622.6534     -154.61343     -350.19361    
    107000   107000         779.09675      63.34758       53673.387      53564.94       20248.477      33316.463      8519.0119      8691.7715      9196.8584      1105.0537      341.89295      15971.778     -10509.904     -684.82628      117384.53      48.963256      48.963256      48.963256      1.0443023     -63.578091     -135.43563      389.05646    
    108000   108000         767.14141      184.61622      53367.94       53051.89       19937.762      33114.128      8389.959       8762.7833      9230.4226      1103.9223      204.502        15950.999     -10528.46      -684.82628      117384.53      48.963256      48.963256      48.963256      1.0443023      1325.4336     -995.61544      224.03052    
    109000   109000         764.97318     -768.99872      51837.277      53153.751      19881.41       33272.341      8676.2148      8654.6017      9121.5407      1098.7108      265.38645      15970.607     -10514.721     -684.82628      117384.53      48.963256      48.963256      48.963256      1.0443023     -1054.6974     -1565.3894      313.09062    
    110000   110000         769.13503     -319.21831      52773.818      53320.298      19989.576      33330.722      8510.5474      8657.9153      9307.3743      1106.154       324.60964      15940.803     -10516.682     -684.82628      117384.53      48.963256      48.963256      48.963256      1.0443023     -1388.412      -541.87333      972.63039    
    111000   111000         776.30784      970.14385      55141.137      53480.316      20175.994      33304.322      8518.9705      8867.9047      9120.625       1113.3544      255.8101       15948.356     -10520.699     -684.82628      117384.53      48.963256      48.963256      48.963256      1.0443023      641.69884      2350.2745     -81.541748    
    112000   112000         759.19221      1613.3886      55955.576      53193.563      19731.165      33462.398      8634.3382      8732.5332      9271.3664      1107.1292      296.12734      15946.946     -10526.042     -684.82628      117384.53      48.963256      48.963256      48.963256      1.0443023      232.35111      1288.5017      3319.313     
    113000   113000         773.91095      1685.7523      56774.837      53888.942      20113.7        33775.242      8776.5383      8830.8733      9244.0887      1091.4909      387.10132      15968.794     -10523.645     -684.82628      117384.53      48.963256      48.963256      48.963256      1.0443023      1478.2591      1156.5824      2422.4155    
    114000   114000         764.64039      1039.7078      55143.434      53363.524      19872.761      33490.763      8633.2466      8911.7618      9023.4266      1096.7765      383.53856      15970.028     -10528.015     -684.82628      117384.53      48.963256      48.963256      48.963256      1.0443023      323.8525       524.81431      2270.4565    
    115000   115000         775.01852     -1915.3378      50351.879      53630.809      20142.486      33488.323      8514.7437      8855.1933      9280.2964      1125.8206      301.16863      15951.387     -10540.287     -684.82628      117384.53      48.963256      48.963256      48.963256      1.0443023     -510.96669     -3584.3465     -1650.7002    
    116000   116000         767.39785      724.57582      54592.514      53352.089      19944.427      33407.662      8595.2731      8771.4756      9210.3932      1120.3094      290.75621      15951.986     -10532.532     -684.82628      117384.53      48.963256      48.963256      48.963256      1.0443023      1348.1524      1995.4012     -1169.8261    
    117000   117000         771.70348     -363.76028      52849.861      53472.595      20056.329      33416.266      8621.8754      8816.0946      9212.1242      1074.4692      253.47649      15966.907     -10528.681     -684.82628      117384.53      48.963256      48.963256      48.963256      1.0443023     -774.28921      1279.1652     -1596.1568    
    118000   118000         770.5257       619.60072      54140.714      53079.999      20025.718      33054.28       8526.0097      8480.3546      9200.8073      1094.2669      345.29822      15941.252     -10533.708     -684.82628      117384.53      48.963256      48.963256      48.963256      1.0443023      1608.5633     -18.097916      268.33676    
    119000   119000         766.66871     -2878.9327      48246.879      53175.419      19925.477      33249.943      8548.4955      8908.5306      9100.5237      1066.5102      199.99329      15953.741     -10527.851     -684.82628      117384.53      48.963256      48.963256      48.963256      1.0443023     -1569.6856     -4786.4174     -2280.6951    
    120000   120000         758.59438     -1732.3568      50521.623      53487.302      19715.627      33771.674      8621.1322      8856.1571      9459.4562      1129.6619      279.476        15955.842     -10530.051     -684.82628      117384.53      48.963256      48.963256      48.963256      1.0443023     -2450.0018     -1328.0055     -1419.063     
    121000   121000         772.87406     -1345.6763      50953.05       53256.758      20086.752      33170.006      8442.3793      8692.6189      9214.3336      1109.9689      279.96968      15953.949     -10523.214     -684.82628      117384.53      48.963256      48.963256      48.963256      1.0443023      211.17902     -1341.5003     -2906.7075    
    122000   122000         771.46878     -478.16772      52831.799      53650.39       20050.229      33600.161      8723.712       8714.769       9269.1571      1125.919       356.36321      15944.334     -10534.094     -684.82628      117384.53      48.963256      48.963256      48.963256      1.0443023     -694.07286     -348.45827     -391.97202    
    123000   123000         772.69859      152.35177      53708.251      53447.435      20082.191      33365.243      8643.1763      8891.9853      9072.3966      1060.9872      282.45491      15949.619     -10535.376     -684.82628      117384.53      48.963256      48.963256      48.963256      1.0443023     -1569.2709      476.75153      1549.5747    
    124000   124000         769.39746     -107.58132      53056.492      53240.664      19996.396      33244.268      8606.18        8702.6521      9167.5422      1077.3127      268.0999       15956.476     -10533.995     -684.82628      117384.53      48.963256      48.963256      48.963256      1.0443023      725.30673      622.46926     -1670.5199    
    125000   125000         781.10268      665.99264      54874.534      53734.399      20300.611      33433.788      8736.7035      8701.4963      9070.3395      1083.7035      389.55297      15972.421     -10520.428     -684.82628      117384.53      48.963256      48.963256      48.963256      1.0443023      121.5691       964.1615       912.24733    
    126000   126000         777.61853     -555.37027      52497.44       53448.197      20210.059      33238.138      8410.6747      8733.6918      9304.0122      1090.9619      272.97113      15956.153     -10530.327     -684.82628      117384.53      48.963256      48.963256      48.963256      1.0443023      63.822549     -1154.1122     -575.82118    
    127000   127000         762.72067      69.896869      53179.251      53059.592      19822.868      33236.724      8463.2692      8907.3225      9011.9042      1101.008       315.54889      15959.004     -10521.333     -684.82628      117384.53      48.963256      48.963256      48.963256      1.0443023     -1333.4191     -543.21676      2086.3265    
    128000   128000         773.94588      1528.3446      56029.737      53413.314      20114.608      33298.706      8632.4555      8749.4613      9017.2699      1107.864       354.44594      15962.667     -10525.457     -684.82628      117384.53      48.963256      48.963256      48.963256      1.0443023      1033.9586      2980.1121      570.96321    
    129000   129000         769.04448      550.1742       54546.466      53604.605      19987.222      33617.383      8665.8         8784.0358      9311.0839      1077.0998      341.51496      15963.425     -10525.576     -684.82628      117384.53      48.963256      48.963256      48.963256      1.0443023      2898.8841     -1660.9701      412.60867    
    130000   130000         773.5404       376.54398      53998.458      53353.84       20104.07       33249.77       8706.7005      8774.9663      8981.8313      1076.1268      280.57257      15958.583     -10529.01      -684.82628      117384.53      48.963256      48.963256      48.963256      1.0443023     -644.10512      825.87578      947.86129    
    131000   131000         767.51598      203.37602      53601.346      53253.18       19947.497      33305.683      8525.3766      8791.0575      9224.4433      1103.7082      217.72973      15967.833     -10524.465     -684.82628      117384.53      48.963256      48.963256      48.963256      1.0443023     -103.94407      1290.5114     -576.43925    
    132000   132000         777.08484      205.79275      53660.289      53307.986      20196.189      33111.797      8517.2599      8783.4611      9054.8261      1089.3395      274.25925      15922.843     -10530.192     -684.82628      117384.53      48.963256      48.963256      48.963256      1.0443023      647.56843     -1197.2475      1167.0573    
    133000   133000         775.73291     -302.74346      52976.821      53495.097      20161.052      33334.045      8542.9725      8750.5412      9223.277       1114.1607      268.47119      15952.714     -10518.092     -684.82628      117384.53      48.963256      48.963256      48.963256      1.0443023      776.30828      79.75393      -1764.2926    
    134000   134000         767.31669      393.03276      53718.625      53045.78       19942.317      33103.462      8492.0505      8774.531       8973.6869      1095.4595      330.01546      15958.551     -10520.831     -684.82628      117384.53      48.963256      48.963256      48.963256      1.0443023      814.14852      496.23319     -131.28344    
    135000   135000         776.57535     -710.11497      52516.161      53731.83       20182.947      33548.883      8411.3444      8908.0321      9337.7129      1106.6088      360.8035       15954.275     -10529.895     -684.82628      117384.53      48.963256      48.963256      48.963256      1.0443023     -926.28901     -487.27897     -716.77693    
    136000   136000         761.43205     -402.25956      52552.415      53241.057      19789.378      33451.679      8500.641       8870.7507      9244.6746      1099.3565      300.57779      15961.338     -10525.66      -684.82628      117384.53      48.963256      48.963256      48.963256      1.0443023     -183.22301     -1649.2705      625.71482    
    137000   137000         779.27295      3726.3642      59943.509      53564.223      20253.057      33311.166      8374.5194      8922.9716      9066.2645      1120.3647      406.89273      15945.113     -10524.96      -684.82628      117384.53      48.963256      48.963256      48.963256      1.0443023      2033.6077      6280.6955      2864.7894    
    138000   138000         774.43817      908.16538      55102.956      53548.238      20127.402      33420.835      8433.1401      8820.052       9226.2851      1111.6343      393.85256      15962.642     -10526.771     -684.82628      117384.53      48.963256      48.963256      48.963256      1.0443023      482.40594      1783.0168      459.07341    
    139000   139000         770.52865     -855.9912       51599.68       53065.08       20025.795      33039.285      8336.2602      8606.1601      9279.6954      1102.8541      286.55652      15954.27      -10526.511     -684.82628      117384.53      48.963256      48.963256      48.963256      1.0443023     -162.06243     -1914.8998     -491.01141    
    140000   140000         766.91455     -589.73961      52209.335      53218.93       19931.866      33287.064      8517.5753      8661.0001      9305.9234      1082.033       278.51804      15960.883     -10518.869     -684.82628      117384.53      48.963256      48.963256      48.963256      1.0443023     -353.81968     -851.40705     -563.99209    
    141000   141000         775.03304     -727.04095      52376.94       53621.585      20142.863      33478.722      8522.076       8713.9951      9476.2711      1134.9701      205.84528      15954.885     -10529.321     -684.82628      117384.53      48.963256      48.963256      48.963256      1.0443023      392.33693     -992.75769     -1580.7021    
    142000   142000         769.32876     -794.46401      51882.578      53242.647      19994.61       33248.037      8567.6143      8753.1917      9169.928       1058.3686      319.17478      15917.275     -10537.515     -684.82628      117384.53      48.963256      48.963256      48.963256      1.0443023     -192.9077      -788.43013     -1402.0542    
    143000   143000         764.56386      544.34614      54156.703      53224.819      19870.772      33354.046      8712.7301      8812.7351      9123.2419      1111.4909      201.5536       15928.776     -10536.482     -684.82628      117384.53      48.963256      48.963256      48.963256      1.0443023      1036.641       897.65222     -301.25478    
    144000   144000         775.47961      340.9004       53918.677      53335.078      20154.469      33180.609      8557.2753      8903.6666      8952.537       1061.2256      310.09563      15929.311     -10533.503     -684.82628      117384.53      48.963256      48.963256      48.963256      1.0443023      403.67393     -508.54186      1127.5691    
    145000   145000         770.74959     -749.81766      52193.063      53476.7        20031.537      33445.163      8453.4733      8818.4365      9251.2187      1127.1924      372.23158      15946.718     -10524.108     -684.82628      117384.53      48.963256      48.963256      48.963256      1.0443023     -670.57936     -1109.6525     -469.22114    
    146000   146000         765.72886      660.97077      54227.9        53096.362      19901.05       33195.312      8633.9254      8672.0071      9079.2734      1068.9866      322.48283      15949.374     -10530.737     -684.82628      117384.53      48.963256      48.963256      48.963256      1.0443023      1526.9564      486.29478     -30.338911    
    147000   147000         766.72337      715.01286      54278.111      53054.057      19926.897      33127.16       8579.5946      8785.3865      9012.9262      1098.9373      240.20055      15939.068     -10528.953     -684.82628      117384.53      48.963256      48.963256      48.963256      1.0443023      2161.3587     -728.23756      711.91738    
    148000   148000         768.88567     -301.83335      52967.465      53484.184      19983.095      33501.089      8549.3494      8702.5633      9370.9061      1110.758       329.95403      15961.907     -10524.349     -684.82628      117384.53      48.963256      48.963256      48.963256      1.0443023     -333.67988      144.89739     -716.71757    
    149000   149000         761.81768     -58.825256      52843.465      52944.17       19799.4        33144.771      8400.6686      8588.7783      9308.1416      1128.2187      294.70569      15957.161     -10532.903     -684.82628      117384.53      48.963256      48.963256      48.963256      1.0443023     -1083.9986      784.68413      122.83867    
    150000   150000         774.2977      -469.49562      52652.088      53455.833      20123.752      33332.081      8503.3166      8826.727       9241.3452      1082.0615      257.13046      15949.02      -10527.519     -684.82628      117384.53      48.963256      48.963256      48.963256      1.0443023     -1117.2975      287.95959     -579.14899    
    151000   151000         758.52231     -622.24871      52022.889      53088.137      19713.754      33374.383      8575.5017      8755.6966      9207.7961      1077.4131      309.98304      15962.737     -10514.745     -684.82628      117384.53      48.963256      48.963256      48.963256      1.0443023     -842.78396     -653.88553     -370.07663    
    152000   152000         771.49568     -600.43114      52138.806      53166.704      20050.928      33115.776      8377.5057      8835.6587      9103.9886      1063.0967      280.66444      15971.077     -10516.216     -684.82628      117384.53      48.963256      48.963256      48.963256      1.0443023     -110.08161      534.53019     -2225.742     
    153000   153000         776.13673     -1638.9074      50908.169      53713.868      20171.547      33542.321      8554.3806      8835.057       9352.1485      1090.2163      287.67686      15943.439     -10520.597     -684.82628      117384.53      48.963256      48.963256      48.963256      1.0443023     -2023.173      -2157.8427     -735.70652    
    154000   154000         775.77607      1149.5286      55483.079      53515.163      20162.174      33352.989      8454.2833      8967.852       8966.9994      1116.5012      385.53031      15974.683     -10512.861     -684.82628      117384.53      48.963256      48.963256      48.963256      1.0443023      859.71087      1052.485       1536.3901    
    155000   155000         760.66018      681.78035      54106.693      52939.531      19769.317      33170.214      8583.5051      8864.2735      8979.442       1097.5491      235.79813      15934.673     -10525.027     -684.82628      117384.53      48.963256      48.963256      48.963256      1.0443023      2119.2522      62.240163     -136.15134    
    156000   156000         770.76108     -685.6886       52085.088      53258.941      20031.836      33227.105      8456.9295      8733.5896      9246.4713      1098.4487      249.07106      15961.893     -10519.299     -684.82628      117384.53      48.963256      48.963256      48.963256      1.0443023     -599.09289      953.56925     -2411.5422    
    157000   157000         778.49259      258.98226      54157.86       53714.5        20232.775      33481.724      8755.2409      8820.3481      9051.6341      1084.0114      365.52451      15941.894     -10536.929     -684.82628      117384.53      48.963256      48.963256      48.963256      1.0443023      1070.4289      453.66666     -747.14875    
    158000   158000         766.15299      812.68807      54492.98       53101.713      19912.073      33189.639      8339.8316      8860.5166      9178.3672      1126.5775      274.61666      15941.057     -10531.327     -684.82628      117384.53      48.963256      48.963256      48.963256      1.0443023      1025.5088      2214.509      -801.95358    
    159000   159000         781.05287      321.20533      54291.813      53741.931      20299.316      33442.614      8629.8563      8548.5721      9452.1687      1126.9417      249.71236      15964.92      -10529.556     -684.82628      117384.53      48.963256      48.963256      48.963256      1.0443023      670.84631      180.57565      112.19403    
    160000   160000         775.90944     -964.45358      51774.205      53425.285      20165.64       33259.644      8481.2559      8785.8837      9112.8947      1111.0367      327.71121      15975.994     -10535.132     -684.82628      117384.53      48.963256      48.963256      48.963256      1.0443023     -757.55988     -1074.043      -1061.7578    
    161000   161000         770.25971      284.57846      53908.118      53420.939      20018.806      33402.133      8384.7349      8819.2305      9322.3138      1133.995       341.1513       15930.675     -10529.967     -684.82628      117384.53      48.963256      48.963256      48.963256      1.0443023     -919.26901      2542.4446     -769.4402     
    162000   162000         755.79627      33.133391      52887.565      52830.843      19642.905      33187.938      8411.0297      8741.3928      9211.6265      1111.3531      300.53703      15939.747     -10527.749     -684.82628      117384.53      48.963256      48.963256      48.963256      1.0443023      2530.8945     -1721.446      -710.04834    
    163000   163000         773.74219      274.38036      54032.99       53563.269      20109.314      33453.955      8543.8261      8874.0341      9214.102       1136.9804      258.01316      15958.94      -10531.941     -684.82628      117384.53      48.963256      48.963256      48.963256      1.0443023      67.645771     -1159.0979      1914.5932    
    164000   164000         761.261       -1613.3261      50402.285      53164.191      19784.932      33379.259      8619.0124      8944.2188      9107.8672      1076.7735      218.57224      15947.539     -10534.724     -684.82628      117384.53      48.963256      48.963256      48.963256      1.0443023     -1875.2685     -1929.6317     -1035.078     
    165000   165000         774.02182     -1025.8542      51767.706      53523.9        20116.582      33407.318      8654.9847      8739.653       9221.081       1124.6061      276.03717      15927.373     -10536.417     -684.82628      117384.53      48.963256      48.963256      48.963256      1.0443023     -1200.8029     -1320.9517     -555.80779    
    166000   166000         769.71467     -678.74459      51824.798      52986.763      20004.64       32982.123      8491.3269      8650.7482      9031.6637      1108.7218      277.38752      15950.584     -10528.309     -684.82628      117384.53      48.963256      48.963256      48.963256      1.0443023     -395.36969      3.2202039     -1644.0843    
    167000   167000         773.42195     -1682.8548      50597.684      53478.618      20100.991      33377.627      8497.1973      8891.0906      9263.4239      1072.7637      242.06964      15933.531     -10522.45      -684.82628      117384.53      48.963256      48.963256      48.963256      1.0443023     -3362.7639      164.69474     -1850.4951    
    168000   168000         780.07982     -1402.4138      51134.028      53534.866      20274.027      33260.839      8523.422       8686.8901      9188.5345      1103.6275      310.82266      15965.5       -10517.957     -684.82628      117384.53      48.963256      48.963256      48.963256      1.0443023      625.95806     -4143.7279     -689.47144    
    169000   169000         766.3973      -1022.1829      51470.551      53220.459      19918.423      33302.037      8318.1797      8849.279       9316.0805      1080.8392      282.20335      15973.519     -10518.064     -684.82628      117384.53      48.963256      48.963256      48.963256      1.0443023     -1112.7816     -336.09422     -1617.6729    
    170000   170000         772.53863      456.01375      54071.536      53290.871      20078.034      33212.837      8467.2736      8814.3698      9122.4006      1081.7511      313.95676      15941.156     -10528.07      -684.82628      117384.53      48.963256      48.963256      48.963256      1.0443023      2243.2345      100.50971     -975.70301    
    171000   171000         764.33784     -1411.9445      50980.752      53397.906      19864.898      33533.008      8635.4774      8988.3013      9098.8798      1092.3428      270.64828      15968.753     -10521.395     -684.82628      117384.53      48.963256      48.963256      48.963256      1.0443023     -3635.7011     -1214.6118      614.47934    
    172000   172000         777.91402      876.09647      55179.926      53680.107      20217.739      33462.369      8405.0453      8969.091       9220.9348      1114.8119      287.27958      15984.042     -10518.836     -684.82628      117384.53      48.963256      48.963256      48.963256      1.0443023      2074.6136      134.85797      418.81783    
    173000   173000         763.66798     -97.021096      53210.939      53377.033      19847.489      33529.544      8389.2607      9021.6391      9289.4265      1120.7112      271.168        15964.129     -10526.791     -684.82628      117384.53      48.963256      48.963256      48.963256      1.0443023      477.20221      412.66038     -1180.9259    
    174000   174000         767.05543     -24.182891      53214.469      53255.868      19935.527      33320.341      8487.7496      8947.5335      9155.1774      1081.8201      202.84686      15967.377     -10522.163     -684.82628      117384.53      48.963256      48.963256      48.963256      1.0443023      1001.5706      961.71686     -2035.8362    
[...]
   1955000   1955000        772.73433     -2390.6615      49302.118      53394.77       20083.12       33311.65       8458.9945      8745.678       9331.132       1052.0868      329.31791      15919.726     -10525.284     -684.82628      117384.53      48.963256      48.963256      48.963256      1.0443023     -3401.3498     -2029.2689     -1741.3658    
   1956000   1956000        780.0638       2598.6975      58175.893      53727.096      20273.611      33453.486      8484.4615      8955.0267      9055.7353      1129.9951      391.25704      15961.728     -10524.718     -684.82628      117384.53      48.963256      48.963256      48.963256      1.0443023      2108.9742      2715.0884      2972.03      
   1957000   1957000        774.8988       1302.1014      55911.69       53682.58       20139.374      33543.206      8642.5063      8945.3224      9090.1299      1073.2405      354.23615      15955.086     -10517.316     -684.82628      117384.53      48.963256      48.963256      48.963256      1.0443023      2156.5474      353.07094      1396.6857    
   1958000   1958000        767.28222      111.15604      53432.487      53242.195      19941.421      33300.774      8494.6523      9041.7707      8937.537       1084.4637      280.83067      15969.064     -10507.544     -684.82628      117384.53      48.963256      48.963256      48.963256      1.0443023      52.422312     -833.37496      1114.4208    
   1959000   1959000        768.57786      989.55721      55030.967      53336.912      19975.095      33361.817      8493.417       8920.8753      9121.8261      1106.8716      283.83669      15958.351     -10523.361     -684.82628      117384.53      48.963256      48.963256      48.963256      1.0443023     -1396.1551      2277.5109      2087.3158    
   1960000   1960000        753.11676     -1713.7492      49850.539      52784.363      19573.266      33211.097      8445.1332      8839.2281      9071.8676      1084.4856      337.42294      15954.56      -10521.6       -684.82628      117384.53      48.963256      48.963256      48.963256      1.0443023     -2392.1854     -507.39873     -2241.6637    
   1961000   1961000        765.94718      245.9655       53872.115      53451.039      19906.724      33544.314      8332.6912      8909.4533      9434.1985      1082.4766      353.82496      15953.776     -10522.107     -684.82628      117384.53      48.963256      48.963256      48.963256      1.0443023      759.86492      572.01516     -593.98359    
   1962000   1962000        778.41089     -13.292159      53508.587      53531.343      20230.652      33300.69       8443.5716      8809.0023      9178.5318      1123.0542      290.849        15976.321     -10520.64      -684.82628      117384.53      48.963256      48.963256      48.963256      1.0443023      1525.1841     -308.82028     -1256.2403    
   1963000   1963000        773.89976     -764.07959      52420.936      53728.989      20113.409      33615.58       8647.1785      8869.8981      9168.0112      1208.1321      278.23315      15956.826     -10512.699     -684.82628      117384.53      48.963256      48.963256      48.963256      1.0443023     -1139.4165     -1617.0111      464.18876    
   1964000   1964000        765.27457      1047.2773      55211.686      53418.818      19889.243      33529.574      8723.0324      8742.2147      9136.8532      1120.8418      362.48324      15967.333     -10523.184     -684.82628      117384.53      48.963256      48.963256      48.963256      1.0443023      1488.9147     -46.495028      1699.4122    
   1965000   1965000        763.94656      426.83482      53821.494      53090.782      19854.729      33236.053      8630.6194      8812.0651      8982.3398      1110.4476      254.1607       15963.301     -10516.881     -684.82628      117384.53      48.963256      48.963256      48.963256      1.0443023     -620.75154     -329.04895      2230.3049    
   1966000   1966000        774.80001     -1584.5432      50934.579      53647.211      20136.807      33510.404      8682.9783      8699.3635      9336.1117      1079.4671      256.80833      15977.366     -10521.69      -684.82628      117384.53      48.963256      48.963256      48.963256      1.0443023     -2091.135       237.91738     -2900.4119    
   1967000   1967000        768.61332     -1176.9171      51263.218      53278.022      19976.016      33302.005      8690.1995      8673.5339      9132.7439      1106.4806      261.03592      15957.616     -10519.604     -684.82628      117384.53      48.963256      48.963256      48.963256      1.0443023     -281.73531     -1416.813      -1832.2029    
   1968000   1968000        773.16319     -1702.6072      50530.488      53445.238      20094.266      33350.972      8516.0304      8846.317       9215.2819      1127.9961      217.23425      15949.366     -10521.254     -684.82628      117384.53      48.963256      48.963256      48.963256      1.0443023     -2170.0035     -2072.487      -865.33114    
   1969000   1969000        770.94152     -301.7281       52805.663      53322.202      20036.526      33285.676      8505.525       8714.1545      9160.0525      1140.4937      330.19603      15964.711     -10529.457     -684.82628      117384.53      48.963256      48.963256      48.963256      1.0443023     -140.53137     -1246.7463      482.09342    
   1970000   1970000        768.34655     -1163.5753      51113.852      53105.815      19969.083      33136.732      8495.267       8788.0994      9156.7974      1047.2781      209.5268       15961.903     -10522.139     -684.82628      117384.53      48.963256      48.963256      48.963256      1.0443023     -2921.6332      382.21938     -951.31213    
   1971000   1971000        765.53619     -980.99361      51598.807      53278.203      19896.043      33382.16       8614.576       8823.0467      9080.4563      1103.1738      313.55646      15960.407     -10513.057     -684.82628      117384.53      48.963256      48.963256      48.963256      1.0443023     -1511.1878      189.79162     -1621.5847    
   1972000   1972000        769.9276       496.78941      54466.538      53616.068      20010.174      33605.894      8673.7574      8828.0398      9207.0362      1133.9225      330.1466       15949.333     -10516.342     -684.82628      117384.53      48.963256      48.963256      48.963256      1.0443023      542.57241     -21.87577       969.67158    
   1973000   1973000        760.90584     -448.90203      52349.12       53117.61       19775.701      33341.909      8319.3678      8934.4807      9073.4727      1114.9295      447.12311      15973.711     -10521.176     -684.82628      117384.53      48.963256      48.963256      48.963256      1.0443023     -956.39828      524.10182     -914.40962    
   1974000   1974000        764.64185      308.5307       53610.15       53081.966      19872.799      33209.167      8380.34        8884.6294      9058.1008      1105.9811      351.38704      15945.677     -10516.948     -684.82628      117384.53      48.963256      48.963256      48.963256      1.0443023     -1004.7108      1021.969       908.3339     
   1975000   1975000        767.55817     -449.1609       52641.156      53410.089      19948.593      33461.496      8582.5495      8820.8319      9286.6625      1070.168       270.38685      15954.215     -10523.318     -684.82628      117384.53      48.963256      48.963256      48.963256      1.0443023      39.43297      -79.217171     -1307.6985    
   1976000   1976000        781.82211     -1783.728       50403.075      53456.698      20319.309      33137.389      8534.2499      8880.2748      8988.3437      1063.0895      230.63223      15959.042     -10518.243     -684.82628      117384.53      48.963256      48.963256      48.963256      1.0443023     -1910.9355     -1417.6195     -2022.629     
   1977000   1977000        769.00696      630.31038      54388.637      53309.588      19986.247      33323.341      8471.0096      8819.4346      9159.0878      1150.96        264.87768      15970.276     -10512.305     -684.82628      117384.53      48.963256      48.963256      48.963256      1.0443023      177.76869      620.08881      1093.0736    
   1978000   1978000        786.29819      77.023498      54212.584      54080.725      20435.641      33645.085      8826.3563      8787.2769      9262.4647      1078.6523      254.27661      15956.056     -10519.998     -684.82628      117384.53      48.963256      48.963256      48.963256      1.0443023     -460.96879      301.06641      390.97287    
   1979000   1979000        766.52102     -850.10922      51845.335      53300.665      19921.638      33379.027      8724.9886      8695.474       9094.6515      1098.8016      335.92515      15953.324     -10524.137     -684.82628      117384.53      48.963256      48.963256      48.963256      1.0443023     -555.88986     -1889.2301     -105.2077     
   1980000   1980000        773.82829      1125.567       55096.024      53169.129      20111.552      33057.577      8491.1241      8852.9358      8951.2563      1051.4146      257.61545      15973.087     -10519.856     -684.82628      117384.53      48.963256      48.963256      48.963256      1.0443023      773.95591      2258.2448      344.50023    
   1981000   1981000        757.8893       166.63955      53537.665      53252.39       19697.302      33555.087      8629.6053      8892.9729      9162.0092      1117.2522      314.25351      15955.879     -10516.885     -684.82628      117384.53      48.963256      48.963256      48.963256      1.0443023      889.1539      -517.95918      128.72394    
   1982000   1982000        769.26         273.48795      54054.238      53586.045      19992.823      33593.222      8585.1169      8958.8635      9182.3931      1100.349       310.59662      15965.939     -10510.037     -684.82628      117384.53      48.963256      48.963256      48.963256      1.0443023      2554.0892     -1783.8571      50.231727    
   1983000   1983000        764.16597      1661.4666      56245.305      53400.985      19860.431      33540.554      8670.1429      8877.2402      9127.0643      1129.1382      279.37509      15977.179     -10519.585     -684.82628      117384.53      48.963256      48.963256      48.963256      1.0443023      349.62276      2059.3389      2575.4382    
   1984000   1984000        769.58291     -70.172274      53456.59       53576.72       20001.216      33575.504      8347.2631      8878.4967      9368.3477      1151.2442      384.06026      15957.769     -10511.676     -684.82628      117384.53      48.963256      48.963256      48.963256      1.0443023     -41.923045     -1396.7714      1228.1776    
   1985000   1985000        785.08779     -730.19479      52614.61       53864.654      20404.183      33460.471      8532.9794      8795.6705      9218.2181      1113.4625      365.74562      15944.747     -10510.352     -684.82628      117384.53      48.963256      48.963256      48.963256      1.0443023     -523.41696     -438.05055     -1229.1168    
   1986000   1986000        767.25175     -2143.174       49598.561      53267.531      19940.63       33326.902      8482.7868      8743.1457      9320.0389      1110.8856      234.60395      15945.011     -10509.57      -684.82628      117384.53      48.963256      48.963256      48.963256      1.0443023     -2948.9987     -20.330566     -3460.1927    
   1987000   1987000        766.51035      221.00865      53685.189      53306.837      19921.361      33385.476      8593.0164      8847.3913      9141.4411      1097.5531      218.26503      15994.27      -10506.46      -684.82628      117384.53      48.963256      48.963256      48.963256      1.0443023      729.1523      -1687.6764      1621.5501    
   1988000   1988000        771.07293      57.227631      53633.745      53535.775      20039.941      33495.834      8449.2312      9027.6812      9134.1198      1089.3722      361.62722      15958.262     -10524.46      -684.82628      117384.53      48.963256      48.963256      48.963256      1.0443023     -467.24445      382.55884      256.36851    
   1989000   1989000        774.18153     -517.51328      52065.767      52951.716      20120.732      32830.983      8368.9997      8703.2813      9007.9406      1075.5173      255.28822      15939.462     -10519.506     -684.82628      117384.53      48.963256      48.963256      48.963256      1.0443023     -1818.9974     -1423.6483      1690.1059    
   1990000   1990000        772.94463     -497.34498      52586.935      53438.357      20088.586      33349.771      8571.446       8716.1242      9248.6977      1136.254       271.13078      15922.346     -10516.228     -684.82628      117384.53      48.963256      48.963256      48.963256      1.0443023      355.67557     -918.0348      -929.67571    
   1991000   1991000        759.01534      364.06581      53366.612      52743.356      19726.568      33016.788      8538.2884      8667.9073      9030.9         1073.7203      253.18649      15965.481     -10512.695     -684.82628      117384.53      48.963256      48.963256      48.963256      1.0443023     -202.85917      904.56684      390.48976    
   1992000   1992000        766.61373      600.57167      54241.534      53213.396      19924.048      33289.348      8632.7913      8698.5259      9077.1099      1090.0246      346.81711      15963.058     -10518.979     -684.82628      117384.53      48.963256      48.963256      48.963256      1.0443023      1363.8776      1448.1495     -1010.3121    
   1993000   1993000        780.2757       1045.9406      55526.314      53735.734      20279.118      33456.616      8780.9877      8658.2943      9173.5172      1126.6418      293.51212      15947.983     -10524.32      -684.82628      117384.53      48.963256      48.963256      48.963256      1.0443023      4.8415401      1020.7946      2112.1855    
   1994000   1994000        763.68951      1610.2804      55474.993      52718.301      19848.048      32870.252      8339.9568      8751.7852      8933.2203      1045.4815      388.5278       15933.545     -10522.264     -684.82628      117384.53      48.963256      48.963256      48.963256      1.0443023     -404.02633      2675.1464      2559.7213    
   1995000   1995000        772.90125     -794.21889      52209.136      53568.785      20087.458      33481.327      8427.7446      8970.2986      9237.1817      1096.1758      314.33481      15952.825     -10517.233     -684.82628      117384.53      48.963256      48.963256      48.963256      1.0443023     -2266.2121     -496.12843      379.68385    
   1996000   1996000        763.43616     -2279.6425      49298.038      53200.633      19841.464      33359.169      8480.7127      8706.9402      9393.2764      1122.0948      208.03629      15960.341     -10512.232     -684.82628      117384.53      48.963256      48.963256      48.963256      1.0443023     -1361.4998     -2999.8332     -2477.5943    
   1997000   1997000        773.75335      55.269903      53714.584      53619.966      20109.604      33510.362      8412.4279      8972.0513      9346.3121      1114.381       269.09847      15929.029     -10532.938     -684.82628      117384.53      48.963256      48.963256      48.963256      1.0443023      590.138       -1111.7269      687.3986     
   1998000   1998000        767.38186     -688.3543       51887.144      53065.561      19944.011      33121.55       8420.2456      8868.9426      9140.8961      1088.464       175.52806      15944.292     -10516.819     -684.82628      117384.53      48.963256      48.963256      48.963256      1.0443023     -706.71669     -1528.5989      170.25265    
   1999000   1999000        783.92201     -2027.7562      50515.005      53986.388      20373.884      33612.504      8749.3414      8819.1747      9243.1852      1091.8741      266.87192      15969.609     -10527.552     -684.82628      117384.53      48.963256      48.963256      48.963256      1.0443023     -1489.0355     -1263.3151     -3330.918     
   2000000   2000000        770.6149      -163.75817      53193.971      53474.314      20028.037      33446.277      8699.6747      8824.5806      9118.1517      1093.5745      300.377        15935.733     -10525.814     -684.82628      117384.53      48.963256      48.963256      48.963256      1.0443023      1772.2111     -1845.8229     -417.66269    
Loop time of 7457.75 on 1 procs for 2000000 steps with 8720 atoms

Performance: 23.171 ns/day, 1.036 hours/ns, 268.177 timesteps/s, 2.339 Matom-step/s
100.0% CPU use with 1 MPI tasks x 1 OpenMP threads

MPI task timing breakdown:
Section |  min time  |  avg time  |  max time  |%varavg| %total
---------------------------------------------------------------
Pair    | 44.344     | 44.344     | 44.344     |   0.0 |  0.59
Bond    | 3752.8     | 3752.8     | 3752.8     |   0.0 | 50.32
Kspace  | 2060.7     | 2060.7     | 2060.7     |   0.0 | 27.63
Neigh   | 1079.6     | 1079.6     | 1079.6     |   0.0 | 14.48
Comm    | 147.5      | 147.5      | 147.5      |   0.0 |  1.98
Output  | 35.328     | 35.328     | 35.328     |   0.0 |  0.47
Modify  | 271.75     | 271.75     | 271.75     |   0.0 |  3.64
Other   |            | 65.78      |            |       |  0.88

Nlocal:           8720 ave        8720 max        8720 min
Histogram: 1 0 0 0 0 0 0 0 0 0
Nghost:          18948 ave       18948 max       18948 min
Histogram: 1 0 0 0 0 0 0 0 0 0
Neighs:              0 ave           0 max           0 min
Histogram: 1 0 0 0 0 0 0 0 0 0
FullNghs:  4.12243e+06 ave 4.12243e+06 max 4.12243e+06 min
Histogram: 1 0 0 0 0 0 0 0 0 0

Total # of neighbors = 4122434
Ave neighs/atom = 472.75619
Ave special neighs/atom = 5.6385321
Neighbor list builds = 163236
Dangerous builds = 0

# --- Cleanup ---
unfix nvt_fix

undump dump_nvt

# --- Write Output ---
write_dump all custom nvt_production_last.dump id type mol x y z xu yu zu vx vy vz modify sort id
write_data /home/arz2/PolyJarvis/data/PEEK3/lammps/nvt_production/nvt_production_out.data
System init for write_data ...
PPPM Kokkos initialization ...
  using 12-bit tables for long-range coulomb
  G vector (1/distance) = 0.31205924
  grid = 40 40 40
  stencil order = 5
  estimated absolute RMS force accuracy = 0.00026765245
  estimated relative force accuracy = 8.0602741e-07
  using double precision cuFFT
  3d grid and FFT values/proc = 103823 64000
Generated 21 of 21 mixed pair_coeff terms from sixthpower/sixthpower mixing rule

print "STAGE COMPLETE: NVT T=770.0->770.0K steps=2000000"
STAGE COMPLETE: NVT T=770.0->770.0K steps=2000000
quit
Modify  | 271.75     | 271.75     | 271.75     |   0.0 |  3.64
Other   |            | 65.78      |            |       |  0.88

Nlocal:           8720 ave        8720 max        8720 min
Histogram: 1 0 0 0 0 0 0 0 0 0
Nghost:          18948 ave       18948 max       18948 min
Histogram: 1 0 0 0 0 0 0 0 0 0
Neighs:              0 ave           0 max           0 min
Histogram: 1 0 0 0 0 0 0 0 0 0
FullNghs:  4.12243e+06 ave 4.12243e+06 max 4.12243e+06 min
Histogram: 1 0 0 0 0 0 0 0 0 0

Total # of neighbors = 4122434
Ave neighs/atom = 472.75619
Ave special neighs/atom = 5.6385321
Neighbor list builds = 163236
Dangerous builds = 0
System init for write_data ...
PPPM Kokkos initialization ...
  using 12-bit tables for long-range coulomb
  G vector (1/distance) = 0.31205924
  grid = 40 40 40
  stencil order = 5
  estimated absolute RMS force accuracy = 0.00026765245
  estimated relative force accuracy = 8.0602741e-07
  using double precision cuFFT
  3d grid and FFT values/proc = 103823 64000
Generated 21 of 21 mixed pair_coeff terms from sixthpower/sixthpower mixing rule
STAGE COMPLETE: NVT T=770.0->770.0K steps=2000000
