units real
atom_style full
boundary p p p

# --- Force Field Styles ---
pair_style lj/class2/coul/long 9.5 9.5
kspace_style pppm 1e-6
dielectric 1.000000
bond_style class2
angle_style class2
dihedral_style class2
improper_style class2
special_bonds lj/coul 0 0 1
pair_modify mix sixthpower tail yes
neighbor 2.0 bin
neigh_modify delay 0 every 1 check yes
neigh_modify one 4000
# KOKKOS: package loaded via -pk kokkos on the command line

read_data /home/alexzhao/PolyJarvis/data/PS4/lammps/equil/npt_prod300/npt_prod300_out.data
Reading data file ...
  orthogonal box = (4.7668088 4.7668088 4.7668088) to (45.967876 45.967876 45.967876)
  1 by 1 by 1 MPI processor grid
  reading atoms ...
  6420 atoms
  reading velocities ...
  6420 velocities
  scanning bonds ...
  4 = max bonds/atom
  scanning angles ...
  14 = max angles/atom
  scanning dihedrals ...
  34 = max dihedrals/atom
  scanning impropers ...
  11 = max impropers/atom
  orthogonal box = (4.7668088 4.7668088 4.7668088) to (45.967876 45.967876 45.967876)
  1 by 1 by 1 MPI processor grid
  reading bonds ...
  6810 bonds
  reading angles ...
  12000 angles
  reading dihedrals ...
  19110 dihedrals
  reading impropers ...
  5600 impropers
Finding 1-2 1-3 1-4 neighbors ...
  special bond factors lj:    0        0        1       
  special bond factors coul:  0        0        1       
     4 = max # of 1-2 neighbors
     8 = max # of 1-3 neighbors
    12 = max # of special neighbors
  special bonds CPU = 0.008 seconds
  read_data CPU = 0.413 seconds


# --- Thermo Output ---
thermo_style custom step time temp press enthalpy etotal ke pe ebond eangle edihed eimp evdwl ecoul elong etail vol lx ly lz density pxx pyy pzz
thermo_modify flush yes
thermo 100

# --- Trajectory ---
dump dump_npt all custom 1000 /home/alexzhao/PolyJarvis/data/PS4/lammps/mechanical/bm_series/bm_P1000/bm_P1000.dump id type mol x y z ix iy iz vx vy vz

# --- Restart Checkpointing ---
restart 10000 npt_1.rst npt_2.rst

# --- Initial Velocities (optional) ---
# Velocities read from data file

# --- SHAKE Constraints ---
fix shake_fix all shake 1e-4 1000 0 m 1.008
Finding SHAKE clusters ...
    2390 = # of size 2 clusters
     400 = # of size 3 clusters
      10 = # of size 4 clusters
       0 = # of frozen angles
  find clusters CPU = 0.002 seconds

# --- NPT Thermostat + Barostat (Nose-Hoover) ---
# T_damp = 100.0 fs  (heat bath coupling)
# P_damp = 1000.0 fs  (pressure bath coupling, ~10x T_damp typical)
# Ramp: T=300.0->300.0K  P=1000.0->1000.0atm
timestep 1.0
fix npt_fix all npt temp 300.0 300.0 100.0 iso 1000.0 1000.0 1000.0

run 500000
PPPM Kokkos initialization ...
  using 12-bit tables for long-range coulomb
  G vector (1/distance) = 0.3027111
  grid = 30 30 30
  stencil order = 5
  estimated absolute RMS force accuracy = 0.0002705403
  estimated relative force accuracy = 8.1472407e-07
  using double precision cuFFT
  3d grid and FFT values/proc = 50653 27000
Generated 6 of 6 mixed pair_coeff terms from sixthpower/sixthpower mixing rule
Neighbor list info ...
  update: every = 1 steps, delay = 0 steps, check = yes
  max neighbors/atom: 4000, page size: 100000
  master list distance cutoff = 11.5
  ghost atom cutoff = 11.5
  binsize = 11.5, bins = 4 4 4
  1 neighbor lists, perpetual/occasional/extra = 1 0 0
  (1) pair lj/class2/coul/long/kk, perpetual
      attributes: full, newton off, kokkos_device
      pair build: full/bin/kk/device
      stencil: full/bin/3d
      bin: kk/device
Per MPI rank memory allocation (min/avg/max) = 43.51 | 43.51 | 43.51 Mbytes
   Step          Time           Temp          Press         Enthalpy        TotEng         KinEng         PotEng         E_bond        E_angle        E_dihed        E_impro         E_vdwl         E_coul         E_long         E_tail         Volume           Lx             Ly             Lz          Density          Pxx            Pyy            Pzz      
         0   0              361.03158      3281.9719      11748.473      8400.8528      5752.8277      2648.0251      1879.9339      2663.369      -2066.9104      204.15893      114.89792      3823.5359     -3970.9601     -411.24265      69939.964      41.201067      41.201067      41.201067      0.98961293     795.13482      4217.0607      4833.7201    
       100   100            302.0796       468.93752      7928.0284      7451.1787      4813.4623      2637.7163      1815.8467      2639.1676     -2010.5022      196.36271      134.17548      3834.9044     -3972.2383     -412.5085       69725.342      41.15888       41.15888       41.15888       0.99265907    -394.19275      1526.2835      274.72177    
       200   200            301.74853      810.12051      8164.9486      7347.7677      4808.1868      2539.5809      1827.1517      2566.7721     -2029.4865      194.49655      120.73557      3832.5286     -3972.6171     -415.84444      69166.001      41.048525      41.048525      41.048525      1.0006866      801.20127      982.72354      646.43673    
       300   300            301.90589      1616.5397      8953.9235      7339.5055      4810.6943      2528.8112      1823.7713      2622.2501     -2048.241       195.74574      76.671189      3833.0723     -3974.4584     -420.01987      68478.419      40.91205       40.91205       40.91205       1.0107344      492.88727      2394.942       1961.7898    
       400   400            298.64236      808.27658      8140.9585      7340.0705      4758.6919      2581.3786      1824.6724      2632.7592     -2015.9407      192.20057      87.541598      3837.707      -3977.5615     -423.33837      67941.624      40.804868      40.804868      40.804868      1.01872        910.21542      116.62608      1397.9882    
       500   500            300.85701      1844.6639      9177.7322      7358.1079      4793.981       2564.1269      1798.1787      2662.396      -2042.8938      199.48045      89.233177      3837.4299     -3979.6976     -425.24083      67637.665      40.743925      40.743925      40.743925      1.0232981      801.83778      1767.4341      2964.7197    
       600   600            302.8803       1710.1012      9038.1014      7352.0619      4826.2209      2525.841       1763.6209      2598.0661     -2000.1611      196.89015      106.54835      3837.9072     -3977.0305     -425.4549       67603.632      40.737091      40.737091      40.737091      1.0238132      686.67909      2334.1272      2109.4974    
       700   700            298.98525      412.80439      7708.9964      7300.3407      4764.1556      2536.1851      1856.6745      2590.049      -2017.712       196.98426      40.704006      3843.142      -3973.6567     -423.72702      67879.308      40.792388      40.792388      40.792388      1.0196553      24.520389      1839.6397     -625.74687    
       800   800            299.09808      977.85638      8243.477       7271.7273      4765.9536      2505.7737      1766.4665      2560.9897     -1982.4041      196.22217      95.397967      3839.5092     -3970.4077     -422.10462      68140.208      40.844585      40.844585      40.844585      1.0157511      2585.7445      384.24619     -36.421525    
       900   900            296.97629      1073.5247      8402.4525      7330.7757      4732.1441      2598.6316      1788.2056      2650.0745     -2003.9613      203.03989      83.31233       3843.3819     -3965.4214     -420.19187      68450.387      40.906467      40.906467      40.906467      1.0111483      846.37137      1641.3664      732.83646    
      1000   1000           303.21328      1411.7555      8854.04        7440.5584      4831.5268      2609.0316      1849.6707      2643.1841     -2039.8221      203.35874      74.594409      3845.3097     -3967.264      -418.95634      68652.252      40.946639      40.946639      40.946639      1.0081751      638.52969      2425.8908      1170.8459    
      1100   1100           302.45881      581.02643      8040.1679      7459.6904      4819.5048      2640.1856      1817.5689      2638.6928     -1987.2121      205.24782      91.112842      3842.5148     -3967.7395     -419.86531      68503.627      40.91707       40.91707       40.91707       1.0103625     -231.06809      932.39665      1041.7507    
      1200   1200           298.32563      505.91238      7906.8482      7403.0783      4753.6449      2649.4334      1768.5619      2675.9444     -1969.4205      194.03396      109.99657      3842.0493     -3971.7323     -421.25254      68278.036      40.872105      40.872105      40.872105      1.0137007      381.33606      56.899298      1079.5018    
      1300   1300           301.42445      176.21123      7531.2605      7356.0313      4803.0229      2553.0084      1765.7262      2618.9348     -1998.0688      203.88549      88.496014      3846.0325     -3971.9978     -421.81936      68186.289      40.85379       40.85379       40.85379       1.0150647     -1722.1251      2104.6654      146.09339    
      1400   1400           302.68328      1002.4504      8351.3051      7355.5004      4823.0816      2532.4187      1785.3295      2603.7084     -2010.1627      208.24352      67.236224      3848.7159     -3970.6521     -422.26802      68113.84       40.839316      40.839316      40.839316      1.0161443      117.12645      1293.909       1596.3159    
      1500   1500           300.93331      2185.1454      9532.6803      7366.0305      4795.1968      2570.8337      1770.0263      2619.4304     -2024.7582      200.36816      126.38275      3849.2806     -3969.8962     -423.04937      67988.037      40.814157      40.814157      40.814157      1.0180246      2143.7655      1691.2212      2720.4494    
      1600   1600           302.28514     -351.30491      6991.5813      7340.1488      4816.7375      2523.4113      1860.7688      2569.6993     -2012.2116      194.93245      41.853188      3841.764      -3973.3947     -422.76279      68034.124      40.823377      40.823377      40.823377      1.017335       457.83084     -369.44278     -1142.3028    
      1700   1700           297.87136      1528.6697      8759.3434      7242.773       4746.4064      2496.3666      1776.6495      2609.6691     -2051.6469      204.73308      87.559588      3842.205      -3972.8027     -422.81512      68025.705      40.821693      40.821693      40.821693      1.0174609      2308.0637      1447.9449      830.00036    
      1800   1800           297.74824     -123.52373      7077.4678      7200.0508      4744.4447      2455.6062      1831.0052      2542.0915     -2022.6767      190.26135      39.90741       3846.267      -3971.2495     -422.68759      68046.229      40.825799      40.825799      40.825799      1.017154      -1031.5194     -313.74458      974.69274    
      1900   1900           301.44425      441.55548      7798.698       7360.8806      4803.3383      2557.5423      1826.6823      2609.2601     -1977.3327      199.19458      46.661246      3829.0261     -3975.9494     -423.05005      67987.929      40.814136      40.814136      40.814136      1.0180262     -1080.0081      1364.9853      1039.6892    
      2000   2000           300.00383      982.74493      8387.81        7413.718       4780.3861      2633.3319      1824.1718      2605.9894     -1970.2069      200.46584      112.12609      3837.2939     -3976.5082     -423.19478      67964.678      40.809482      40.809482      40.809482      1.0183745      442.31568      1519.8399      986.07917    
      2100   2100           303.89717      1216.493       8601.6644      7395.6582      4842.4242      2553.234       1828.9794      2617.6416     -2009.3505      206.84438      46.549376      3840.8434     -3978.2736     -423.11608      67977.318      40.812012      40.812012      40.812012      1.0181851      1541.1614      1558.8029      549.51468    
      2200   2200           298.42195      1783.7939      9073.1623      7306.3605      4755.1798      2551.1807      1791.6316      2643.6592     -2031.1779      206.85646      86.484053      3830.7818     -3977.0545     -423.50281      67915.243      40.799586      40.799586      40.799586      1.0191157      1835.7739      1068.5386      2447.0693    
      2300   2300           299.68175      1680.0472      8929.6735      7265.3821      4775.254       2490.1281      1814.793       2543.3648     -2010.0957      204.67785      69.944791      3842.1667     -3974.7233     -423.4397       67925.365      40.801613      40.801613      40.801613      1.0189639      1780.2703      2055.6002      1204.271     
      2400   2400           294.71754      916.93021      8180.8697      7272.028       4696.1522      2575.8758      1820.6944      2571.6719     -1964.5545      202.6216       81.699173      3838.5353     -3974.7919     -423.20177      67963.554      40.809257      40.809257      40.809257      1.0183913      2033.4986      512.01103      205.28102    
      2500   2500           303.93048      122.36381      7537.059       7415.6542      4842.9549      2572.6993      1797.4827      2629.3561     -1988.844       208.79577      63.211936      3836.6115     -3973.9146     -422.78213      68031.013      40.822755      40.822755      40.822755      1.0173815      890.59378      279.04169     -802.54405    
      2600   2600           303.16965      1622.0646      9061.7989      7452.1204      4830.8317      2621.2888      1766.515       2663.416      -2012.043       206.77275      133.77651      3839.2702     -3976.4188     -422.69631      68044.825      40.825518      40.825518      40.825518      1.017175       1986.968       1605.2031      1274.0227    
      2700   2700           297.39407     -351.7163       7066.5627      7416.2835      4738.8011      2677.4824      1845.199       2617.9133     -1929.305       209.37555      57.763675      3851.5424     -3975.0065     -421.86214      68179.374      40.852409      40.852409      40.852409      1.0151676     -5.009876       451.10511     -1501.2441    
      2800   2800           295.24415      1586.5207      8887.5653      7308.8533      4704.5433      2604.31        1766.9281      2663.8076     -2000.1803      200.48368      102.05989      3846.9737     -3975.7627     -421.54338      68230.929      40.862703      40.862703      40.862703      1.0144006      1181.4704      2711.1097      866.98206    
      2900   2900           295.89978      354.87874      7611.0168      7257.6543      4714.9904      2542.6639      1796.0939      2574.9805     -1948.4882      201.87433      49.677197      3843.6838     -3975.1577     -421.26846      68275.457      40.87159       40.87159       40.87159       1.013739       639.09382      740.09525     -314.55285    
      3000   3000           296.79249      1391.7451      8695.1763      7311.1192      4729.2153      2581.9039      1827.2838      2604.4417     -2020.028       209.21346      88.801202      3845.3036     -3973.1118     -421.7986       68189.644      40.85446       40.85446       40.85446       1.0150147      265.21069      2294.6231      1615.4015    
      3100   3100           304.53821     -142.53968      7333.2552      7474.9072      4852.6389      2622.2683      1816.1533      2616.2064     -1958.3268      206.55159      77.100058      3840.5159     -3975.9322     -422.09748      68141.361      40.844815      40.844815      40.844815      1.0157339      5.9481327     -92.346614     -341.22055    
      3200   3200           302.79892      1331.1905      8813.5919      7492.5343      4824.9242      2667.6102      1857.8212      2601.0951     -1965.1897      211.64201      98.018118      3840.1355     -3975.9121     -422.68605      68046.477      40.825848      40.825848      40.825848      1.0171503      335.13952      1778.4885      1879.9435    
      3300   3300           302.11895      1064.0955      8464.6005      7408.7706      4814.0893      2594.6814      1916.9609      2556.0937     -2027.6476      203.90374      79.863603      3840.5504     -3975.0433     -422.75243      68035.792      40.823711      40.823711      40.823711      1.01731        1002.4115      1271.2528      918.62222    
      3400   3400           299.67752      485.40828      7786.2019      7304.8516      4775.1865      2529.665       1790.66        2561.8862     -1941.1901      207.77206      44.798334      3840.0694     -3974.3309     -423.00488      67995.188      40.815588      40.815588      40.815588      1.0179175     -200.3742       854.07749      802.52155    
      3500   3500           296.13631      113.0091       7384.4304      7272.4945      4718.7595      2553.735       1809.6499      2534.3447     -1932.1478      206.49885      72.888486      3838.0714     -3975.5705     -423.49058      67917.205      40.799979      40.799979      40.799979      1.0190863      274.02794      301.55823     -236.55886    
      3600   3600           296.26651      1614.6205      8942.6839      7344.7619      4720.8341      2623.9277      1849.0594      2598.0608     -1979.1734      218.20237      69.036642      3843.8914     -3975.1494     -423.85208      67859.278      40.788376      40.788376      40.788376      1.0199562      586.41862      2094.3485      2163.0942    
      3700   3700           302.11507      1455.7522      8886.9326      7446.7338      4814.0274      2632.7063      1843.8797      2617.9901     -1985.7184      220.58147      60.097467      3848.8601     -3972.9842     -423.99863      67835.824      40.783676      40.783676      40.783676      1.0203089     -161.9518       3529.5153      999.69321    
      3800   3800           301.17937      2072.6519      9484.2598      7434.7663      4799.1176      2635.6487      1793.3406      2686.4176     -2018.55        210.38883      94.901423      3843.5443     -3974.394      -424.20841      67802.278      40.776952      40.776952      40.776952      1.0208137      419.74082      1271.6492      4526.5657    
      3900   3900           300.54087      2314.2107      9668.4021      7382.4963      4788.9435      2593.5528      1797.144       2685.2296     -2025.8973      207.41504      68.734728      3838.1466     -3977.2199     -424.66261      67729.76       40.762409      40.762409      40.762409      1.0219067      2042.3573      3295.1069      1605.168     
      4000   4000           300.47552     -4.3417276      7331.7195      7336.0145      4787.9022      2548.1123      1748.7783      2607.4349     -1946.88        205.34029      70.49477       3839.6302     -3976.6861     -424.0272       67831.253      40.78276       40.78276       40.78276       1.0203776      407.57166      14.185115     -434.78195    
      4100   4100           292.15257      1105.6696      8413.2534      7315.6319      4655.2808      2660.3511      1794.6644      2704.2547     -1963.9294      213.87689      47.02498       3841.0648     -3976.6052     -422.54424      68069.313      40.830415      40.830415      40.830415      1.016809       1946.6345      1161.8873      208.48683    
      4200   4200           299.11278      2588.2113      9949.4133      7372.7968      4766.1878      2606.609       1828.4172      2630.5881     -2062.0587      202.14987      131.00211      3848.7528     -3972.2423     -421.35621      68261.237      40.868753      40.868753      40.868753      1.0139502      2442.276       2442.3984      2879.9595    
      4300   4300           302.50946      463.17743      7968.3675      7505.8906      4820.3119      2685.5787      1841.6342      2654.2096     -1952.4182      203.82857      67.378829      3844.2962     -3973.3505     -420.10396      68464.712      40.90932       40.90932       40.90932       1.0109367     -246.31225      1467.3422      168.50236    
      4400   4400           299.4224       998.19019      8458.6533      7462.0725      4771.1213      2690.9511      1863.3176      2620.0221     -1975.7311      212.11897      91.894108      3848.3523     -3969.0228     -420.14598      68457.864      40.907956      40.907956      40.907956      1.0110379     -89.623909      1083.1691      2001.0254    
      4500   4500           297.2753       979.00247      8353.3343      7377.6015      4736.9086      2640.6928      1838.4498      2682.7064     -2008.6107      205.9645       49.698399      3844.3509     -3971.8664     -420.87423      68339.41       40.884348      40.884348      40.884348      1.0127903      640.01104      2230.4721      66.524232    
      4600   4600           302.23132      405.93146      7757.6556      7354.9157      4815.8798      2539.0359      1819.3912      2553.0908     -2006.721       201.00047      106.5041       3839.2839     -3973.5137     -422.79277      68029.301      40.822413      40.822413      40.822413      1.0174071      105.2607       542.28047      570.25322    
      4700   4700           298.04204      2273.6888      9594.3892      7345.154       4749.1262      2596.0278      1839.4173      2611.0549     -2018.6147      206.05703      81.134373      3850.4518     -3973.4729     -424.02904      67830.959      40.782701      40.782701      40.782701      1.020382       2762.6452      2396.6339      1661.7873    
      4800   4800           298.64602      78.937179      7379.8767      7301.8903      4758.7503      2543.14        1799.7156      2560.2518     -1950.1715      214.71067      49.108488      3842.8623     -3973.3374     -424.58218      67742.59       40.764983      40.764983      40.764983      1.0217131      368.87346     -1021.7063      889.64441    
      4900   4900           297.52198      2453.3689      9644.4004      7221.9398      4740.8393      2481.1004      1785.8009      2561.2468     -2069.021       188.12707      144.55419      3843.1659     -3972.7734     -424.8206       67704.571      40.757355      40.757355      40.757355      1.0222869      1359.7182      3017.5837      2982.8048    
      5000   5000           299.19389     -401.42182      6859.8822      7257.8486      4767.4801      2490.3685      1794.6276      2604.2418     -1995.4101      201.85256      12.990934      3843.5613     -3971.4956     -423.11065      67978.19       40.812187      40.812187      40.812187      1.018172      -1764.7936     -187.75116      748.27928    
      5100   5100           300.75589      914.25851      8270.2441      7360.9726      4792.3697      2568.6028      1808.6833      2596.42       -2007.4899      215.28805      81.833827      3845.9692     -3972.1017     -421.76921      68194.397      40.855409      40.855409      40.855409      1.014944       1157.1001      75.458643      1510.2168    
      5200   5200           300.31842      268.92128      7662.4986      7394.4544      4785.3989      2609.0555      1831.0868      2633.45       -1992.6337      207.85026      50.936828      3848.7038     -3970.3385     -420.84108      68344.793      40.885421      40.885421      40.885421      1.0127105      691.4085       1376.8284     -1261.473     
      5300   5300           302.57312      1806.7021      9175.5564      7375.3581      4821.3263      2554.0319      1820.9625      2547.36       -2006.0973      206.26106      109.81913      3844.8334     -3969.1069     -420.98407      68321.58       40.880792      40.880792      40.880792      1.0130546      1731.7058      2450.9253      1237.4753    
      5400   5400           299.04215      678.51724      7935.7933      7260.3921      4765.0623      2495.3298      1830.7485      2579.0146     -2011.5074      200.76315      24.423404      3843.1348     -3971.2473     -421.40387      68253.518      40.867212      40.867212      40.867212      1.0140648      738.44063      297.09962      1000.0115    
      5500   5500           290.38569      1031.604       8209.7014      7188.0645      4627.1267      2560.9378      1769.3724      2606.3676     -1988.1362      198.76607      104.14559      3842.3113     -3971.8889     -423.56096      67905.92       40.797719      40.797719      40.797719      1.0192557      712.22366      820.45542      1562.133     
      5600   5600           299.69456      1502.9442      8753.3355      7269.7089      4775.4581      2494.2507      1820.022       2582.1556     -2048.9486      193.97747      80.925721      3840.625      -3974.5065     -424.93029      67687.094      40.753848      40.753848      40.753848      1.0225508      640.31087      2673.3786      1195.1433    
      5700   5700           303.742        2646.3325      9959.5919      7353.5934      4839.9517      2513.6418      1839.6949      2636.0599     -2088.7891      202.26043      56.731794      3843.7953     -3976.1115     -425.96086      67523.331      40.720955      40.720955      40.720955      1.0250308      2296.8133      3521.0131      2121.1711    
      5800   5800           297.36969      1559.1483      8916.2976      7381.7441      4738.4126      2643.3316      1753.446       2685.4199     -1978.2787      214.29599      107.85336      3837.7302     -3977.1352     -426.19157      67486.78       40.713606      40.713606      40.713606      1.0255859      1757.1264      944.60806      1975.7105    
      5900   5900           299.92439      919.43975      8272.5589      7365.5496      4779.1203      2586.4293      1807.2965      2623.1004     -2011.3501      210.6194       102.01901      3833.7978     -3979.0537     -425.21739      67641.393      40.744674      40.744674      40.744674      1.0232417      1211.5035      1575.3949     -28.579226    
      6000   6000           300.07531      1308.4271      8609.7434      7314.9288      4781.5251      2533.4037      1808.0556      2605.0822     -2000.3457      205.7067       57.048074      3838.145      -3980.2881     -423.87851      67855.047      40.787528      40.787528      40.787528      1.0200198      1849.9918      2690.1107     -614.82114    
      6100   6100           295.5787       638.03674      7823.8585      7191.0063      4709.8742      2481.1321      1826.1141      2583.2551     -2040.1105      204.27015      40.070813      3843.3229     -3975.7903     -422.90503      68011.242      40.8188        40.8188        40.8188        1.0176772      1791.7045     -597.84602      720.25169    
      6200   6200           297.8238       139.27055      7344.5001      7206.3657      4745.6486      2460.717       1785.1815      2559.1074     -1993.2815      197.74154      39.751572      3845.9132     -3973.6966     -422.91846      68009.082      40.818368      40.818368      40.818368      1.0177096     -181.97924      429.10211      170.68877    
      6300   6300           300.65907      1024.0838      8341.6982      7326.5293      4790.827       2535.7023      1806.2363      2584.78       -1981.5336      216.85815      24.798786      3855.1469     -3970.5842     -423.15226      67971.506      40.810849      40.810849      40.810849      1.0182722      273.59284      2059.3241      739.33458    
      6400   6400           302.10922      287.96595      7655.7498      7370.2868      4813.9343      2556.3525      1768.8139      2605.0679     -1973.3451      209.20601      70.025909      3847.5896     -3971.0056     -423.14644      67972.441      40.811036      40.811036      40.811036      1.0182582      421.97695      452.42891     -10.508014    
      6500   6500           297.931        61.780377      7443.1963      7381.9163      4747.3567      2634.5596      1856.8991      2601.9636     -1973.1658      203.27994      84.112222      3837.2562     -3975.7858     -422.89382      68013.045      40.819161      40.819161      40.819161      1.0176503      241.92441     -33.234928     -23.348346    
      6600   6600           299.23151      614.18139      7969.3045      7359.4463      4768.0796      2591.3667      1788.6236      2637.1344     -1963.5291      203.42977      68.370421      3831.6009     -3974.2633     -422.44213      68085.767      40.833704      40.833704      40.833704      1.0165633      1753.7238      711.18978     -622.36941    
      6700   6700           294.54168      1289.9677      8572.2961      7290.0597      4693.35        2596.7098      1799.5764      2608.7558     -1987.7164      209.62261      114.77858      3827.7915     -3976.0989     -421.9978       68157.456      40.848031      40.848031      40.848031      1.0154941     -112.60706      1559.3661      2423.144     
      6800   6800           295.72825      1012.1976      8240.0016      7232.7228      4712.2572      2520.4656      1841.7274      2556.2087     -2030.2959      194.78309      95.57617       3835.7074     -3973.2412     -421.51696      68235.206      40.863557      40.863557      40.863557      1.014337       402.13724      572.66328      2061.7923    
      6900   6900           296.43293      388.24046      7651.5325      7265.2812      4723.4859      2541.7954      1753.1851      2628.7692     -1965.6135      207.92457      44.88332       3844.1812     -3971.5345     -421.62884      68217.1        40.859942      40.859942      40.859942      1.0146062      209.41985      326.53028      628.77127    
      7000   7000           299.08125      1011.8943      8414.1307      7409.3778      4765.6854      2643.6924      1792.8283      2663.4794     -1976.1759      207.00141      95.792939      3835.8919     -3975.1256     -422.44999      68084.5        40.833451      40.833451      40.833451      1.0165822      427.1444       886.50849      1722.03      
      7100   7100           304.70501      1270.5709      8709.7531      7450.4258      4855.2967      2595.1291      1848.5616      2639.7529     -2026.8869      202.03698      75.633841      3830.9203     -3974.8897     -423.21373      67961.633      40.808873      40.808873      40.808873      1.0184201      1502.5146      2032.4639      276.73427    
      7200   7200           304.67729      245.73263      7634.1748      7390.9022      4854.855       2536.0471      1826.0702      2584.6472     -2015.0414      191.56992      87.413833      3835.2664     -3973.879      -423.71029      67881.988      40.792925      40.792925      40.792925      1.019615       111.31768      39.32028       586.55993    
      7300   7300           297.1106       1145.7259      8436.335       7301.7011      4734.2842      2567.4169      1785.5924      2624.0733     -2002.7022      199.17056      100.20716      3838.1923     -3977.1165     -423.56926      67904.588      40.797452      40.797452      40.797452      1.0192756      1002.2602      2158.6328      276.28469    
      7400   7400           300.5459       2789.0009      10060.27       7295.1337      4789.0237      2506.1099      1850.2634      2589.9906     -2080.5216      191.07022      88.804432      3842.2969     -3975.7939     -423.08885      67981.693      40.812888      40.812888      40.812888      1.0181196      2750.8856      2939.5196      2676.5973    
      7500   7500           299.50256     -707.69504      6599.2177      7303.1176      4772.3986      2530.719       1864.2062      2557.1075     -1974.7446      195.9978       17.073639      3846.0636     -3974.9852     -421.73018      68200.707      40.856669      40.856669      40.856669      1.0148501     -999.36163      197.65015     -1321.3736    
      7600   7600           296.71838      1555.7061      8870.3885      7325.6868      4728.0344      2597.6524      1902.8814      2551.8454     -2053.2853      203.49311      122.93046      3842.8714     -3973.084      -422.45686      68083.393      40.83323       40.83323       40.83323       1.0165988      99.452589      3171.2213      1396.4444    
      7700   7700           293.79796      334.34792      7701.4989      7369.8937      4681.4991      2688.3946      1861.616       2707.5215     -2017.0566      205.88296      61.307554      3843.095      -3973.9718     -422.93801      68005.939      40.817739      40.817739      40.817739      1.0177566     -700.18056      987.10835      716.11596    
      7800   7800           304.03221      634.68648      8037.8488      7410.1855      4844.576       2565.6095      1784.3023      2600.0591     -1974.2073      206.86381      71.410195      3849.0723     -3971.891      -424.16219      67809.666      40.778433      40.778433      40.778433      1.0207025     -210.21941      839.7762       1274.5027    
      7900   7900           300.97894      824.87309      8291.0625      7476.6144      4795.9238      2680.6905      1851.4288      2652.2906     -1951.691       201.73766      57.914089      3846.4647     -3977.4545     -424.83779      67701.831      40.756806      40.756806      40.756806      1.0223282      1817.4158      1348.1314     -690.9279     
      8000   8000           309.4666       2198.5836      9689.4014      7520.7067      4931.1698      2589.5369      1837.1555      2649.2568     -2049.0446      201.25702      83.308335      3843.477      -3975.8732     -425.2497       67636.253      40.743642      40.743642      40.743642      1.0233194      1818.6879      1366.3506      3410.7122    
      8100   8100           295.76485      1049.2537      8453.5405      7418.1016      4712.8404      2705.2611      1817.2365      2674.7942     -1940.4111      210.6118       84.620735      3836.718      -3978.3091     -425.06512      67665.623      40.749539      40.749539      40.749539      1.0228753      959.28068      423.99244      1764.488     
      8200   8200           290.56804      483.58523      7809.5045      7330.9723      4630.0323      2700.9401      1835.7633      2649.509      -1962.0848      201.90591      111.87295      3841.9106     -3977.9369     -423.89797      67851.932      40.786904      40.786904      40.786904      1.0200667     -274.64797      540.01883      1185.3848    
      8300   8300           300.86357      733.65741      8060.6346      7331.4183      4794.0855      2537.3328      1800.1844      2629.1421     -2028.1401      200.68983      62.106613      3848.4995     -3975.1496     -422.02324      68153.347      40.84721       40.84721       40.84721       1.0155553      905.01936      277.24675      1018.7061    
      8400   8400           301.35967      880.89863      8261.8895      7384.2553      4801.9906      2582.2647      1835.8056      2622.5687     -2025.2151      210.4255       64.543729      3848.0238     -3973.8876     -421.02882      68314.318      40.879344      40.879344      40.879344      1.0131623      546.64141      453.02676      1643.0277    
      8500   8500           304.48636      489.3591       7986.5193      7499.0508      4851.8126      2647.2382      1804.2022      2628.6362     -1936.5138      198.44605      82.656989      3845.6163     -3975.8057     -421.0955       68303.501      40.877186      40.877186      40.877186      1.0133228      1368.9673      899.59553     -800.48547    
      8600   8600           302.16836      1103.1025      8642.3311      7545.2123      4814.8766      2730.3357      1906.3824      2672.9645     -2010.4461      212.24136      81.817636      3842.5982     -3975.2224     -421.75637      68196.471      40.855823      40.855823      40.855823      1.0149131      667.25976      1301.5766      1340.4713    
      8700   8700           301.62574     -209.56611      7175.0396      7382.8703      4806.2302      2576.6401      1787.6591      2603.4806     -1947.5361      197.77961      62.801751      3845.8171     -3973.362      -422.9712       68000.603      40.816672      40.816672      40.816672      1.0178365      197.55302     -574.52774     -251.7236     
      8800   8800           303.37409      1932.3352      9242.5223      7333.8455      4834.0892      2499.7563      1765.7849      2614.0039     -2022.8094      205.4509       71.257518      3841.2628     -3975.1942     -424.66796      67728.906      40.762238      40.762238      40.762238      1.0219195      11.663901      2775.5814      3009.7602    
      8900   8900           300.15583      975.18214      8254.7135      7293.6097      4782.8082      2510.8015      1793.1524      2592.8434     -1998.554       195.27374      68.106235      3835.1275     -3975.1478     -425.61301      67578.518      40.732046      40.732046      40.732046      1.0241937      788.09423      1552.7216      584.73058    
      9000   9000           298.04097      894.7221       8150.38        7268.34        4749.1091      2519.2309      1820.8141      2616.8088     -2028.6669      200.18959      41.132392      3843.383      -3974.4301     -425.4998       67596.498      40.735658      40.735658      40.735658      1.0239213     -773.69176      1589.5367      1868.3214    
      9100   9100           302.72745      961.44769      8265.9246      7317.1614      4823.7854      2493.376       1802.3552      2606.5201     -2032.4479      196.73722      53.702284      3841.9901     -3975.4809     -425.07669      67663.783      40.749169      40.749169      40.749169      1.0229031      1292.3144      1919.3446     -327.31597    
      9200   9200           304.46563      799.61702      8223.1694      7433.3464      4851.4824      2581.864       1856.8882      2619.3029     -2018.376       203.03699      41.889337      3851.9548     -3972.8321     -424.67007      67728.57       40.762171      40.762171      40.762171      1.0219246      660.86094      1653.8888      84.101297    
      9300   9300           302.32495      740.13061      8180.3442      7448.1543      4817.3718      2630.7824      1801.1291      2645.3091     -1959.163       207.17804      60.607502      3847.7503     -3972.0286     -424.0178       67832.757      40.783061      40.783061      40.783061      1.020355       1105.6715      2025.3673     -910.64698    
      9400   9400           300.12209      363.42243      7732.4657      7372.3589      4782.2705      2590.0884      1791.7137      2603.1603     -1948.7946      195.67048      79.029942      3842.4751     -3973.1665     -423.33077      67942.844      40.805112      40.805112      40.805112      1.0187017     -492.05084      342.49595      1239.8222    
      9500   9500           293.19545     -252.41312      7012.8009      7263.7004      4671.8986      2591.8018      1797.9683      2668.3361     -1977.4304      206.43855      31.44046       3842.7404     -3977.6916     -421.99915      68157.238      40.847987      40.847987      40.847987      1.0154973     -557.76968      225.11748     -424.58715    
      9600   9600           295.88071      1222.2417      8492.8916      7279.0513      4714.6866      2564.3647      1795.2576      2578.585      -1997.8282      209.88562      105.43574      3848.5764     -3975.5474     -422.3719       68097.088      40.835967      40.835967      40.835967      1.0163943      1604.8677      1355.5584      706.29893    
      9700   9700           298.57805      1249.3049      8571.8648      7330.2663      4757.6671      2572.5992      1810.6758      2657.9383     -2028.1358      203.67726      56.347244      3845.4698     -3973.3734     -422.07218      68145.444      40.845631      40.845631      40.845631      1.0156731      1973.8615      1378.9883      395.06499    
      9800   9800           302.64229      1029.2939      8430.0065      7408.1765      4822.4285      2585.748       1816.0493      2617.4408     -2005.081       202.10272      73.191845      3851.7877     -3969.7433     -422.53257      68071.194      40.830791      40.830791      40.830791      1.0167809      947.94216      352.69599      1787.2436    
      9900   9900           298.62693     -40.382113      7386.6933      7426.7507      4758.4459      2668.3048      1786.8252      2640.8908     -1922.9935      214.5015       77.225283      3843.9402     -3972.0847     -422.86836      68017.141      40.81998       40.81998       40.81998       1.017589       148.54478      477.57616     -747.26728    
     10000   10000          303.03151      575.36028      7936.5282      7367.2997      4828.6305      2538.6692      1788.8456      2618.6036     -1983.7693      200.86587      39.294405      3846.2528     -3971.4239     -423.98713      67837.664      40.784045      40.784045      40.784045      1.0202812      578.25809      525.198        622.62475    
     10100   10100          295.90543      912.69283      8139.886       7240.0742      4715.0805      2524.9937      1845.4415      2587.5887     -2026.1421      202.40813      51.549854      3838.9078     -3974.7604     -425.47341      67600.691      40.7365        40.7365        40.7365        1.0238578     -568.84479      1333.1338      1973.7895    
     10200   10200          297.21796      651.96555      7881.7406      7240.7577      4735.9949      2504.7629      1753.7136      2618.8249     -2010.6707      205.23968      73.286811      3841.1579     -3976.7892     -426.65582      67413.347      40.698834      40.698834      40.698834      1.0267031      1218.8641      985.37045     -248.33791    
     10300   10300          302.0435       1758.4545      9054.7144      7324.5104      4812.8871      2511.6233      1795.4749      2626.4938     -2055.2089      204.77666      79.622416      3839.7581     -3979.2937     -426.31759      67466.831      40.709594      40.709594      40.709594      1.0258892      1182.8976      2418.1369      1674.3289    
     10400   10400          300.55262      1901.9741      9265.7914      7386.662       4789.1308      2597.5312      1846.9006      2685.5238     -2048.2282      199.58344      58.747738      3834.507      -3979.5032     -424.56811      67744.834      40.765433      40.765433      40.765433      1.0216793      2354.4734      2658.4346      693.01446    
     10500   10500          298.64038      1112.7497      8490.0888      7387.8043      4758.6603      2629.144       1817.8147      2671.1575     -1997.2718      207.00741      75.365129      3834.2749     -3979.2037     -423.45105      67923.545      40.801248      40.801248      40.801248      1.0189912     -269.30795      1504.3815      2103.1755    
     10600   10600          298.91504      772.55117      8149.6452      7383.5038      4763.0368      2620.467       1797.5061      2647.5476     -1963.5335      204.99958      72.537205      3839.3448     -3977.9348     -422.97803      67999.504      40.816452      40.816452      40.816452      1.0178529      1647.2633      1215.9316     -545.5413     
     10700   10700          300.6643       2330.1699      9672.1931      7359.8181      4790.9103      2568.9078      1833.2077      2636.9214     -2060.0944      213.40914      84.512962      3837.9888     -3977.0378     -422.69661      68044.777      40.825508      40.825508      40.825508      1.0171757      1719.571       3248.828       2022.1106    
     10800   10800          294.99656      1426.8459      8712.2325      7295.7375      4700.5981      2595.1394      1779.3083      2635.6099     -1957.883       211.96213      65.341398      3836.4277     -3975.627      -422.53382      68070.993      40.83075       40.83075       40.83075       1.0167839      1648.1334      1199.911       1432.4932    
     10900   10900          291.74372      543.89801      7719.3659      7179.6497      4648.766       2530.8837      1788.2187      2627.1225     -2005.544       211.59801      43.344599      3841.9999     -3975.8561     -422.71873      68041.217      40.824796      40.824796      40.824796      1.0172289     -1560.682       1312.214       1880.162     
     11000   11000          296.82491      1087.9345      8276.4693      7199.2536      4729.7319      2469.5217      1821.6101      2547.2731     -2016.3996      197.8332       67.969471      3828.528      -3977.2926     -423.64248      67892.852      40.795102      40.795102      40.795102      1.0194518      1663.4448      1141.4729      458.88574    
     11100   11100          296.83176      843.19215      8182.6278      7348.6279      4729.841       2618.7869      1808.1185      2621.7059     -1967.0253      213.68855      79.314727      3839.7527     -3976.7681     -424.09189      67820.907      40.780686      40.780686      40.780686      1.0205333      794.13356      1371.7657      363.6772     
     11200   11200          301.0858       24.48809       7400.3532      7376.1531      4797.6267      2578.5264      1844.9007      2567.9182     -1937.4532      208.47009      44.083469      3830.1485     -3979.5413     -424.46165      67761.827      40.768841      40.768841      40.768841      1.0214231     -464.71336      307.55426      230.62338    
     11300   11300          297.70607      2525.1623      9856.084       7363.7428      4743.7727      2619.9701      1861.3767      2592.8114     -2032.7385      206.9042       127.98583      3838.7579     -3975.1274     -424.99247      67677.19       40.75186       40.75186       40.75186       1.0227004      2250.2094      2406.1979      2919.0797    
     11400   11400          298.99482      1.5707149      7337.7184      7336.1656      4764.3081      2571.8575      1843.7149      2574.3798     -1948.9005      203.76526      24.304937      3850.9005     -3976.3073     -424.30318      67787.135      40.773916      40.773916      40.773916      1.0210417     -252.72172      914.58256     -657.1487     
     11500   11500          297.38512      388.05362      7694.5987      7311.3037      4738.6585      2572.6452      1854.2416      2567.3998     -1985.1779      210.69075      44.185939      3856.7606     -3975.4557     -424.67631      67727.574      40.761971      40.761971      40.761971      1.0219396      816.4846       430.084       -82.407748    
     11600   11600          295.76256      355.03997      7632.2095      7281.7565      4712.8039      2568.9526      1818.5867      2587.3139     -1963.4181      202.11054      55.770658      3844.9382     -3976.3493     -424.95888      67682.54       40.752934      40.752934      40.752934      1.0226196      338.70626      121.43789      604.97577    
     11700   11700          299.89914     -441.15937      6872.6535      7307.7549      4778.7179      2529.0371      1793.6856      2590.7154     -1946.9544      205.72255      13.654997      3847.422      -3975.2091     -425.3089       67626.839      40.741752      40.741752      40.741752      1.0234619     -1219.0594     -376.22583      271.80707    
     11800   11800          301.19228      955.63656      8335.9959      7393.8859      4799.3233      2594.5626      1802.3439      2606.4139     -1949.5952      212.71703      53.269348      3845.0749     -3975.6612     -425.49121      67597.863      40.735932      40.735932      40.735932      1.0239006      1044.9238      1349.1117      472.87418    
     11900   11900          301.71218      2906.4796      10317.783      7448.0608      4807.6076      2640.4532      1894.2571      2621.0149     -2028.3606      205.13861      78.24836       3844.0429     -3973.8881     -424.84146      67701.247      40.756688      40.756688      40.756688      1.0223371      1940.3156      3213.2938      3565.8294    
     12000   12000          299.01284      1233.1351      8624.9275      7405.9928      4764.5953      2641.3975      1838.6736      2662.6433     -1991.2053      207.66057      56.752566      3842.7784     -3975.9056     -424.35535      67778.801      40.772245      40.772245      40.772245      1.0211673      771.60687      1847.7177      1080.0808    
     12100   12100          297.37807      2439.6137      9666.9789      7255.9101      4738.5462      2517.3639      1832.1045      2576.5778     -2021.1297      209.64546      39.851564      3853.1349     -3972.8206     -424.43471      67766.127      40.769704      40.769704      40.769704      1.0213583      1469.8333      2820.5669      3028.4408    
     12200   12200          301.1101       1295.6569      8529.1506      7249.4775      4798.0139      2451.4636      1753.5425      2631.8479     -2045.138       207.0509       36.081747      3844.4089     -3976.3302     -424.70799      67722.522      40.760957      40.760957      40.760957      1.0220159      795.9113       2590.287       500.7724     
     12300   12300          298.23059     -866.78615      6479.1445      7335.2941      4752.1306      2583.1635      1738.1681      2668.8782     -1938.6397      201.11958      44.301293      3843.3546     -3974.0186     -424.67995      67726.995      40.761855      40.761855      40.761855      1.0219484     -752.5301      -818.5154      -1029.3129    
     12400   12400          301.73282      1190.4395      8573.8895      7397.6676      4807.9366      2589.731       1800.6881      2624.9228     -1990.1097      214.80525      74.613945      3840.4233     -3975.6127     -424.53892      67749.492      40.766368      40.766368      40.766368      1.021609       300.18344      1991.7623      1279.3727    
     12500   12500          300.63114      1525.1766      8889.2363      7380.5536      4790.3819      2590.1717      1821.4823      2631.7858     -2002.4062      210.17209      72.955157      3835.5398     -3979.3572     -424.0545       67826.886      40.781885      40.781885      40.781885      1.0204433      1130.8511      2057.3391      1387.3395    
     12600   12600          296.30728      1235.45        8585.1481      7362.2185      4721.4838      2640.7347      1853.2461      2663.1199     -2019.2478      209.5724       65.800577      3842.7535     -3974.5099     -423.76312      67873.525      40.79123       40.79123       40.79123       1.0197421      959.57635      2368.6002      378.17332    
     12700   12700          302.37414      1306.1956      8628.5034      7334.0373      4818.1557      2515.8817      1801.9919      2605.723      -2033.9535      202.47338      67.893594      3843.9994     -3972.2461     -423.26952      67952.676      40.80708       40.80708       40.80708       1.0185543      1568.9909      691.40659      1658.1892    
     12800   12800          299.79559      327.72724      7576.5085      7251.6204      4777.0679      2474.5525      1743.9004      2586.7745     -1975.7261      207.37148      49.726314      3837.5783     -3975.0723     -423.13425      67974.399      40.811428      40.811428      40.811428      1.0182288     -936.13403      1689.189       230.12673    
     12900   12900          289.65424      518.21658      7720.2479      7207.3566      4615.4714      2591.8852      1789.9836      2696.7606     -1995.6194      205.32772      23.464058      3847.8618     -3975.8932     -423.82395      67863.784      40.789278      40.789278      40.789278      1.0198885      323.92809      677.51199      553.20966    
     13000   13000          298.82477      744.82058      8053.6922      7318.9713      4761.5985      2557.3728      1785.9128      2581.1387     -1975.5317      208.66681      77.595021      3854.1401     -3974.549      -425.23474      67638.634      40.74412       40.74412       40.74412       1.0232834      414.18083      227.66906      1592.6118    
     13100   13100          301.88681      2098.4236      9463.7657      7397.2769      4810.3903      2586.8866      1868.6354      2626.7485     -2046.7233      201.60755      56.094259      3856.0413     -3975.5173     -425.95089      67524.912      40.721273      40.721273      40.721273      1.0250068      2074.5664      2192.0516      2028.6528    
     13200   13200          300.66952      1571.6846      8932.1597      7383.5653      4790.9935      2592.5718      1816.997       2551.9906     -1974.6787      208.67585      114.7062       3848.7065     -3973.8257     -425.72306      67561.05       40.728536      40.728536      40.728536      1.0244585      487.25787      2995.4156      1232.3804    
     13300   13300          299.22062      1246.4811      8554.1268      7320.9464      4767.9062      2553.0403      1849.8818      2660.1278     -2064.901       197.90869      39.293747      3844.9162     -3974.1869     -423.99289      67836.743      40.78386       40.78386       40.78386       1.0202951      472.74371      2071.2421      1195.4576    
     13400   13400          291.61869     -467.6758       6733.0964      7197.369       4646.7737      2550.5953      1819.4148      2637.7355     -1982.527       205.9113       11.850533      3835.2167     -3977.0066     -422.54334      68069.458      40.830444      40.830444      40.830444      1.0168069     -1158.9121      632.48916     -876.60447    
     13500   13500          299.99255     -150.04955      7055.5599      7204.626       4780.2064      2424.4196      1813.2927      2537.5429     -2007.5852      192.12594      24.575424      3838.74       -3974.2721     -422.236        68119.006      40.840348      40.840348      40.840348      1.0160673     -314.29819      471.4496      -607.30005    
     13600   13600          297.07062      245.52557      7542.9058      7299.1774      4733.6471      2565.5303      1742.7162      2651.0278     -1948.9645      206.25108      44.11077       3844.3111     -3973.9221     -422.56176      68066.491      40.82985       40.82985       40.82985       1.0168512     -184.17478      30.373267      890.37823    
     13700   13700          298.40723      1947.3694      9259.7361      7329.531       4754.9451      2574.5858      1823.6379      2631.6737     -2052.8003      212.62918      87.02682       3845.6802     -3973.2617     -423.19869      67964.049      40.809357      40.809357      40.809357      1.0183839      1967.1299      1073.9427      2801.0356    
     13800   13800          302.54529      2464.3829      9812.4744      7375.035       4820.8828      2554.1522      1841.1061      2614.8677     -2065.9724      202.05163      88.930489      3846.2397     -3973.0711     -424.1054       67818.746      40.780253      40.780253      40.780253      1.0205658      1845.0881      3845.4364      1702.6242    
     13900   13900          300.8965       474.11825      7849.4193      7380.5545      4794.6103      2585.9442      1815.69        2622.0847     -1988.9705      206.6477       59.253976      3844.619      -3973.3807     -424.16854      67808.65       40.77823       40.77823       40.77823       1.0207177      1239.6104      1280.9924     -1098.248     
     14000   14000          298.80316      999.75311      8375.4799      7384.9788      4761.2542      2623.7246      1856.5254      2677.15       -2015.7765      209.39993      32.731946      3840.0098     -3976.3159     -423.38673      67933.864      40.803314      40.803314      40.803314      1.0188364      479.42447      2454.7474      65.087495    
     14100   14100          297.32045     -143.58569      7203.6213      7346.1971      4737.6279      2608.5692      1789.0772      2632.6394     -1941.1408      199.39059      67.193737      3836.0802     -3974.6711     -422.43974      68086.152      40.833781      40.833781      40.833781      1.0165576     -1042.2602      155.0105       456.49258    
     14200   14200          300.73239     -293.97565      7030.407       7322.6412      4791.9952      2530.646       1804.0205      2589.9818     -1969.4249      197.2695       45.359348      3839.1063     -3975.6667     -421.96819      68162.239      40.848986      40.848986      40.848986      1.0154228     -545.79818     -931.11425      594.98549    
     14300   14300          300.95993      609.47889      7951.8379      7347.5662      4795.621       2551.9452      1813.6053      2636.6336     -1996.1335      201.68277      29.756785      3841.3828     -3974.9825     -423.08327      67982.59       40.813067      40.813067      40.813067      1.0181061      1407.2029     -221.77157      643.00533    
     14400   14400          303.08372      1133.8812      8529.0121      7408.1732      4829.4624      2578.7108      1828.9778      2561.6252     -1953.2512      204.2013       73.196957      3840.2572     -3976.2965     -424.34961      67779.718      40.772429      40.772429      40.772429      1.0211535      869.50318      2094.2424      437.89813    
     14500   14500          304.16814      1624.1018      9009.3521      7406.7061      4846.7419      2559.9642      1808.9881      2602.3874     -2007.4105      201.77922      86.847091      3843.3033     -3975.9303     -425.08434      67662.564      40.748924      40.748924      40.748924      1.0229215      860.15548      2253.1831      1758.9669    
     14600   14600          298.51897      1651.3069      8928.0141      7299.8102      4756.7257      2543.0845      1860.3762      2590.8131     -2029.1148      201.08292      57.049877      3838.3885     -3975.5112     -425.42054      67609.092      40.738187      40.738187      40.738187      1.0237306      1672.0307      2114.9279      1166.962     
     14700   14700          294.54124      970.65424      8184.6468      7226.9675      4693.3429      2533.6245      1729.7099      2630.4162     -2001.7793      206.35412      108.1378       3836.2523     -3975.4665     -425.15167      67651.849      40.746773      40.746773      40.746773      1.0230835     -1111.5109      1568.2933      2455.1803    
     14800   14800          300.47145      143.70952      7418.1428      7276.0114      4787.8373      2488.174       1792.5274      2552.5599     -1967.957       200.1203       33.627854      3849.8981     -3972.6025     -424.12588      67815.472      40.779597      40.779597      40.779597      1.0206151     -464.46938     -339.71816      1235.3161    
     14900   14900          296.63885      1250.67        8573.9044      7332.2409      4726.7671      2605.4738      1844.3697      2658.2829     -2039.0778      204.47491      64.005528      3846.7748     -3973.3563     -422.51123      68074.632      40.831478      40.831478      40.831478      1.0167296      2038.532       1536.4433      177.0347     
     15000   15000          299.91563      423.56784      7780.1182      7358.1658      4778.9807      2579.1852      1803.8406      2633.0603     -2011.7839      198.25591      78.406769      3849.2798     -3971.8743     -421.07455      68306.899      40.877864      40.877864      40.877864      1.0132724      2.7027545      1104.2488      163.75197    
     15100   15100          303.28298      1495.2196      8864.5752      7373.894       4832.6374      2541.2566      1799.8588      2654.5405     -2055.6724      198.88329      67.028274      3849.944      -3973.3259     -420.74564      68360.295      40.888512      40.888512      40.888512      1.0124809      595.71279      1954.6892      1935.2567    
     15200   15200          300.4377       937.67799      8297.5562      7363.983       4787.2996      2576.6833      1782.6147      2624.0171     -1970.9879      197.81324      79.388493      3837.8984     -3974.0607     -421.31292      68268.252      40.870153      40.870153      40.870153      1.013846       678.85657      1247.5859      886.59147    
     15300   15300          297.85654      900.27652      8184.8499      7289.8851      4746.1703      2543.7148      1822.3345      2598.2035     -2032.5869      200.00743      88.591755      3840.5854     -3973.4209     -421.95818      68163.855      40.849309      40.849309      40.849309      1.0153987      820.81664      912.5178       967.49511    
     15400   15400          295.12473      955.55132      8146.3301      7198.7225      4702.6405      2496.082       1774.8026      2594.8956     -1987.3389      200.93071      50.666224      3838.0738     -3975.9481     -422.98496      67998.39       40.816229      40.816229      40.816229      1.0178696      1641.0069      442.29574      783.35127    
     15500   15500          294.00481      1779.2509      8971.0161      7211.3412      4684.7953      2526.5459      1842.7248      2600.8048     -2058.3311      205.7119       67.102343      3842.9594     -3974.4262     -424.13509      67813.998      40.779302      40.779302      40.779302      1.0206373      1107.3323      2429.2569      1801.1636    
     15600   15600          301.91599      1390.1349      8738.5688      7367.1045      4810.8552      2556.2493      1869.0765      2594.4723     -2036.8958      195.02628      58.662519      3850.6792     -3974.7716     -425.17909      67647.486      40.745897      40.745897      40.745897      1.0231495      879.35321      2538.5596      752.49188    
     15700   15700          297.81982      406.9483       7787.6057      7386.7477      4745.5852      2641.1624      1840.4787      2675.1071     -1989.7167      209.26389      29.891366      3851.7211     -3975.583      -425.84156      67542.249      40.724757      40.724757      40.724757      1.0247437     -964.93549      37.332507      2148.4479    
     15800   15800          298.04108      617.42715      7965.8923      7357.9352      4749.1109      2608.8243      1784.2667      2607.6249     -1953.6913      192.71574      117.41271      3838.1348     -3977.6392     -426.00256      67516.722      40.719626      40.719626      40.719626      1.0251311      835.01067      1818.7334     -801.46261    
     15900   15900          297.35527     -254.20574      7068.5236      7319.666       4738.1829      2581.4831      1827.0605      2632.2886     -1987.7933      200.85151      40.728807      3845.4891     -3977.1422     -424.58524      67742.101      40.764885      40.764885      40.764885      1.0217205      85.961791     -36.203771     -812.37524    
     16000   16000          297.65614      1680.7128      8908.2144      7242.9941      4742.977       2500.0171      1834.1222      2569.3679     -2049.9798      197.85587      87.08046       3836.4569     -3974.8864     -423.37115      67936.364      40.803815      40.803815      40.803815      1.0187989      1352.7292      2324.2245      1365.1847    
     16100   16100          299.1571       578.82431      7797.815       7222.9628      4766.894       2456.0688      1794.4924      2557.518      -1992.2615      194.8562       37.14746       3839.0903     -3974.7741     -422.36705      68097.87       40.836124      40.836124      40.836124      1.0163826      624.97755      299.85622      811.63917    
     16200   16200          301.12147      1694.5953      9036.8311      7353.0092      4798.195       2554.8142      1788.1388      2624.5294     -2014.6061      192.53504      104.64749      3835.5544     -3975.9849     -422.15242      68132.493      40.843043      40.843043      40.843043      1.0158661      1955.2616      1393.6733      1734.851     
     16300   16300          298.22052      335.73586      7743.0335      7408.8431      4751.97        2656.8731      1773.9499      2611.3778     -1919.7421      214.12805      102.13914      3848.1143     -3973.094      -421.40845      68252.776      40.867064      40.867064      40.867064      1.0140759      411.71045      185.16355      410.33358    
     16400   16400          301.3001       515.79944      7927.8984      7413.1071      4801.0414      2612.0656      1792.1156      2586.4143     -1936.4807      212.44482      82.51757       3845.8394     -3970.7854     -420.29001      68434.405      40.903283      40.903283      40.903283      1.0113844     -320.83595      472.05445      1396.1798    
     16500   16500          299.93993      1397.8952      8763.4633      7365.1182      4779.3678      2585.7504      1838.5012      2593.9786     -2019.4897      202.46025      93.451509      3845.8829     -3969.0343     -419.33366      68590.479      40.934354      40.934354      40.934354      1.0090831      892.12728      1729.292       1572.2663    
     16600   16600          293.57496      1924.154       9159.1138      7230.903       4677.9458      2552.9572      1848.0569      2564.4007     -2041.8537      207.77589      94.571524      3848.4931     -3968.487      -418.58607      68712.981      40.958709      40.958709      40.958709      1.0072841      1613.6416      2175.0886      1983.7317    
     16700   16700          294.9952      -56.313345      7191.8603      7248.2821      4700.5765      2547.7056      1807.9403      2581.4734     -1980.6807      201.94611      52.532961      3853.7675     -3969.274      -418.66244      68700.447      40.956219      40.956219      40.956219      1.0074679     -170.68535     -531.45411      533.19943    
     16800   16800          296.86328     -184.38736      7134.2685      7318.364       4730.3433      2588.0207      1787.955       2609.5054     -1973.606       200.2961       90.269792      3844.6004     -3971          -420.13362      68459.879      40.908357      40.908357      40.908357      1.0110081     -794.31079      290.01453     -48.865819    
     16900   16900          303.68258      463.88992      7824.1065      7362.8349      4839.0049      2523.8301      1775.0205      2574.9353     -1969.8046      203.53483      70.439195      3843          -3973.2952     -421.84962      68181.398      40.852813      40.852813      40.852813      1.0151375      26.050378      839.99724      525.62215    
     17000   17000          300.9662       1906.6118      9276.3511      7386.4517      4795.721       2590.7308      1863.0104      2611.6994     -2039.5971      208.24565      88.702193      3836.1114     -3977.4411     -423.17796      67967.379      40.810023      40.810023      40.810023      1.018334       995.6554       1687.1303      3037.0496    
     17100   17100          298.69495      1819.475       9155.1027      7357.6124      4759.5298      2598.0826      1831.9575      2616.0777     -2016.2086      202.5588       89.400292      3851.6926     -3977.3957     -424.59902      67739.904      40.764444      40.764444      40.764444      1.0217536      1760.7392      1998.2679      1699.4179    
     17200   17200          296.05434      1374.2276      8606.9013      7250.7418      4717.4532      2533.2886      1857.9939      2593.229      -2037.9867      205.53959      50.614115      3841.5601     -3977.6615     -425.05714      67666.894      40.749794      40.749794      40.749794      1.0228561      1968.5536      1658.4563      495.67274    
     17300   17300          297.69735      457.90288      7659.2474      7207.9071      4743.6336      2464.2734      1786.1075      2551.1592     -1993.2253      206.38405      58.53753       3833.914      -3978.6037     -425.56768      67585.716      40.733492      40.733492      40.733492      1.0240846      1087.0229      479.10309     -192.41738    
     17400   17400          297.45998     -677.49718      6632.7619      7300.3243      4739.8513      2560.473       1813.4313      2621.5102     -1967.7081      209.41812      26.108371      3837.2735     -3979.5604     -425.71121      67562.929      40.728913      40.728913      40.728913      1.02443       -767.80569      732.67684     -1997.3627    
     17500   17500          299.50594      943.598        8326.9496      7396.1611      4772.4525      2623.7087      1848.5832      2664.0437     -2004.6441      198.35344      60.303369      3837.4268     -3980.3576     -425.24134      67637.583      40.743909      40.743909      40.743909      1.0232993      376.90091      2164.6057      289.28734    
     17600   17600          304.0755       1728.2761      9099.2921      7390.0183      4845.2658      2544.7524      1818.4646      2603.1773     -2002.0338      209.74924      61.303565      3831.6456     -3977.5541     -424.13188      67814.512      40.779405      40.779405      40.779405      1.0206295      708.46392      1712.209       2764.1553    
     17700   17700          300.21322      955.55526      8287.8259      7340.6956      4783.7226      2556.973       1797.5418      2569.7808     -1953.4825      206.76156      78.340552      3833.5787     -3975.548      -423.19987      67963.859      40.809319      40.809319      40.809319      1.0183867      18.997894      369.92597      2477.7419    
     17800   17800          296.71022      975.89061      8234.9355      7265.5832      4727.9043      2537.6789      1794.1552      2641.2223     -2008.4121      196.31869      55.506287      3834.1385     -3975.25       -422.29794      68109.015      40.838351      40.838351      40.838351      1.0162163      1411.7678      1180.192       335.712      
     17900   17900          297.91405      1561.4669      8786.7787      7236.2291      4747.0867      2489.1425      1821.6819      2566.5117     -2043.1587      202.80606      79.369301      3835.8931     -3973.9609     -422.42205      68089.003      40.834351      40.834351      40.834351      1.016515       2441.6604      1850.8004      391.93989    
     18000   18000          297.48258     -32.651136      7279.4625      7311.8736      4740.2115      2571.6621      1803.4653      2566.3079     -1939.9252      207.92998      75.209599      3831.1032     -3972.4288     -422.57524      68064.321      40.829416      40.829416      40.829416      1.0168836     -912.72134      875.51877     -60.750838    
     18100   18100          301.25042      1988.3678      9389.4415      7412.9553      4800.2498      2612.7055      1835.5417      2642.6497     -2036.2448      211.71036      91.428767      3838.9941     -3971.3744     -421.9902       68158.683      40.848276      40.848276      40.848276      1.0154758      1090.1163      2694.7988      2180.1882    
     18200   18200          299.40727      832.60056      8257.2904      7429.4641      4770.8802      2658.5839      1834.3713      2685.5935     -1985.7596      212.81533      42.306659      3841.609      -3972.3523     -421.88774      68175.237      40.851583      40.851583      40.851583      1.0152292     -438.15346      2837.9968      97.958316    
     18300   18300          298.26235      645.30118      8025.4412      7386.0783      4752.6367      2633.4416      1820.7714      2594.1609     -1945.0085      217.01553      79.840192      3840.6374     -3973.9754     -423.36453      67937.427      40.804027      40.804027      40.804027      1.018783       753.83601     -241.76475      1423.8323    
     18400   18400          299.43188      1488.7541      8732.546       7260.6134      4771.2724      2489.341       1760.1904      2684.8055     -2078.3747      195.68537      56.858464      3847.0951     -3976.9192     -424.26233      67793.66       40.775224      40.775224      40.775224      1.0209434     -35.843498      2534.5646      1967.5411    
     18500   18500          296.20456      2253.5239      9444.875       7224.8464      4719.847       2504.9994      1861.3448      2589.1994     -2055.917       201.91246      31.996438      3852.9044     -3976.4411     -425.79743      67549.248      40.726164      40.726164      40.726164      1.0246375      3447.4398      722.87496      2590.2569    
     18600   18600          298.32359      1800.5431      9043.1071      7272.8523      4753.6125      2519.2398      1864.936       2555.8947     -2036.0273      204.83176      60.759208      3841.9468     -3973.1014     -426.64552      67414.973      40.699161      40.699161      40.699161      1.0266783      2848.1317      1999.9141      553.58358    
     18700   18700          299.93496      1036.6739      8330.7206      7310.5072      4779.2887      2531.2186      1744.184       2616.5779     -1984.2958      207.9856       75.390308      3844.892      -3973.5154     -426.23647      67479.671      40.712176      40.712176      40.712176      1.025694      -369.84396      2189.9942      1289.8713    
     18800   18800          297.85527      733.20153      8057.435       7333.7185      4746.1501      2587.5684      1826.3828      2599.3637     -1970.3918      203.14577      63.349181      3839.3041     -3973.5854     -424.96614      67681.384      40.752702      40.752702      40.752702      1.0226371     -336.75851      2863.3027     -326.93959    
     18900   18900          300.3795       2217.5763      9548.6738      7354.4999      4786.3722      2568.1277      1828.5494      2590.6535     -2023.5617      209.58807      90.617893      3845.025      -3972.7444     -423.94252      67844.803      40.785475      40.785475      40.785475      1.0201738      1699.5963      2783.8222      2169.3103    
     19000   19000          299.67647      1159.6439      8510.3162      7359.7097      4775.1698      2584.5399      1815.3576      2657.7138     -1981.457       211.88528      11.406929      3845.8819     -3976.2487     -422.76332      68034.04       40.823361      40.823361      40.823361      1.0173362      448.96219      1989.5117      1040.4579    
     19100   19100          301.35667      1117.8157      8500.9392      7391.7755      4801.9428      2589.8327      1800.5247      2642.4004     -1972.8832      207.88303      34.371301      3851.4258     -3973.8893     -422.74062      68037.694      40.824091      40.824091      40.824091      1.0172816      894.42605      284.42698      2174.594     
     19200   19200          304.15904     -176.49094      7234.4821      7409.538       4846.5969      2562.9411      1809.6136      2568.8734     -1927.0281      204.89291      37.284335      3842.9739     -3973.6689     -422.90717      68010.898      40.818731      40.818731      40.818731      1.0176824      713.33966     -1267.1085      24.296039    
     19300   19300          300.07951     -583.12249      6749.1552      7327.3849      4781.592       2545.7929      1779.5662      2565.0052     -1911.7732      201.34954      43.592076      3842.3709     -3974.3178     -423.018        67993.079      40.815166      40.815166      40.815166      1.0179491     -889.29973     -862.21143      2.143691     
     19400   19400          297.1753       1473.0069      8716.6752      7258.0439      4735.3151      2522.7288      1839.6514      2538.8811     -2014.836       205.09198      79.364565      3846.2172     -3971.6414     -423.60268      67899.231      40.796379      40.796379      40.796379      1.0193561      130.60247      3798.805       489.61325    
     19500   19500          297.71548      1294.2536      8563.5375      7284.0377      4743.9227      2540.1151      1874.5139      2553.8248     -2033.2586      208.25417      74.72089       3837.0365     -3974.9766     -424.30545      67786.771      40.773843      40.773843      40.773843      1.0210472      1513.1758      1279.9572      1089.6278    
     19600   19600          304.82428      1765.3561      9167.7198      7424.6243      4857.1972      2567.4271      1827.5095      2610.9994     -2017.4802      204.88752      72.237151      3845.0428     -3975.7691     -424.82548      67703.793      40.757199      40.757199      40.757199      1.0222986      1489.4503      2260.4654      1546.1525    
     19700   19700          301.45173      1004.6362      8425.6671      7433.4343      4803.4576      2629.9768      1817.8694      2606.3607     -1949.4986      214.12308      79.346133      3839.7505     -3977.9744     -424.7122       67721.851      40.760823      40.760823      40.760823      1.022026       337.07848      157.61245      2519.2177    
     19800   19800          303.68248      622.62398      7985.5425      7369.2775      4839.0033      2530.2743      1849.521       2565.438      -2004.9751      206.84451      45.946404      3844.3635     -3976.8642     -423.79689      67868.116      40.790146      40.790146      40.790146      1.0198234      1427.3673      815.49468     -374.99006    
     19900   19900          297.97946      448.26793      7736.4453      7292.0545      4748.129       2543.9255      1735.2416      2590.7705     -1928.3054      207.46325      72.009761      3840.3387     -3973.5931     -423.12827      67975.36       40.811621      40.811621      40.811621      1.0182144     -432.13728     -192.95404      1969.8951    
     20000   20000          297.76161      1053.5076      8351.5955      7304.1716      4744.6577      2559.5139      1821.6235      2598.148      -2006.485       204.62493      69.323888      3843.5255     -3971.2469     -421.90497      68172.452      40.851026      40.851026      40.851026      1.0152707     -333.22082      2304.433       1189.3107    
     20100   20100          302.36023      982.45391      8366           7385.7494      4817.934       2567.8154      1830.2865      2631.741      -2028.7354      202.85281      60.457217      3843.4233     -3972.2101     -420.41145      68414.636      40.899344      40.899344      40.899344      1.0116767      1887.3795      463.99051      595.99171    
     20200   20200          302.79446      420.2594       7916.9327      7497.2367      4824.8531      2672.3836      1833.4644      2650.9697     -1950.3569      208.41168      48.810585      3851.9456     -3970.8614     -420.03168      68476.493      40.911666      40.911666      40.911666      1.0107628      521.18242      198.99905      540.59674    
     20300   20300          305.65195      749.62363      8219.0791      7472.0423      4870.3856      2601.6568      1801.2477      2639.8413     -1975.9059      201.56599      59.258399      3849.2224     -3973.5731     -420.92117      68331.789      40.882828      40.882828      40.882828      1.0129033      231.97261      1221.0925      795.80574    
     20400   20400          303.47522      728.68773      8110.551       7386.1506      4835.7007      2550.4498      1847.6281      2603.9266     -2014.3969      203.94543      33.26856       3850.6426     -3974.5645     -421.95121      68164.982      40.849534      40.849534      40.849534      1.015382       907.58613      984.75273      293.72433    
     20500   20500          298.90998     -133.53747      7171.5985      7303.8503      4762.9562      2540.894       1786.7468      2602.3884     -1944.5485      200.54381      23.031736      3845.0004     -3972.2686     -423.54646      67908.244      40.798184      40.798184      40.798184      1.0192208      151.55739     -1668.714       1116.5442    
     20600   20600          294.7285       1537.098       8767.5946      7251.8649      4696.3269      2555.5381      1826.9816      2632.3132     -2031.1674      201.10748      51.409913      3848.7239     -3973.8307     -425.38217      67615.191      40.739412      40.739412      40.739412      1.0236382      541.48987      2207.8828      1861.9214    
     20700   20700          297.03834      2584.3349      9832.3952      7289.2908      4733.1327      2556.1581      1890.5348      2643.8875     -2085.731       197.52088      44.799855      3843.8528     -3978.7068     -426.26929      67474.474      40.711131      40.711131      40.711131      1.025773       2100.7605      2221.0819      3431.1623    
     20800   20800          300.34076      267.39411      7691.8946      7429.1378      4785.7549      2643.3829      1793.9217      2660.2822     -1910.1784      202.65485      33.615927      3842.3934     -3979.3068     -426.87157      67379.274      40.691976      40.691976      40.691976      1.0272223     -199.13007     -246.82446      1248.1369    
     20900   20900          302.29334      1362.8834      8779.0456      7437.9445      4816.8681      2621.0764      1812.7389      2653.2095     -2006.7955      200.86737      101.5088       3840.6254     -3981.078      -426.28163      67472.522      40.710738      40.710738      40.710738      1.0258027      1024.4384      1152.7688      1911.4429    
     21000   21000          300.3846       3217.7695      10560.353      7379.6915      4786.4535      2593.238       1853.4511      2612.0739     -2080.6096      211.37922      136.2935       3839.0309     -3978.381      -424.36244      67777.669      40.772018      40.772018      40.772018      1.0211843      2233.0706      4082.0641      3338.1738    
     21100   21100          300.84393      994.39097      8318.5051      7331.0414      4793.7727      2537.2687      1840.7949      2542.7524     -1989.3189      210.14603      55.069266      3851.7375     -3973.9124     -422.41123      68090.748      40.8347        40.8347        40.8347        1.016489       1544.6391      600.06797      838.46585    
     21200   21200          296.08753     -78.19438       7242.072       7319.8183      4717.9821      2601.8361      1854.5979      2628.6439     -1998.3027      202.52185      43.319176      3846.0157     -3974.9596     -421.88648      68175.44       40.851623      40.851623      40.851623      1.0152262     -259.81041      1288.2405     -1263.0132    
[...]
    495200   495200         302.86578      382.51177      7753.1726      7374.0353      4825.9897      2548.0456      1821.3345      2583.8704     -1972.1884      205.85821      34.762781      3845.8656     -3971.4575     -423.20196      67963.524      40.809251      40.809251      40.809251      1.0183918     -159.47332      1095.4412      211.56739    
    495300   495300         299.29603      1004.6106      8343.2136      7346.3406      4769.1077      2577.2329      1833.1606      2606.0292     -2020.4029      200.0106       85.084872      3844.1195     -3970.7689     -422.72445      68040.296      40.824612      40.824612      40.824612      1.0172427      999.64         1300.1516      714.04015    
    495400   495400         296.7788       1751.4011      9084.945       7345.4582      4728.9971      2616.4611      1794.6492      2623.4824     -1999.0478      204.98283      113.92708      3847.3403     -3968.8729     -422.34167      68101.962      40.836942      40.836942      40.836942      1.0163216      1991.6633      1648.362       1614.1781    
    495500   495500         300.57001      1783.2449      9203.8251      7424.7441      4789.4079      2635.3362      1855.6285      2643.6516     -2039.3212      205.50431      83.090148      3851.9556     -3965.1728     -420.45033      68408.31       40.898083      40.898083      40.898083      1.0117702      1860.5387      1766.7615      1722.4345    
    495600   495600         309.87056      1911.0767      9435.3781      7524.0086      4937.6068      2586.4018      1861.8987      2607.0022     -2055.2615      203.05132      82.988506      3853.4148     -3966.6922     -419.40433      68578.921      40.932055      40.932055      40.932055      1.0092532      903.49232      2456.7712      2372.9667    
    495700   495700         304.76464      689.90891      8184.5825      7495.5914      4856.2469      2639.3446      1795.1628      2647.4891     -1990.2706      206.11649      95.363456      3852.2855     -3966.8021     -420.02739      68477.193      40.911806      40.911806      40.911806      1.0107525     -431.31672      404.09103      2096.9524    
    495800   495800         299.04283     -162.86454      7164.1879      7326.2622      4765.0731      2561.1891      1793.3995      2563.5971     -1972.8177      207.24942      85.149832      3854.135      -3969.5241     -421.51392      68235.698      40.863655      40.863655      40.863655      1.0143297     -727.86299     -462.72233      701.99172    
    495900   495900         299.12264      494.80791      7799.8325      7309.4123      4766.3449      2543.0674      1810.4466      2551.9318     -1977.7802      207.59957      78.093748      3845.9495     -3973.1737     -423.22155      67960.379      40.808622      40.808622      40.808622      1.0184389      571.41715      318.46273      594.54385    
    496000   496000         299.66497      811.44825      8152.3408      7349.8233      4774.9865      2574.8368      1750.4377      2623.3877     -1954.1406      206.61516      79.879477      3841.9007     -3973.2434     -424.13662      67813.755      40.779253      40.779253      40.779253      1.0206409      1304.9851      1102.0468      27.312869    
    496100   496100         303.86356      1343.474       8724.9618      7395.8688      4841.8887      2553.98        1811.9294      2601.1904     -1990.2073      206.44496      54.324556      3842.7345     -3972.4364     -424.00732      67834.433      40.783397      40.783397      40.783397      1.0203298      1624.4918      1962.4055      443.52483    
    496200   496200         299.90446      2046.1295      9458.0961      7430.9891      4778.8027      2652.1864      1840.0829      2626.6197     -2022.1773      215.09746      109.98352      3854.3349     -3971.7547     -423.40491      67930.947      40.80273       40.80273       40.80273       1.0188801      1047.5447      2635.8225      2455.0212    
    496300   496300         297.04204      1150.5236      8559.156       7416.0889      4733.1918      2682.8971      1841.3235      2656.6949     -1978.8938      210.02786      78.016056      3848.31       -3972.5814     -422.2049       68124.023      40.841351      40.841351      40.841351      1.0159925      666.88805      1753.3623      1031.3205    
    496400   496400         300.26825     -386.25012      6948.1501      7332.4602      4784.5995      2547.8607      1839.4369      2565.7749     -1987.3456      203.81139      62.476246      3837.4934     -3973.7866     -421.58614      68224.009      40.861322      40.861322      40.861322      1.0145035     -510.8279      -1353.3334      705.41088    
    496500   496500         295.48696     -270.7698       6991.808       7260.7463      4708.4124      2552.3339      1793.9587      2607.7152     -1976.5695      206.80644      66.608474      3829.9754     -3976.1608     -422.32516      68104.625      40.837474      40.837474      40.837474      1.0162818      137.27553     -377.10851     -572.47641    
    496600   496600         299.43789      1363.3236      8649.5314      7297.9768      4771.3682      2526.6086      1800.2095      2575.3037     -2004.8485      197.47241      99.541828      3835.3957     -3976.466      -423.12123      67976.491      40.811847      40.811847      40.811847      1.0181975      810.28844      2041.0632      1238.6191    
    496700   496700         301.0068       652.0982       8078.4547      7431.292       4796.3679      2634.9241      1831.2899      2658.1509     -1999.0847      207.14107      73.405242      3836.5171     -3972.4953     -422.66758      68049.451      40.826443      40.826443      40.826443      1.0171058     -405.59201      2908.0264     -546.13982    
    496800   496800         300.51342      895.46603      8338.132       7449.3601      4788.5062      2660.8539      1836.997       2634.2715     -1995.4913      208.76066      99.053557      3847.3597     -3970.0971     -422.62798      68055.827      40.827718      40.827718      40.827718      1.0170105      1122.3725      122.78671      1441.2389    
    496900   496900         302.40958      908.40163      8318.1623      7416.7027      4818.7204      2597.9824      1836.986       2633.0111     -2017.5837      200.54395      73.856115      3841.3443     -3970.1755     -422.69888      68044.411      40.825435      40.825435      40.825435      1.0171812      1908.3464      615.52484      201.33368    
    497000   497000         295.83881      1854.7076      9199.6874      7360.1587      4714.0189      2646.1398      1845.7404      2637.2578     -2013.917       210.86474      90.907701      3846.8839     -3971.5977     -422.92986      68007.249      40.818001      40.818001      40.818001      1.017737       892.67183      737.10705      3934.344     
    497100   497100         294.97307      438.64401      7701.7933      7266.3819      4700.2239      2566.158       1847.9811      2597.3454     -1999.7414      192.4554       59.053949      3842.7786     -3973.715      -422.58285      68063.094      40.829171      40.829171      40.829171      1.0169019      1315.6698      96.920892     -96.658626    
    497200   497200         291.96946     -204.04209      6955.6704      7158.413       4652.3631      2506.0499      1826.6783      2570.662      -2026.7541      199.48938      56.760933      3852.5346     -3973.3211     -422.15727      68131.709      40.842887      40.842887      40.842887      1.0158778     -292.65864     -519.0673       199.59966    
    497300   497300         292.8464       1120.0595      8361.3929      7249.2431      4666.3367      2582.9064      1840.9135      2619.8022     -2027.0965      204.98605      72.956533      3846.3671     -3975.0225     -422.45187      68084.197      40.83339       40.83339       40.83339       1.0165868     -267.59439      2400.7407      1227.0322    
    497400   497400         300.94606      1264.7516      8636.1314      7382.7714      4795.4         2587.3713      1860.0727      2593.2734     -2016.366       203.15467      71.489854      3847.8794     -3972.1327     -423.28108      67950.821      40.806709      40.806709      40.806709      1.0185821      1054.9829      1819.6931      919.57882    
    497500   497500         301.90731      1404.1465      8814.1605      7423.6333      4810.7169      2612.9163      1818.4052      2630.9061     -1993.773       204.40349      86.529333      3840.7749     -3974.3297     -423.57701      67903.346      40.797203      40.797203      40.797203      1.0192943      792.86673      2265.7557      1153.8172    
    497600   497600         301.05463      119.58248      7555.8704      7437.4569      4797.13        2640.3269      1833.2188      2618.3927     -1953.6232      213.62378      52.619384      3846.1395     -3970.0441     -423.60948      67898.141      40.796161      40.796161      40.796161      1.0193724     -378.70813      453.06322      284.39233    
    497700   497700         297.92131      1374.7753      8742.3478      7383.828       4747.2023      2636.6257      1787.6892      2632.7795     -1969.1193      210.67612      97.574806      3847.1088     -3970.0835     -424.48781      67757.65       40.768004      40.768004      40.768004      1.021486       1523.2837      1168.2857      1432.7565    
    497800   497800         293.08841      1829.6292      9099.0688      7292.7301      4670.1929      2622.5373      1860.7964      2635.9696     -2034.4962      199.84897      91.126326      3842.7286     -3973.4364     -424.87712      67695.565      40.755548      40.755548      40.755548      1.0224229      2270.1616      1880.1594      1338.5666    
    497900   497900         300.13134      1648.372       8898.9466      7272.3315      4782.4179      2489.9136      1834.3069      2569.6463     -2046.8402      203.24552      62.486544      3841.1678     -3974.0992     -425.07922      67663.379      40.749088      40.749088      40.749088      1.0229092     -849.58056      3289.1324      2505.5641    
    498000   498000         304.05685      1844.0247      9216.9636      7393.295       4844.9686      2548.3264      1775.1212      2596.474      -1991.0606      206.87606      77.140407      3854.0192     -3970.2439     -424.15077      67811.492      40.778799      40.778799      40.778799      1.020675       209.74643      2608.9422      2713.3855    
    498100   498100         303.81631      1004.2061      8474.0387      7477.5327      4841.1358      2636.3969      1893.8504      2645.9113     -2029.1071      199.77334      46.174432      3848.4079     -3968.6133     -422.70989      68042.639      40.82508       40.82508       40.82508       1.0172077     -505.56153      2179.1641      1339.0159    
    498200   498200         305.04118      1172.6326      8597.3462      7430.8246      4860.6533      2570.1713      1787.5925      2565.2252     -1979.5709      212.94598      104.68745      3847.9437     -3968.6526     -421.66607      68211.077      40.85874       40.85874       40.85874       1.0146958     -288.98558      1665.4756      2141.4078    
    498300   498300         301.23833     -164.60729      7183.048       7347.7057      4800.0571      2547.6486      1767.595       2587.1885     -1964.1264      205.4665       72.308197      3847.7787     -3968.5619     -419.34018      68589.413      40.934142      40.934142      40.934142      1.0090988      473.19273      927.06386     -1894.0784    
    498400   498400         294.07468     -12.237385      7293.2723      7305.5381      4685.9086      2619.6295      1883.4399      2580.5072     -1999.0706      210.19531      56.6183        3853.771      -3965.8316     -418.49501      68727.932      40.96168       40.96168       40.96168       1.007065       118.57731     -1317.9135      1162.6241    
    498500   498500         300.24638      1093.7421      8455.9206      7363.1702      4784.251       2578.9192      1846.4953      2556.8083     -2033.5458      204.0762       122.24194      3850.6857     -3967.8424     -419.84927      68506.245      40.917591      40.917591      40.917591      1.0103239      974.19826      1004.1345      1302.8934    
    498600   498600         304.71612      967.36374      8504.8897      7540.8976      4855.4738      2685.4238      1862.9791      2614.623      -1948.5522      208.7331       72.991654      3846.7714     -3972.1222     -420.93573      68329.426      40.882357      40.882357      40.882357      1.0129383      1012.7014      1546.2999      343.08994    
    498700   498700         303.71283      1008.5599      8528.5802      7524.4068      4839.4869      2684.9198      1915.737       2594.4964     -2012.1819      199.28617      117.57255      3842.9808     -3972.9712     -421.30091      68270.198      40.870541      40.870541      40.870541      1.0138171      773.93171      1078.7489      1172.9991    
    498800   498800         299.69233      1654.8824      9079.2778      7433.0675      4775.4225      2657.645       1784.2674      2611.934      -1937.6         216.02885      108.16429      3847.4275     -3972.577      -421.67831      68209.097      40.858345      40.858345      40.858345      1.0147252      855.94571      943.7386       3164.9628    
    498900   498900         300.27377      189.11438      7540.3351      7351.9118      4784.6875      2567.2243      1813.6878      2579.454      -1972.4165      207.63259      73.335097      3839.0852     -3973.5538     -421.00711      68317.841      40.880046      40.880046      40.880046      1.0131101     -803.36018      125.28009      1245.4232    
    499000   499000         294.21798      822.96009      8152.0601      7332.1632      4688.192       2643.9712      1867.579       2559.1471     -1952.976       208.17597      97.896334      3835.4821     -3971.3332     -421.03579      68313.187      40.879118      40.879118      40.879118      1.0131791      784.085        1492.4058      192.38944    
    499100   499100         300.49224     -776.40617      6596.6429      7371.3725      4788.1686      2583.2039      1791.6308      2554.5523     -1902.3185      200.3557       80.909831      3831.8035     -3973.7298     -420.37637      68420.345      40.900482      40.900482      40.900482      1.0115923     -1268.5674      551.48419     -1612.1353    
    499200   499200         306.17527      431.2362       7937.3183      7506.511       4878.7244      2627.7865      1828.1626      2606.2103     -1955.6923      210.95578      66.263515      3842.0682     -3970.1815     -419.88614      68500.228      40.916393      40.916393      40.916393      1.0104126      349.2152       500.71584      443.77757    
    499300   499300         298.00197      1651.8183      9122.5584      7471.643       4748.4876      2723.1555      1909.141       2643.0649     -2005.2121      210.37872      100.51204      3835.3297     -3970.0589     -419.69802      68530.932      40.922505      40.922505      40.922505      1.0099599      1475.2005      1759.2283      1721.0261    
    499400   499400         298.55538      1591.6824      8976.9992      7387.9666      4757.3059      2630.6607      1763.6629      2614.9409     -1987.1764      201.35694      159.46552      3844.7834     -3966.3726     -420.16808      68454.264      40.907239      40.907239      40.907239      1.011091       2058.215       1053.6686      1663.1636    
    499500   499500         296.8874       680.97415      8041.3205      7362.3914      4730.7276      2631.6637      1800.2244      2597.6957     -1944.5952      212.5401       92.202512      3840.0477     -3966.4514     -420.73207      68362.501      40.888952      40.888952      40.888952      1.0124482     -680.66027      914.13571      1809.447     
    499600   499600         298.1606       750.28381      8116.9518      7369.9087      4751.0153      2618.8933      1820.1876      2579.3658     -1965.9287      213.42274      106.02268      3836.5397     -3970.7165     -421.28826      68272.248      40.87095       40.87095       40.87095       1.0137866      549.04372     -514.89278      2216.7005    
    499700   499700         302.93624      902.81588      8337.1537      7439.8524      4827.1123      2612.7401      1787.0812      2585.8284     -1959.0381      211.84216      119.04359      3838.7319     -3970.7491     -422.04655      68149.583      40.846458      40.846458      40.846458      1.0156114     -342.59398      2077.6038      973.43782    
    499800   499800         306.0349       1293.5382      8807.7986      7523.0204      4876.4877      2646.5327      1873.5132      2602.824      -2006.9711      209.18565      101.78736      3839.0686     -3972.8749     -422.32867      68104.058      40.837361      40.837361      40.837361      1.0162903      1149.6591      894.15859      1836.797     
    499900   499900         304.46349      2693.8559      10136.782      7462.7339      4851.4482      2611.2857      1805.9024      2573.9392     -2030.2803      212.08308      173.04907      3846.8744     -3970.2822     -422.57572      68064.243      40.829401      40.829401      40.829401      1.0168848      2459.8071      3767.169       1854.5916    
    500000   500000         295.87641      701.68187      8030.6485      7332.6715      4714.618       2618.0535      1807.7257      2582.106      -1914.3972      214.00465      51.358901      3847.4234     -3970.168      -421.69516      68206.37       40.8578        40.8578        40.8578        1.0147658      349.68393      2274.9327     -519.57102    
Loop time of 1204.67 on 1 procs for 500000 steps with 6420 atoms

Performance: 35.861 ns/day, 0.669 hours/ns, 415.052 timesteps/s, 2.665 Matom-step/s
99.8% CPU use with 1 MPI tasks x 1 OpenMP threads

MPI task timing breakdown:
Section |  min time  |  avg time  |  max time  |%varavg| %total
---------------------------------------------------------------
Pair    | 111.69     | 111.69     | 111.69     |   0.0 |  9.27
Bond    | 148.78     | 148.78     | 148.78     |   0.0 | 12.35
Kspace  | 514.46     | 514.46     | 514.46     |   0.0 | 42.71
Neigh   | 61.757     | 61.757     | 61.757     |   0.0 |  5.13
Comm    | 14.274     | 14.274     | 14.274     |   0.0 |  1.18
Output  | 6.4751     | 6.4751     | 6.4751     |   0.0 |  0.54
Modify  | 310.19     | 310.19     | 310.19     |   0.0 | 25.75
Other   |            | 37.03      |            |       |  3.07

Nlocal:           6420 ave        6420 max        6420 min
Histogram: 1 0 0 0 0 0 0 0 0 0
Nghost:          18149 ave       18149 max       18149 min
Histogram: 1 0 0 0 0 0 0 0 0 0
Neighs:              0 ave           0 max           0 min
Histogram: 1 0 0 0 0 0 0 0 0 0
FullNghs:  3.84695e+06 ave 3.84695e+06 max 3.84695e+06 min
Histogram: 1 0 0 0 0 0 0 0 0 0

Total # of neighbors = 3846948
Ave neighs/atom = 599.21308
Ave special neighs/atom = 5.8598131
Neighbor list builds = 11626
Dangerous builds = 0

# --- Cleanup ---
unfix npt_fix
unfix shake_fix
undump dump_npt

# --- Write Output ---
write_dump all custom /home/alexzhao/PolyJarvis/data/PS4/lammps/mechanical/bm_series/bm_P1000/bm_P1000_last.dump id type mol x y z xu yu zu vx vy vz modify sort id
write_data /home/alexzhao/PolyJarvis/data/PS4/lammps/mechanical/bm_series/bm_P1000/bm_P1000_out.data
System init for write_data ...
PPPM Kokkos initialization ...
  using 12-bit tables for long-range coulomb
  G vector (1/distance) = 0.30339267
  grid = 30 30 30
  stencil order = 5
  estimated absolute RMS force accuracy = 0.00026384033
  estimated relative force accuracy = 7.9454732e-07
  using double precision cuFFT
  3d grid and FFT values/proc = 50653 27000
Generated 6 of 6 mixed pair_coeff terms from sixthpower/sixthpower mixing rule

print "STAGE COMPLETE: NPT T=300.0->300.0K P=1000.0->1000.0atm steps=500000"
STAGE COMPLETE: NPT T=300.0->300.0K P=1000.0->1000.0atm steps=500000
quit
