units real
atom_style full
boundary p p p

# --- Force Field Styles ---
pair_style lj/cut 14.0
dielectric 1.000000
bond_style harmonic
angle_style harmonic
dihedral_style multi/harmonic
improper_style none
special_bonds lj 0 0 0
pair_modify mix arithmetic tail yes
neighbor 2.0 bin
neigh_modify delay 0 every 1 check yes
neigh_modify one 4000
# package gpu disabled — CPU MPI=8 override (R-02)

read_data /home/arz2/PolyJarvis/data/cis-PBD1/lammps/equil/npt_pppm/npt_pppm_out.data
Reading data file ...
  orthogonal box = (3.5533476 3.5533476 3.5533476) to (64.62503 64.62503 64.62503)
  2 by 2 by 2 MPI processor grid
  reading atoms ...
  8040 atoms
  reading velocities ...
  8040 velocities
  scanning bonds ...
  2 = max bonds/atom
  scanning angles ...
  1 = max angles/atom
  scanning dihedrals ...
  2 = max dihedrals/atom
  orthogonal box = (3.5533476 3.5533476 3.5533476) to (64.62503 64.62503 64.62503)
  2 by 2 by 2 MPI processor grid
  reading bonds ...
  8020 bonds
  reading angles ...
  8000 angles
  reading dihedrals ...
  7980 dihedrals
Finding 1-2 1-3 1-4 neighbors ...
  special bond factors lj:    0        0        0       
  special bond factors coul:  0        0        0       
     2 = max # of 1-2 neighbors
     2 = max # of 1-3 neighbors
     4 = max # of 1-4 neighbors
     6 = max # of special neighbors
  special bonds CPU = 0.001 seconds
  read_data CPU = 0.132 seconds
include /home/arz2/PolyJarvis/data/cis-PBD1/lammps/equil/emc_build.params
# LAMMPS parameters created by EMC v9.4.4, build Jul 31 2025 20:33:44

# Variables

variable	seed		index	-1
variable	ntotal		index	8040
variable	fshape		index	1
variable	output		index	emc_build
variable	field		index	trappe/2014/trappe-ua
variable	location1	index	/home/arz2/emc/field/
variable	nav		index	0.6022141179
variable	temperature	index	300
variable	radius		index	5
variable	nrelax		index	100
variable	weight_nonbond	index	0.0001
variable	weight_bond	index	0.0001
variable	weight_focus	index	1
variable	cutoff		index	14
variable	charge_cutoff	index	14
variable	kappa		index	4
variable	density1	index	0.57
variable	lprevious	index	0
variable	lphase		index	68.1783775471
variable	f_poly		index	20
variable	chem_repeat	index	*C/C=C\C*
variable	chem_cap	index	*C
variable	lg_repeat	index	4
variable	lg_cap		index	1
variable	norm_poly	index	100
variable	l_poly		index	402
variable	mg_repeat	index	54.0914
variable	mg_cap		index	15.0347
variable	m_poly		index	5439.2094
variable	n_poly		index	20
variable	mtotal		index	108784.188
variable	nphase1		index	8040
variable	mphase1		index	108784.188
variable	vphase1		index	316912.949994
variable	lbox		index	68.1783775471
variable	lphase1		index	68.1783775471
variable	lxx		index	68.1783775471
variable	lyy		index	68.1783775471
variable	lzz		index	68.1783775471
variable	lzy		index	0
variable	lzx		index	0
variable	lyx		index	0
variable	vtotal		index	316912.949994
variable	nl_poly		index	20

# Types

variable	type_c3h	index	1
variable	type_c4h2	index	2
variable	type_c4h3	index	3

variable	type_bond_c3h_c3h index	1
variable	type_bond_c3h_c4h2 index	2
variable	type_bond_c4h2_c4h2 index	3
variable	type_bond_c4h2_c4h3 index	4

variable	type_angle_c3h_c3h_c4h2 index	1
variable	type_angle_c3h_c4h2_c4h2 index	2
variable	type_angle_c3h_c4h2_c4h3 index	3

# Clusters

variable	n0_poly		index	1
variable	n1_poly		index	20
variable	nl_poly		index	20

# Flags

variable	flag_charged	index	0

# Masses

mass		1    13.01890  # c3h
mass		2    14.02680  # c4h2
mass		3    15.03470  # c4h3

# Potentials

pair_modify	mix arithmetic tail yes
special_bonds	lj 0 0 0 coul 0 0 0.5
Finding 1-2 1-3 1-4 neighbors ...
  special bond factors lj:    0        0        0       
  special bond factors coul:  0        0        0.5     
     2 = max # of 1-2 neighbors
     2 = max # of 1-3 neighbors
     4 = max # of 1-4 neighbors
     6 = max # of special neighbors
  special bonds CPU = 0.000 seconds

# Pair Coeffs

pair_coeff	1 1    0.09340    3.71000  # c3h,c3h
pair_coeff	2 2    0.09141    3.95000  # c4h2,c4h2
pair_coeff	3 3    0.19475    3.75000  # c4h3,c4h3

# Bond Coeffs

bond_coeff	1  529.99987    1.33000  # c3h,c3h
bond_coeff	2  260.00013    1.54000  # c3h,c4h2
bond_coeff	3  260.00013    1.54000  # c4h2,c4h2
bond_coeff	4  260.00013    1.54000  # c4h2,c4h3

# Angle Coeffs

angle_coeff	1   69.96954  119.70000  # c3h,c3h,c4h2
angle_coeff	2   62.10020  114.00000  # c3h,c4h2,c4h2
angle_coeff	3   62.10020  114.00000  # c3h,c4h2,c4h3

# Dihedral Coeffs

dihedral_coeff	1    1.91086    1.85422    0.43627   -2.24348    0.00000  # c3h,c3h,c4h2,c4h2
dihedral_coeff	2    1.91086    1.85422    0.43627   -2.24348    0.00000  # c3h,c3h,c4h2,c4h3
dihedral_coeff	3    2.00702   -4.01203    0.27102    6.29006    0.00000  # c3h,c4h2,c4h2,c3h
dihedral_coeff	4   25.63496    0.99360  -25.63496   -0.99360    0.00000  # c4h2,c3h,c3h,c4h2


# --- Thermo Output ---
thermo_style custom step time temp press enthalpy etotal ke pe ebond eangle edihed eimp evdwl ecoul elong etail vol lx ly lz density pxx pyy pzz
thermo_modify flush yes
thermo 1000

# --- Trajectory ---
dump dump_npt all custom 1000 npt_cool.dump id type mol x y z ix iy iz vx vy vz

# --- Restart Checkpointing ---
restart 10000 npt_1.rst npt_2.rst

# --- Initial Velocities (optional) ---
# Velocities read from data file

# --- SHAKE Constraints ---
# SHAKE disabled

# --- NPT Thermostat + Barostat (Nose-Hoover) ---
# T_damp = 100.0 fs  (heat bath coupling)
# P_damp = 1000.0 fs  (pressure bath coupling, ~10x T_damp typical)
# Ramp: T=480.0->300.0K  P=1.0->1.0atm
timestep 2.0
fix npt_fix all npt temp 480.0 300.0 100.0 iso 1.0 1.0 1000.0

run 2000000
Generated 3 of 3 mixed pair_coeff terms from arithmetic mixing rule
Neighbor list info ...
  update: every = 1 steps, delay = 0 steps, check = yes
  max neighbors/atom: 4000, page size: 100000
  master list distance cutoff = 16
  ghost atom cutoff = 16
  binsize = 8, bins = 8 8 8
  1 neighbor lists, perpetual/occasional/extra = 1 0 0
  (1) pair lj/cut, perpetual
      attributes: half, newton on
      pair build: half/bin/newton
      stencil: half/bin/3d
      bin: standard
Per MPI rank memory allocation (min/avg/max) = 8.803 | 9.088 | 9.185 Mbytes
   Step          Time           Temp          Press         Enthalpy        TotEng         KinEng         PotEng         E_bond        E_angle        E_dihed        E_impro         E_vdwl         E_coul         E_long         E_tail         Volume           Lx             Ly             Lz          Density          Pxx            Pyy            Pzz      
         0   0              473.82134      583.36984      23559.554      21621.618      11354.054      10267.564      3861.8256      3821.2083      10108.297      0             -7523.7669      0              0             -255.17671      227782.13      61.071682      61.071682      61.071682      0.79304016     956.37537      706.60232      87.13182     
      1000   2000           475.50363     -233.43889      20897.895      21660.457      11394.366      10266.091      3912.3667      3934.5684      10086.119      0             -7666.963       0              0             -259.49818      223988.84      60.73077       60.73077       60.73077       0.80647045    -877.82443      122.70772      54.800045    
      2000   4000           483.29487      510.68369      23546.184      21867.596      11581.066      10286.531      3842.6585      3869.7845      10126.033      0             -7551.945       0              0             -257.896        225380.36      60.856274      60.856274      60.856274      0.8014912      47.908942      659.07431      825.06782    
      3000   6000           479.33416     -79.891146      21595.199      21860.066      11486.156      10373.91       3943.8594      3844.3429      10168.084      0             -7582.3768      0              0             -255.68613      227328.3       61.031096      61.031096      61.031096      0.79462335    -60.99181      -447.26065      268.57903    
      4000   8000           473.66548     -245.45653      20811.641      21628.634      11350.319      10278.315      3919.8853      3811.5534      10010.51       0             -7463.6339      0              0             -254.67889      228227.38      61.111449      61.111449      61.111449      0.79149304    -181.23838     -448.0669      -107.06431    
      5000   10000          471.74499     -722.68546      19135.644      21528.082      11304.299      10223.784      3888.2595      3818.6032      10031.821      0             -7514.9004      0              0             -256.06202      226994.6       61.001218      61.001218      61.001218      0.79579153    -947.15463     -693.15193     -527.74984    
      6000   12000          488.79781      454.45298      23572.643      22053.726      11712.931      10340.795      3912.8344      3787.1442      10028.27       0             -7387.4543      0              0             -253.62453      229176.15      61.196015      61.196015      61.196015      0.78821629     413.84388      706.11197      243.4031     
      7000   14000          476.1775       110.48726      22125.948      21758.109      11410.514      10347.596      3933.4211      3835.1077      10042.223      0             -7463.1564      0              0             -254.61939      228280.71      61.116209      61.116209      61.116209      0.79130811    -9.42978        42.467683      298.42386    
      8000   16000          480.2075       583.52655      24130.003      22162.793      11507.084      10655.709      3966.311       3921.9888      10137.053      0             -7369.6434      0              0             -251.44704      231160.78      61.372157      61.372157      61.372157      0.78144906     33.496268      465.30785      1251.7755    
      9000   18000          474.93361      287.33569      22627.171      21674.407      11380.707      10293.7        3860.0474      3824.096       10064.761      0             -7455.2039      0              0             -255.64724      227362.89      61.034191      61.034191      61.034191      0.79450248     470.50535      323.95687      67.544855    
     10000   20000          481.06165      174.03434      22497.62       21922.124      11527.552      10394.573      3938.6512      3844.5508      10125.295      0             -7513.9242      0              0             -256.3477       226741.63      60.978549      60.978549      60.978549      0.79667937     247.24947      310.55945     -35.705896    
     11000   22000          478.05884     -103.78348      21367.547      21710.046      11455.596      10254.451      3935.3251      3857.5574      10021.616      0             -7560.0476      0              0             -256.86541      226284.63      60.937554      60.937554      60.937554      0.79828832     2.2440127     -438.08098      124.48651    
     12000   24000          474.98102      139.64142      22269.249      21808.326      11381.843      10426.483      3906.7979      3939.346       10072.046      0             -7491.7067      0              0             -256.81627      226327.93      60.941441      60.941441      60.941441      0.7981356      817.18103     -658.42134      260.16458    
     13000   26000          483.18448      5.3312957      22104.937      22086.941      11578.42       10508.52       3886.1535      3867.8647      10116.643      0             -7362.1412      0              0             -251.11676      231464.82      61.399052      61.399052      61.399052      0.78042261    -304.80488      51.558972      269.2398     
     14000   28000          474.48661     -134.17047      21182.29       21631.721      11369.996      10261.726      3890.125       3757.0763      10097.454      0             -7482.9298      0              0             -253.06408      229683.7       61.241158      61.241158      61.241158      0.78647451     64.202134     -336.79033     -129.92322    
     15000   30000          480.21692     -46.462126      21755.543      21910.458      11507.309      10403.149      3839.3601      3827.5207      10196.58       0             -7460.3117      0              0             -254.23898      228622.28      61.146675      61.146675      61.146675      0.79012588    -247.6218       6.1897917      102.04563    
     16000   32000          485.65267      124.77236      22303.819      21889.59       11637.565      10252.025      3776.8031      3847.1688      10169.613      0             -7541.5592      0              0             -255.33767      227638.54      61.058847      61.058847      61.058847      0.7935404     -176.94147      437.15758      114.10096    
     17000   34000          472.66948     -324.34955      20571.364      21650.782      11326.452      10324.331      3843.5276      3814.2589      10164.254      0             -7497.7096      0              0             -254.71812      228192.23      61.108311      61.108311      61.108311      0.79161495    -152.55184     -37.074137     -783.42268    
     18000   36000          481.1947       162.34768      22422.669      21881.371      11530.74       10350.631      3890.9181      3753.0096      10152.09       0             -7445.3865      0              0             -254.24125      228620.23      61.146493      61.146493      61.146493      0.79013295     865.7557       92.865723     -471.5784     
     19000   38000          472.31188      312.31466      22694.814      21652.106      11317.883      10334.222      3919.0083      3798.5237      10081.644      0             -7464.9537      0              0             -253.9019       228925.8       61.173723      61.173723      61.173723      0.78907829     535.99514      419.55287     -18.604036    
     20000   40000          474.82612     -443.03096      20179.584      21646.882      11378.131      10268.751      3934.8711      3717.0666      10125.701      0             -7508.8879      0              0             -255.94833      227095.43      61.010249      61.010249      61.010249      0.7954382     -534.63678     -613.93231     -180.52379    
     21000   42000          480.81578      596.43798      23714.992      21744.996      11521.66       10223.337      3913.0736      3850.5045      10056.705      0             -7596.9469      0              0             -256.64718      226477.04      60.954821      60.954821      60.954821      0.79761011     1052.7922      557.87306      178.64866    
     22000   44000          477.0334      -75.256662      21309.526      21557.327      11431.024      10126.303      3939.2709      3798.533       9984.3585      0             -7595.859       0              0             -257.4415       225778.27      60.892066      60.892066      60.892066      0.80007868    -570.71995      270.75002      74.199941    
     23000   46000          476.38216     -338.61941      20506.099      21627.693      11415.418      10212.275      3930.7748      3764.5132      10008.822      0             -7491.8351      0              0             -255.92501      227116.12      61.012102      61.012102      61.012102      0.79536572    -478.90876      199.89473     -736.84419    
     24000   48000          475.33382     -303.1071       20623.283      21630.13       11390.297      10239.833      3856.2452      3722.4575      10163.726      0             -7502.5957      0              0             -255.1933       227767.32      61.070359      61.070359      61.070359      0.79309172    -28.761615     -969.09682      88.537149    
     25000   50000          481.62043     -852.55835      18987.545      21850.722      11540.941      10309.781      3837.1517      3807.9475      10131.657      0             -7466.9752      0              0             -252.41347      230275.73      61.293731      61.293731      61.293731      0.78445253    -1064.2877     -865.23896     -628.1484     
     26000   52000          485.46149     -153.3065       21592.544      22105.928      11632.984      10472.945      3993.7772      3870.1896      10085.824      0             -7476.8458      0              0             -253.13614      229618.32      61.235346      61.235346      61.235346      0.78669846    -189.67572     -710.60946      440.36568    
     27000   54000          482.97566     -756.67288      19136.689      21675.7        11573.416      10102.284      3832.1865      3784.3354      9973.8918      0             -7488.1296      0              0             -252.62719      230080.91      61.27644       61.27644       61.27644       0.78511676    -803.56167     -751.78727     -714.6697     
     28000   56000          484.19141     -136.63093      21705.771      22160.691      11602.549      10558.142      3938.0519      3911.3152      10229.95       0             -7521.1757      0              0             -254.59525      228302.35      61.11814       61.11814       61.11814       0.79123311    -241.41255     -456.12039      287.64014    
     29000   58000          475.84312     -672.12405      19335.715      21570.796      11402.501      10168.295      3882.5447      3739.8434      10093.772      0             -7547.8653      0              0             -254.91336      228017.45      61.092706      61.092706      61.092706      0.79222171    -829.58136     -626.45679     -560.33399    
     30000   60000          478.83451      189.5226       22442.24       21813.459      11474.183      10339.276      3886.5021      3736.3648      10194.37       0             -7477.9617      0              0             -255.50409      227490.27      61.045587      61.045587      61.045587      0.7940576     -266.495        434.3565       400.7063     
     31000   62000          470.74398     -709.42374      18989.302      21338.506      11280.312      10058.195      3831.2915      3757.0148      10006.179      0             -7536.2905      0              0             -255.98914      227059.22      61.007007      61.007007      61.007007      0.79556503    -1136.8888     -527.01427     -464.36819    
     32000   64000          473.30841      611.30525      23741.55       21688.666      11341.763      10346.903      3890.6895      3700.6464      10159.68       0             -7404.1126      0              0             -252.4238       230266.3       61.292894      61.292894      61.292894      0.78448466    -150.36797      1111.6683      872.61544    
     33000   66000          480.17773      155.69835      22283.184      21767.023      11506.37       10260.652      3850.6879      3863.6474      10074.965      0             -7528.6476      0              0             -255.70262      227313.65      61.029784      61.029784      61.029784      0.79467459    -116.77225     -129.85439      713.7217     
     34000   68000          482.37923     -341.93655      20739.299      21885.072      11559.124      10325.948      3838.6622      3792.2685      10099.498      0             -7404.4803      0              0             -252.97846      229761.44      61.248066      61.248066      61.248066      0.78620843    -464.5438      -84.870399     -476.39546    
     35000   70000          474.29578     -91.988709      21213.71       21518.296      11365.423      10152.873      3796.409       3772.494       10045.255      0             -7461.2851      0              0             -256.01252      227038.48      61.005149      61.005149      61.005149      0.7956377     -16.742012     -171.93747     -87.286642    
     36000   72000          478.54403     -246.34881      20874.251      21692.049      11467.222      10224.827      3805.8289      3815.1973      10152.372      0             -7548.5711      0              0             -255.35298      227624.89      61.057627      61.057627      61.057627      0.79358797    -438.26262     -480.32076      179.53696    
     37000   74000          474.36346      48.255109      21995.11       21834.152      11367.045      10467.108      3904.1793      3814.5605      10226.752      0             -7478.3842      0              0             -254.1375       228713.57      61.154813      61.154813      61.154813      0.7898105      333.72739     -22.811294     -166.15077    
     38000   76000          475.03555      276.06719      22643.696      21722.421      11383.15       10339.271      3764.1152      3833.5565      10148.809      0             -7407.2089      0              0             -254.01651      228822.51      61.164521      61.164521      61.164521      0.78943448     189.72289     -19.032391      657.51107    
     39000   78000          479.92742      374.28961      23009.75       21757.962      11500.372      10257.59       3890.131       3740.991       10091.351      0             -7464.8825      0              0             -253.46237      229322.78      61.209063      61.209063      61.209063      0.78771233     237.33405      651.28513      234.24965    
     40000   80000          478.08701     -198.94372      20961.02       21626.567      11456.271      10170.296      3754.1502      3716.6784      10127.12       0             -7427.6527      0              0             -253.38938      229388.83      61.214939      61.214939      61.214939      0.7874855     -117.11238      45.688946     -525.40772    
     41000   82000          478.80133     -306.64916      20777.431      21799.283      11473.388      10325.895      3935.2625      3831.3691      10079.292      0             -7520.0288      0              0             -254.3844       228491.58      61.135022      61.135022      61.135022      0.79057782    -393.27391     -488.55655     -38.117012    
     42000   84000          471.70979      440.59874      23068.07       21595.771      11303.455      10292.316      3870.2004      3791.5723      10086.337      0             -7455.7937      0              0             -253.67851      229127.39      61.191674      61.191674      61.191674      0.78838404     1029.9655      249.90689      41.923834    
     43000   86000          480.93723     -62.499699      21557.931      21766.116      11524.57       10241.546      3985.6079      3666.8535      10055.053      0             -7465.9689      0              0             -254.48711      228399.37      61.126796      61.126796      61.126796      0.79089701     263.01919      28.859506     -479.37779    
     44000   88000          478.74126      311.67675      22557.101      21537.333      11471.949      10065.385      3870.6446      3697.2873      10104.748      0             -7607.2956      0              0             -259.0833       224347.51      60.76317       60.76317       60.76317       0.8051811      266.36783     -29.341474      698.0039     
     45000   90000          472.54638      405.25166      22855.796      21521.469      11323.502      10197.967      3899.1879      3892.4769      10056.542      0             -7650.2404      0              0             -257.45373      225767.54      60.891102      60.891102      60.891102      0.8001167      367.32096      396.04537      452.38865    
     46000   92000          470.13155     -74.695969      21184.82       21432.073      11265.636      10166.437      3921.117       3727.9249      10092.755      0             -7575.3596      0              0             -256.08976      226970.01      60.999015      60.999015      60.999015      0.79587774     22.307246      17.108425     -263.50358    
     47000   94000          472.58365     -67.39437       21382.225      21605.845      11324.395      10281.45       3890.9779      3810.1336      10108.294      0             -7527.9557      0              0             -255.4751       227516.09      61.047896      61.047896      61.047896      0.7939675     -334.41825      51.604067      80.631075    
     48000   96000          476.91934     -447.31933      20304.299      21777.351      11428.29       10349.061      3834.524       3905.9693      10166.266      0             -7557.6981      0              0             -257.41624      225800.42      60.894058      60.894058      60.894058      0.80000019    -902.65914     -355.62532     -83.673511    
     49000   98000          472.0713      -477.04447      19892.902      21486.715      11312.118      10174.597      3810.0973      3804.3505      10056.624      0             -7496.4747      0              0             -253.72201      229088.11      61.188177      61.188177      61.188177      0.78851923    -834.18173     -395.18924     -201.76244    
     50000   100000         472.79649     -32.927876      21497.829      21608.362      11329.496      10278.866      3850.5609      3777.9606      10084.57       0             -7434.2254      0              0             -252.52917      230170.22      61.284368      61.284368      61.284368      0.78481211    -104.356        379.87915     -374.30679    
     51000   102000         475.21638      182.07007      22403.252      21796.099      11387.483      10408.616      3918.2845      3875.5383      10093.144      0             -7478.3501      0              0             -254.20085      228656.57      61.149732      61.149732      61.149732      0.79000739    -33.63704       410.131        169.71624    
     52000   104000         473.84433     -130.02672      21358.097      21791.873      11354.605      10437.268      3894.4223      3929.3237      10103.234      0             -7489.7121      0              0             -254.09943      228747.83      61.157867      61.157867      61.157867      0.78969219    -463.18452     -154.0411       227.14546    
     53000   106000         478.04124      141.91053      22120.583      21649.013      11455.174      10193.839      3912.5488      3710.3282      10087.64       0             -7516.6779      0              0             -255.09689      227853.41      61.078052      61.078052      61.078052      0.79279209    -621.88928      1147.6185     -99.997628    
     54000   108000         466.47521     -313.38017      20191.669      21232.394      11178.02       10054.373      3754.2542      3760.3068      10054.156      0             -7514.3437      0              0             -255.25371      227713.42      61.065541      61.065541      61.065541      0.79327947    -495.5312      -563.13293      118.52361    
     55000   110000         475.43441      305.97479      22600.341      21588.902      11392.707      10196.195      3914.4258      3838.3737      9978.2769      0             -7534.8815      0              0             -256.43818      226661.62      60.971376      60.971376      60.971376      0.79696057     332.43486      77.74955       507.73997    
     56000   112000         470.6427       328.04002      22475.68       21392.429      11277.885      10114.544      3823.0556      3784.166       10037.178      0             -7529.8553      0              0             -256.70509      226425.95      60.950237      60.950237      60.950237      0.79779008     540.22604     -492.49226      936.38626    
     57000   114000         479.15689      53.972137      22183.664      22002.994      11481.908      10521.085      3919.4238      3848.6176      10151.943      0             -7398.8989      0              0             -253.23168      229531.69      61.227644      61.227644      61.227644      0.78699539     33.148646     -15.92014       144.68791    
     58000   116000         476.90513     -367.91462      20334.127      21548.833      11427.95       10120.883      3811.457       3823.2716      10058.635      0             -7572.4805      0              0             -256.75113      226385.35      60.946594      60.946594      60.946594      0.79793316    -151.23007     -485.98359     -466.53018    
     59000   118000         474.45489      43.892522      21590.112      21444.316      11369.235      10075.08       3829.9807      3716.2782      10031.737      0             -7502.9157      0              0             -255.19921      227762.05      61.069888      61.069888      61.069888      0.79311008    -72.241244     -210.67454      414.59335    
     60000   120000         477.25778      159.26016      22137.355      21603.741      11436.4        10167.341      3846.7239      3731.1958      10044.169      0             -7454.7476      0              0             -252.99788      229743.8       61.246499      61.246499      61.246499      0.78626879    -159.65209      513.96633      123.46626    
     61000   122000         473.56076      322.64216      22620.023      21544.389      11347.81       10196.58       3851.1312      3776.8795      10052.771      0             -7484.2021      0              0             -254.26896      228595.32      61.144272      61.144272      61.144272      0.79021904     870.94506     -205.17254      302.15396    
     62000   124000         476.20666      33.215451      21869.839      21758.934      11411.213      10347.722      3900.4802      3832.4843      10069.325      0             -7454.5677      0              0             -253.8789       228946.53      61.17557       61.17557       61.17557       0.78900683    -89.854613     -154.23286      343.73383    
     63000   126000         474.21668      67.442635      21736.865      21515.468      11363.527      10151.941      3910.5825      3723.0658      10136.582      0             -7618.2894      0              0             -258.22574      225092.57      60.83036       60.83036       60.83036       0.80251597     113.82733      15.043209      73.457367    
     64000   128000         474.14357     -83.941273      21304.255      21583.173      11361.775      10221.398      3904.552       3710.878       10074.629      0             -7468.661       0              0             -255.11396      227838.16      61.076689      61.076689      61.076689      0.79284515    -906.29936      192.98038      461.49516    
     65000   130000         477.95141     -267.35404      20698.788      21586.551      11453.022      10133.53       3849.4554      3855.9918      9964.4701      0             -7536.3875      0              0             -255.28534      227685.2       61.063019      61.063019      61.063019      0.79337776     584.56289     -413.13744     -973.48758    
     66000   132000         475.82132      79.993876      21812.722      21548.124      11401.979      10146.145      3882.9754      3798.3358      9990.311       0             -7525.4769      0              0             -256.27569      226805.34      60.98426       60.98426       60.98426       0.79645557     585.77537     -614.30157      268.50783    
     67000   134000         468.70261     -489.0572       19762.714      21379.27       11231.395      10147.875      3874.1346      3802.9104      10053.713      0             -7582.883       0              0             -256.45166      226649.71      60.970308      60.970308      60.970308      0.79700248    -718.24786      97.610228     -846.53396    
     68000   136000         470.83579      155.35381      22103.045      21585.419      11282.512      10302.908      3893.3522      3848.2472      10019.363      0             -7458.0549      0              0             -254.41496      228464.14      61.132574      61.132574      61.132574      0.79067278    -148.88627      692.63833     -77.690616    
     69000   138000         473.88398      715.00406      23838.788      21482.659      11355.555      10127.104      3823.2814      3806.0281      10079.798      0             -7582.0029      0              0             -257.24442      225951.23      60.907612      60.907612      60.907612      0.79946622     1064.1389      609.40162      471.47169    
     70000   140000         482.82194      269.47732      22688.929      21789.379      11569.733      10219.647      3757.271       3896.3991      10026.536      0             -7460.56        0              0             -253.94136      228890.22      61.170554      61.170554      61.170554      0.78920094     26.047065      458.05248      324.33242    
     71000   142000         466.75601     -223.62889      20438.763      21175.749      11184.749      9991.0003      3804.4244      3702.5398      10056.835      0             -7572.7985      0              0             -257.22         225972.69      60.90954       60.90954       60.90954       0.79939031    -254.17012     -307.70538     -109.01117    
     72000   144000         475.47455     -98.353961      21140.232      21466.538      11393.669      10072.869      3800.2521      3742.7191      10053.186      0             -7523.2883      0              0             -255.50679      227487.87      61.045372      61.045372      61.045372      0.79406598    -661.46028     -141.3286       507.727      
     73000   146000         477.31156     -425.42651      20187.196      21594.726      11437.689      10157.037      3835.2735      3823.461       10034.591      0             -7536.2889      0              0             -256.21438      226859.62      60.989124      60.989124      60.989124      0.79626503    -541.4598      -278.27261     -456.54711    
     74000   148000         470.69885     -270.33718      20580.628      21478.569      11279.23       10199.339      3886.1397      3737.6591      10087.903      0             -7512.3631      0              0             -255.20811      227754.1       61.069177      61.069177      61.069177      0.79313775    -395.57699     -32.142242     -383.29232    
     75000   150000         481.26212      394.90694      22864.267      21548.909      11532.355      10016.554      3779.7755      3768.4998      9992.2827      0             -7524.0042      0              0             -254.49968      228388.08      61.125789      61.125789      61.125789      0.7909361      106.06934      577.00816      501.64331    
     76000   152000         474.99998     -319.48289      20567.202      21621.2        11382.297      10238.903      3966.498       3701.5711      10117.787      0             -7546.9526      0              0             -256.94728      226212.53      60.931082      60.931082      60.931082      0.79854275     230.12395     -670.0263      -518.54632    
     77000   154000         474.80744      271.43915      22557.158      21659.009      11377.683      10281.325      3921.6611      3775.137       10063.01       0             -7478.4834      0              0             -256.18902      226882.07      60.991136      60.991136      60.991136      0.79618624    -100.24946      27.77996       886.78694    
     78000   156000         472.35351     -186.68829      21046.24       21671.944      11318.881      10353.063      3880.6194      3825.2231      10057.937      0             -7410.716       0              0             -252.92102      229813.62      61.252702      61.252702      61.252702      0.78602992    -282.1611       96.232119     -374.13589    
     79000   158000         469.79472     -408.7923       20218.558      21594.841      11257.565      10337.276      3823.9297      3823.3922      10076.271      0             -7386.3168      0              0             -251.78606      230849.53      61.344599      61.344599      61.344599      0.78250268    -1092.3701      136.49097     -270.49772    
     80000   160000         467.15564      165.42824      22077.873      21525.014      11194.325      10330.689      3830.3822      3764.6034      10179.125      0             -7443.4216      0              0             -253.6481       229154.86      61.19412       61.19412       61.19412       0.78828954    -18.302531      265.8978       248.68946    
     81000   162000         475.98315      263.88132      22545.529      21676.006      11405.857      10270.149      3897.5019      3799.4626      10145.866      0             -7572.6814      0              0             -257.25527      225941.71      60.906756      60.906756      60.906756      0.79949993     296.31834      266.76787      228.55774    
     82000   164000         477.10559      250.25365      22249.489      21427.529      11432.753      9994.7754      3752.3316      3734.352       10102.627      0             -7594.5352      0              0             -258.08718      225213.42      60.841244      60.841244      60.841244      0.80208533     582.23235     -520.27056      688.79916    
     83000   166000         474.30468      227.16952      22213.405      21462.345      11365.636      10096.709      3816.1811      3771.1809      10076.069      0             -7566.7213      0              0             -256.39659      226698.39      60.974673      60.974673      60.974673      0.79683132    -118.64856      331.16637      468.99076    
     84000   168000         472.58391      530.29996      23219.243      21468.329      11324.402      10143.928      3804.233       3799.8619      10119.749      0             -7579.9158      0              0             -256.73991      226395.25      60.947482      60.947482      60.947482      0.79789828     586.76055      695.85934      308.27999    
     85000   170000         464.91834      104.90063      21453.129      21110.019      11140.714      9969.3051      3767.337       3727.0482      10133.266      0             -7658.3457      0              0             -259.16796      224274.23      60.756553      60.756553      60.756553      0.80544419     110.51138      64.697926      139.49259    
     86000   172000         468.846        508.72354      23021.105      21318.434      11234.831      10083.603      3754.5278      3719.8523      10078.86       0             -7469.637       0              0             -253.2723       229494.87      61.224371      61.224371      61.224371      0.78712163     866.34468     -165.12426      824.9502     
     87000   174000         474.84437      80.176284      21701.658      21434.949      11378.568      10056.38       3780.5035      3778.1917      9985.8352      0             -7488.15        0              0             -254.82672      228094.98      61.099629      61.099629      61.099629      0.79195245    -105.06364      888.71651     -543.12401    
     88000   176000         474.87308     -82.549528      21090.236      21362.047      11379.256      9982.7906      3802.085       3674.9901      10139.648      0             -7633.9324      0              0             -257.44483      225775.35      60.891804      60.891804      60.891804      0.80008904     44.179771      401.3654      -693.19375    
     89000   178000         477.55379      322.14508      22554.807      21499.769      11443.493      10056.276      3830.1374      3790.6776      10057.635      0             -7622.1741      0              0             -258.83335      224564.17      60.782723      60.782723      60.782723      0.80440429     499.26765      832.33493     -365.16734    
     90000   180000         468.29096      76.22914       21702.546      21449.338      11221.531      10227.807      3879.8038      3903.8372      9984.5013      0             -7540.3354      0              0             -255.1992       227762.06      61.069888      61.069888      61.069888      0.79311005    -40.289713      318.03975     -49.062616    
     91000   182000         472.16373     -249.50233      20774.243      21601.671      11314.333      10287.338      3945.7865      3733.818       10098.621      0             -7490.8875      0              0             -255.61166      227394.54      61.037023      61.037023      61.037023      0.79439189    -786.18381     -133.62682      171.30365    
     92000   184000         469.38796      155.65475      21717.67       21205.889      11247.818      9958.0716      3792.6052      3748.9881      10056.157      0             -7639.6782      0              0             -257.8191       225447.59      60.862324      60.862324      60.862324      0.8012522      301.6808       657.30905     -492.0256     
     93000   186000         470.37008     -256.62147      20705.467      21552.637      11271.352      10281.285      3916.7678      3842.283       10073.141      0             -7550.9074      0              0             -256.77855      226361.18      60.944425      60.944425      60.944425      0.79801836    -361.68503      160.99255     -569.17193    
     94000   188000         479.91746     -117.91265      21081.732      21472.376      11500.133      9972.2429      3754.3862      3749.9633      10015.954      0             -7548.0603      0              0             -255.86749      227167.17      61.016673      61.016673      61.016673      0.79518698     238.5011      -380.72464     -211.51442    
     95000   190000         470.01655      196.84298      22000.037      21351.236      11262.881      10088.355      3872.8302      3757.7481      10062.415      0             -7604.6377      0              0             -257.18451      226003.87      60.912341      60.912341      60.912341      0.79928003     471.6592       329.76545     -210.89573    
     96000   192000         469.77017      265.98807      22177.48       21300.382      11256.977      10043.405      3806.5931      3785.3467      10030.922      0             -7579.4568      0              0             -257.06947      226105.01      60.921426      60.921426      60.921426      0.79892251     307.39507      435.21855      55.350579    
     97000   194000         468.23646     -713.45593      18894.44       21271.59       11220.225      10051.365      3760.0572      3767.8314      10077.426      0             -7553.9502      0              0             -254.41764      228461.73      61.132359      61.132359      61.132359      0.79068112    -1019.6603     -1052.6444     -68.063059    
     98000   196000         467.95559      160.29915      21957.877      21421.142      11213.494      10207.648      3945.0993      3681.58        10065.879      0             -7484.9106      0              0             -253.16752      229589.85      61.232816      61.232816      61.232816      0.786796      -69.564338      172.05368      378.4081     
     99000   198000         465.63175     -428.64026      19805.83       21227.673      11157.809      10069.864      3848.6362      3763.6744      10013.473      0             -7555.9195      0              0             -255.5512       227448.34      61.041836      61.041836      61.041836      0.79420399    -399.34879      127.41963     -1013.9916    
    100000   200000         469.38476     -399.8927       20052.668      21376.285      11247.741      10128.544      3863.9585      3698.1997      10110.236      0             -7543.8496      0              0             -256.10472      226956.75      60.997827      60.997827      60.997827      0.79592424    -105.53001     -585.64204     -508.50605    
    101000   202000         472.34904      224.0419       22224.098      21485.165      11318.774      10166.392      3919.2949      3747.5917      10077.44       0             -7577.935       0              0             -257.01628      226151.8       60.925628      60.925628      60.925628      0.7987572     -128.20616      524.98181      275.35006    
    102000   204000         472.95775     -891.86644      18525.908      21475.286      11333.36       10141.926      3780.6887      3755.3367      10157.564      0             -7551.6628      0              0             -256.33384      226753.89      60.979648      60.979648      60.979648      0.79663631    -1059.3113     -822.03975     -794.2483     
    103000   206000         464.5266      -151.52229      21000.963      21504.797      11131.326      10373.47       3864.9159      3843.234       10178.013      0             -7512.6925      0              0             -254.93317      227999.74      61.091124      61.091124      61.091124      0.79228327    -318.66905     -187.25979      51.361983    
    104000   208000         471.3329       73.441616      21662.104      21418.955      11294.424      10124.531      3951.012       3734.156       10039.602      0             -7600.2385      0              0             -256.03922      227014.81      61.003029      61.003029      61.003029      0.79572067    -16.921032      125.12383      112.12205    
    105000   210000         472.53671     -117.22066      21150.378      21538.761      11323.271      10215.49       3871.2417      3765.638       10062.198      0             -7483.588       0              0             -255.8477       227184.74      61.018246      61.018246      61.018246      0.79512549     763.25749     -780.6717      -334.24776    
    106000   212000         467.42264      274.80042      22253.584      21349.182      11200.723      10148.458      3812.5543      3794.133       10111.248      0             -7569.477       0              0             -257.56839      225667.03      60.882065      60.882065      60.882065      0.80047305     70.16111      -17.433491      771.67365    
    107000   214000         472.11125     -235.87551      20624.62       21415.29       11313.075      10102.215      3770.7931      3705.2179      10061.022      0             -7434.8183      0              0             -252.88569      229845.72      61.255554      61.255554      61.255554      0.78592013     423.46618     -50.665342     -1080.4274    
    108000   216000         477.37769     -366.84771      20639.218      21853.265      11439.274      10413.991      3921.6043      3752.2104      10252.255      0             -7512.0781      0              0             -256.14561      226920.52      60.994582      60.994582      60.994582      0.7960513     -398.61393     -450.86595     -251.06326    
    109000   218000         472.42999      133.51024      21709.133      21267.056      11320.713      9946.3427      3833.8961      3644.2347      10017.551      0             -7549.3387      0              0             -256.0079       227042.58      61.005516      61.005516      61.005516      0.79562335     271.90276     -111.46089      240.08886    
    110000   220000         467.42278      323.67065      22388.633      21316.394      11200.727      10115.667      3761.9246      3753.6526      10111.151      0             -7511.0606      0              0             -255.88703      227149.83      61.01512       61.01512       61.01512       0.79524771    -24.553815      1044.3812     -48.815428    
    111000   222000         462.2349       134.19826      21785.691      21333.696      11076.411      10257.285      3791.1134      3734.9002      10101.566      0             -7370.2946      0              0             -251.68023      230946.61      61.353197      61.353197      61.353197      0.78217377     719.45962      35.354712     -352.21956    
    112000   224000         472.3882      -476.15032      19829.931      21399.434      11319.712      10079.722      3848.5785      3800.1132      10022.012      0             -7590.982       0              0             -257.16889      226017.6       60.913575      60.913575      60.913575      0.79923147    -317.23652     -378.4942      -732.72024    
    113000   226000         472.16094     -66.090333      21081.231      21298.866      11314.266      9984.6003      3794.253       3754.5537      10053.207      0             -7617.4136      0              0             -257.4212       225796.06      60.893666      60.893666      60.893666      0.80001562    -324.49319      207.37392     -81.151734    
    114000   228000         470.03368     -205.79487      20681.522      21365.595      11263.291      10102.304      3880.3466      3696.4833      10055.984      0             -7530.5097      0              0             -255.01672      227925.04      61.084451      61.084451      61.084451      0.79254294    -138.01379     -263.18997     -216.18085    
    115000   230000         474.91171      162.20981      22004.955      21472.724      11380.182      10092.542      3923.4707      3658.9371      10091.793      0             -7581.6583      0              0             -258.35343      224981.31      60.820336      60.820336      60.820336      0.80291281     383.13349      266.89504     -163.3991     
    116000   232000         469.43892      611.0397       23266.988      21235.127      11249.039      9986.0877      3824.9009      3682.1571      9942.4745      0             -7463.4448      0              0             -254.92473      228007.28      61.091798      61.091798      61.091798      0.79225706     243.33022      1410.3516      179.43732    
    117000   234000         462.90202      76.362348      21588.522      21333.735      11092.397      10241.338      3765.8072      3784.7055      10129.801      0             -7438.9754      0              0             -254.06143      228782.05      61.160916      61.160916      61.160916      0.78957408    -45.715614      295.98643     -21.183771    
    118000   236000         467.32394      193.40483      21809.745      21172.917      11198.358      9974.5584      3776.3001      3699.246       10057.837      0             -7558.8247      0              0             -257.44328      225776.7       60.891925      60.891925      60.891925      0.80008423     583.07209     -328.30793      325.45034    
    119000   238000         461.55409      238.44256      21860.409      21070.082      11060.097      10009.985      3809.4788      3670.2919      10034.739      0             -7504.5253      0              0             -255.74862      227272.76      61.026125      61.026125      61.026125      0.79481754    -53.258761      428.23686      340.34958    
    120000   240000         466.46338     -450.55076      19598.82       21086.092      11177.737      9908.3546      3793.7845      3658.9394      10053.646      0             -7598.0152      0              0             -256.79703      226344.89      60.942963      60.942963      60.942963      0.79807581     185.16884     -1095.1268     -441.69435    
    121000   242000         463.50586     -424.76354      19631.24       21039.392      11106.867      9932.5254      3819.9379      3681.5795      9923.5891      0             -7492.5811      0              0             -255.70205      227314.15      61.02983       61.02983       61.02983       0.79467281    -200.77997     -655.41021     -418.10044    
    122000   244000         465.65027     -216.87942      20463.689      21186.124      11158.253      10027.872      3842.4168      3657.8622      10034.963      0             -7507.3702      0              0             -254.48133      228404.56      61.127259      61.127259      61.127259      0.79087905    -348.11453     -438.40363      135.87988    
    123000   246000         470.84387      333.50335      22329.782      21233.376      11282.706      9950.6703      3772.2491      3708.3514      10063.806      0             -7593.7365      0              0             -257.84895      225421.49      60.859975      60.859975      60.859975      0.80134498     563.97826      87.631562      348.90022    
    124000   248000         459.40298      320.72631      22091.04       21028.628      11008.551      10020.078      3764.5562      3689.4306      10110.858      0             -7544.7669      0              0             -255.90484      227134.02      61.013705      61.013705      61.013705      0.79530305     137.39268      274.26404      550.52223    
    125000   250000         466.83265     -814.72273      18470.762      21184.179      11186.586      9997.5933      3794.2891      3701.6942      9984.5676      0             -7482.9576      0              0             -254.52463      228365.69      61.123792      61.123792      61.123792      0.79101364    -876.20084     -895.57799     -672.38936    
    126000   252000         474.42807     -43.78929       21241.687      21385.926      11368.593      10017.334      3884.686       3683.901       10057.117      0             -7608.3702      0              0             -257.34877      225859.62      60.899379      60.899379      60.899379      0.7997905     -204.30667      9.9366555      63.002142    
    127000   254000         466.08346     -77.098574      20897.808      21152.888      11168.633      9984.2547      3833.2956      3749.444       9977.0036      0             -7575.4885      0              0             -256.21626      226857.95      60.988975      60.988975      60.988975      0.79627088     129.7566       296.12626     -657.17858    
    128000   256000         469.89836      853.74512      23991.219      21164.847      11260.048      9904.7985      3803.8054      3660.0401      9994.3146      0             -7553.3616      0              0             -256.05631      226999.65      61.001671      61.001671      61.001671      0.7957738      1007.1385      1076.5123      477.58447    
    129000   258000         462.02414      130.44101      21534.493      21107.816      11071.361      10036.455      3795.9185      3807.1559      10111.315      0             -7677.9347      0              0             -259.15018      224289.62      60.757942      60.757942      60.757942      0.80538894     227.60715      100.23849      63.477402    
    130000   260000         469.07169      84.967349      21483.562      21200.431      11240.239      9960.192       3743.6564      3832.2967      9921.4425      0             -7537.2036      0              0             -254.39052      228486.08      61.134531      61.134531      61.134531      0.79059685     103.89004      148.97972      2.0322916    
    131000   262000         463.62338      74.773133      21388.692      21140.882      11109.683      10031.199      3784.5049      3682.8767      10077.343      0             -7513.5252      0              0             -255.778        227246.65      61.023788      61.023788      61.023788      0.79490887    -259.44253      463.59894      20.162987    
    132000   264000         469.2497      -128.54753      20730.178      21156.941      11244.505      9912.436       3772.9969      3695.3149      9985.2611      0             -7541.1369      0              0             -255.3367       227639.4       61.058924      61.058924      61.058924      0.79353739    -10.389114      217.22366     -592.47712    
    133000   266000         467.21567     -244.08699      20387.51       21192.351      11195.764      9996.5873      3828.745       3740.862       10027.754      0             -7600.7737      0              0             -257.08157      226094.37      60.92047       60.92047       60.92047       0.7989601      4.9255213     -139.00059     -598.18592    
    134000   268000         470.50655      137.83968      21601.27       21144.817      11274.622      9870.1947      3805.0242      3595.8224      9999.8736      0             -7530.5255      0              0             -255.98541      227062.53      61.007303      61.007303      61.007303      0.79555344     141.76512      923.10428     -651.35036    
    135000   270000         469.61722     -306.17592      20284.057      21289.974      11253.312      10036.663      3904.8487      3746.6606      10045.033      0             -7659.8795      0              0             -258.01521      225276.24      60.846901      60.846901      60.846901      0.80186166    -796.13346      200.15798     -322.55228    
    136000   272000         467.57935     -423.98955      19754.829      21153.799      11204.479      9949.32        3741.0616      3765.2622      10055.336      0             -7612.3399      0              0             -256.9114       226244.13      60.933918      60.933918      60.933918      0.79843124    -694.97785     -552.45631     -24.534486    
    137000   274000         467.36211     -50.386879      21289.501      21457.406      11199.273      10258.133      3798.3759      3771.3154      10144.987      0             -7456.5456      0              0             -254.3845       228491.5       61.135014      61.135014      61.135014      0.79057811    -113.45954     -165.22105      127.51996    
    138000   276000         468.2551      -81.42135       21260.315      21530.482      11220.672      10309.81       3884.9309      3796.302       10135.394      0             -7506.8165      0              0             -255.47172      227519.1       61.048166      61.048166      61.048166      0.79395699    -429.87712     -46.0975        231.71057    
    139000   278000         469.05458     -457.78798      19991.205      21517.587      11239.829      10277.757      3878.1845      3807.8947      10086.431      0             -7494.7528      0              0             -254.2365       228624.51      61.146874      61.146874      61.146874      0.79011818     224.12057     -788.97458     -808.50992    
    140000   280000         458.42004      86.683578      21234.17       20949.717      10984.997      9964.7207      3863.8192      3728.8372      9996.1496      0             -7624.0853      0              0             -258.32326      225007.59      60.822704      60.822704      60.822704      0.80281903    -224.15388     -214.04362      698.24824    
    141000   282000         463.16791     -411.49039      19799.001      21146.813      11098.769      10048.044      3848.355       3761.3153      10108.189      0             -7669.8145      0              0             -258.80162      224591.69      60.785206      60.785206      60.785206      0.8043057     -443.74596     -594.03432     -196.69089    
    142000   284000         473.64415      721.76843      23840.384      21481.09       11349.808      10131.283      3875.2976      3751.8844      10180.169      0             -7676.0683      0              0             -259.32978      224134.28      60.743913      60.743913      60.743913      0.80594712     907.71907      232.00698      1025.5792    
    143000   286000         468.56072      185.64135      21685.801      21075.209      11227.995      9847.2144      3769.4192      3617.3839      10120.822      0             -7660.4111      0              0             -257.72742      225527.79      60.86954       60.86954       60.86954       0.80096727     142.14819      751.7652      -336.98935    
    144000   288000         470.13659      33.930258      21393.079      21280.357      11265.757      10014.6        3830.121       3657.7622      10073.945      0             -7547.2286      0              0             -255.16142      227795.78      61.072902      61.072902      61.072902      0.79299263     272.90235      243.38828     -414.49985    
    145000   290000         468.73508      47.426763      21384.381      21226.518      11232.173      9994.3447      3733.9411      3721.7145      10039.949      0             -7501.2598      0              0             -254.6707       228234.71      61.112104      61.112104      61.112104      0.79146759     254.77543     -654.91959      542.42445    
    146000   292000         467.89804      845.95528      24062.097      21263.323      11212.115      10051.208      3780.0748      3686.2237      10093.963      0             -7509.054       0              0             -256.22182      226853.02      60.988533      60.988533      60.988533      0.79628817     1028.1305      523.15707      986.57825    
    147000   294000         466.33686      252.5252       22149.649      21312.316      11174.705      10137.611      3762.8855      3820.3377      10091.38       0             -7536.9921      0              0             -255.64847      227361.79      61.034093      61.034093      61.034093      0.7945063      681.33882     -179.32418      255.56096    
    148000   296000         463.19689     -31.396514      21195.353      21299.816      11099.463      10200.353      3900.8887      3651.558       10143.977      0             -7496.0714      0              0             -254.77578      228140.58      61.103701      61.103701      61.103701      0.79179415     321.05523     -189.13717     -226.1076     
    149000   298000         462.15941      622.94613      22993.754      20935.448      11074.602      9860.8462      3706.4525      3626.0535      10109.405      0             -7581.0652      0              0             -256.5531       226560.1       60.962272      60.962272      60.962272      0.7973177      623.80854      739.68589      505.34394    
    150000   300000         467.58395     -229.48521      20426.484      21183.198      11204.589      9978.6095      3733.2585      3739.2631      10115.745      0             -7609.6575      0              0             -257.0748       226100.32      60.921005      60.921005      60.921005      0.79893905    -594.24541      231.9589      -326.16912    
    151000   302000         468.70856     -298.16765      20265.923      21250.584      11231.538      10019.046      3862.8688      3698.3103      10055.356      0             -7597.4885      0              0             -256.69077      226438.59      60.951371      60.951371      60.951371      0.79774556    -235.55168     -308.29816     -350.65312    
    152000   304000         469.47327      710.2178       23553.003      21205.528      11249.862      9955.6656      3880.1264      3671.2457      9929.8152      0             -7525.5216      0              0             -256.46439      226638.46      60.969299      60.969299      60.969299      0.79704202     922.4525       742.46967      465.73123    
    153000   306000         465.34366     -207.35424      20603.495      21291.504      11150.905      10140.599      3807.56        3734.2135      10110.017      0             -7511.192       0              0             -255.47899      227512.62      61.047586      61.047586      61.047586      0.79397961    -274.25147     -566.08814      218.27688    
    154000   308000         472.6139       436.68267      22860.754      21421.931      11325.12       10096.81       3779.8073      3740.6893      10103.532      0             -7527.2186      0              0             -257.27346      225925.74      60.905321      60.905321      60.905321      0.79955645     916.72605      579.32146     -185.9995     
    155000   310000         464.216        108.28833      21469.921      21114.119      11123.884      9990.2351      3771.9817      3673.1523      10142.219      0             -7597.1181      0              0             -257.99388      225294.86      60.848577      60.848577      60.848577      0.80179539    -305.49343      328.20139      302.15702    
    156000   312000         465.56388     -482.50158      19674.725      21275.935      11156.183      10119.752      3818.6741      3740.1475      10116.097      0             -7555.1667      0              0             -255.43899      227548.25      61.050773      61.050773      61.050773      0.79385528    -302.69193     -781.31824     -363.49456    
    157000   314000         463.43294      314.228        22275.25       21232.305      11105.119      10127.186      3795.9425      3776.7039      10104.227      0             -7549.6877      0              0             -255.39951      227583.42      61.053918      61.053918      61.053918      0.79373259     407.55069      139.84576      395.28756    
    158000   316000         470.05761     -65.237135      20882.892      21100.089      11263.865      9836.2239      3693.9823      3597.3888      10054.658      0             -7509.8052      0              0             -254.61226      228287.11      61.116779      61.116779      61.116779      0.79128595    -415.38269      466.68348     -247.01219    
    159000   318000         470.38236      24.21168       21157.721      21077.642      11271.647      9805.9955      3736.8135      3632.6667      10001.184      0             -7564.6688      0              0             -256.29828      226785.35      60.982468      60.982468      60.982468      0.79652578    -150.57923      13.603126      209.61114    
    160000   320000         471.09482     -182.12981      21003.29       21606.749      11288.719      10318.03       3970.1355      3764.9454      10118.003      0             -7535.0544      0              0             -255.84072      227190.94      61.018801      61.018801      61.018801      0.79510379     51.559475      25.325395     -623.2743     
    161000   322000         465.31206      129.03741      21473.218      21048.878      11150.148      9898.73        3793.7613      3682.4906      10040.861      0             -7618.3829      0              0             -257.77381      225487.2       60.865888      60.865888      60.865888      0.80111146    -103.24528      55.89099       434.46651    
    162000   324000         461.87417      77.36185       21135.145      20881.176      11067.767      9813.4095      3717.6599      3652.3514      10091.176      0             -7647.7775      0              0             -258.21612      225100.95      60.831115      60.831115      60.831115      0.80248607    -351.13949      96.342354      486.88268    
    163000   326000         463.186        58.815452      21268.979      21076.406      11099.202      9977.2035      3884.0327      3711.9223      10004.791      0             -7623.542       0              0             -258.89942      224506.86      60.777552      60.777552      60.777552      0.80460963     348.23544      133.16122     -304.95031    
    164000   328000         461.27948      64.019363      21377.102      21165.988      11053.517      10112.472      3926.802       3759.9001      9983.3859      0             -7557.6163      0              0             -257.05784      226115.24      60.922345      60.922345      60.922345      0.79888635    -110.01733      684.79864     -382.72323    
    165000   330000         464.99787     -682.47641      18688.816      20918.166      11142.619      9775.5462      3787.2878      3681.2123      9950.4721      0             -7643.4259      0              0             -259.50519      223982.78      60.730223      60.730223      60.730223      0.80649225    -108.15901     -1089.0521     -850.21809    
    166000   332000         462.45345     -431.43255      19515.834      20944.259      11081.648      9862.6108      3781.7962      3672.1032      10002.938      0             -7594.2266      0              0             -256.03074      227022.33      61.003702      61.003702      61.003702      0.79569433    -45.717215     -854.17613     -394.4043     
    167000   334000         460.86114      229.98943      21681.494      20931.209      11043.492      9887.7172      3885.1672      3718.8207      9976.0356      0             -7692.3063      0              0             -259.84736      223687.84      60.703555      60.703555      60.703555      0.80755565     341.37288      5.1821037      343.41331    
    168000   336000         460.5132       131.44429      21263.249      20834.985      11035.154      9799.8308      3811.0797      3697.6097      9997.1353      0             -7705.994       0              0             -260.17559      223405.64      60.678017      60.678017      60.678017      0.80857572     356.70923      30.835978      6.7876512    
    169000   338000         460.37219     -109.32325      20642.224      21002.458      11031.775      9970.6825      3814.0526      3746.0602      9993.4867      0             -7582.917       0              0             -257.25532      225941.66      60.906752      60.906752      60.906752      0.79950008     13.275356     -918.4614       577.21629    
    170000   340000         464.32586     -127.32417      20504.679      20928.859      11126.516      9802.3429      3763.2709      3628.4324      9914.0497      0             -7503.4101      0              0             -254.44709      228435.29      61.130001      61.130001      61.130001      0.79077264    -766.53858      688.69178     -304.12571    
    171000   342000         468.07008      788.20671      23934.072      21319.945      11216.238      10103.708      3827.1999      3650.5974      10174.387      0             -7548.4766      0              0             -255.59363      227410.58      61.038458      61.038458      61.038458      0.79433586     1107.0753      729.71429      527.83051    
    172000   344000         464.48156     -135.17643      20709.086      21157.134      11130.247      10026.887      3772.5956      3668.8823      10064.341      0             -7478.9319      0              0             -255.74853      227272.84      61.026133      61.026133      61.026133      0.79481726    -157.00501     -486.20847      237.6842     
    173000   346000         471.81288     -267.87242      20542.848      21428.903      11305.926      10122.977      3850.6831      3751.1068      10058.254      0             -7537.0663      0              0             -256.27355      226807.23      60.984429      60.984429      60.984429      0.79644894    -1128.0144      369.81595     -45.418852    
    174000   348000         464.62006     -415.53888      19803.714      21171.343      11133.566      10037.777      3818.8953      3750.4008      10089.121      0             -7620.6396      0              0             -257.56086      225673.63      60.882658      60.882658      60.882658      0.80044966    -370.5654      -462.52318     -413.52807    
    175000   350000         468.51412      259.05631      22204.468      21349.646      11226.878      10122.767      3868.9566      3781.5758      10054.964      0             -7582.7294      0              0             -256.89453      226258.98      60.935251      60.935251      60.935251      0.79837883     308.1673       350.76593      118.2357     
    176000   352000         458.76555     -152.49714      20526.822      21027.532      10993.276      10034.256      3838.3833      3760.7269      10019.975      0             -7584.8296      0              0             -258.17397      225137.7       60.834425      60.834425      60.834425      0.80235508    -256.6868       230.03572     -430.84035    
    177000   354000         458.85315      133.78477      21251.786      20818.04       10995.375      9822.6646      3735.9875      3653.1814      10146.58       0             -7713.0848      0              0             -261.46124      222307.12      60.578399      60.578399      60.578399      0.81257128    -375.74632      601.13659      175.96404    
    178000   356000         469.30242      228.53284      21835.162      21082.279      11245.768      9836.5104      3714.2072      3676.974       10069.622      0             -7624.2925      0              0             -257.31032      225893.37      60.902412      60.902412      60.902412      0.799671       222.40544     -85.612051      548.80513    
    179000   358000         463.29178      132.31382      21449.751      21012.526      11101.737      9910.7888      3799.9446      3663.2516      9988.5466      0             -7540.9539      0              0             -256.52877      226581.58      60.964198      60.964198      60.964198      0.79724211     511.7894      -315.09272      200.24479    
    180000   360000         472.38322     -54.664322      20946.989      21126.633      11319.592      9807.0411      3739.0767      3609.5709      10010.87       0             -7552.4765      0              0             -257.94437      225338.1       60.85247       60.85247       60.85247       0.80164153    -22.073673      104.607       -246.52629    
    181000   362000         461.13576      124.32261      21492.657      21078.392      11050.073      10028.319      3743.0651      3704.9482      10086.477      0             -7506.1707      0              0             -254.39495      228482.11      61.134177      61.134177      61.134177      0.7906106      211.80285      55.943402      105.22158    
    182000   364000         454.54424     -206.37628      20152.436      20834.409      10892.122      9942.2874      3803.5156      3716.827       9963.9906      0             -7542.0458      0              0             -256.5245       226585.35      60.964536      60.964536      60.964536      0.79722885    -486.56348     -584.08706      451.52169    
    183000   366000         464.36374     -139.4664       20618.129      21072.7        11127.424      9945.2763      3857.8871      3776.3745      10014.98       0             -7703.9653      0              0             -260.07832      223489.19      60.68558       60.68558       60.68558       0.80827344    -415.19434     -240.86449      237.65962    
    184000   368000         465.51669     -105.48372      20648.507      20995.158      11155.052      9840.1067      3812.6315      3677.7012      10043.778      0             -7694.0045      0              0             -257.94637      225336.35      60.852313      60.852313      60.852313      0.80164774     51.63545      -245.55594     -122.53066    
    185000   370000         458.76139      262.21785      21654.577      20795.367      10993.176      9802.1912      3762.2189      3666.7351      9969.4192      0             -7596.182       0              0             -258.70209      224678.1       60.793001      60.793001      60.793001      0.80399638    -55.614151      88.951536      753.31617    
    186000   372000         463.50074      215.99927      21739.14       21033.286      11106.744      9926.5417      3786.6583      3808.7943      9981.0748      0             -7649.9857      0              0             -259.40236      224071.57      60.738247      60.738247      60.738247      0.80617268     529.69206     -230.42787      348.73362    
    187000   374000         464.7008       477.95029      22759.005      21188.683      11135.501      10053.182      3784.6702      3789.2673      10087.463      0             -7608.2184      0              0             -258.00639      225283.93      60.847593      60.847593      60.847593      0.80183428     567.01025      521.6282       345.21241    
    188000   376000         461.91035     -179.58638      20153.846      20744.877      11068.634      9676.243       3669.0207      3628.7947      9965.9892      0             -7587.5617      0              0             -257.57269      225663.26      60.881726      60.881726      60.881726      0.80048642    -347.41006     -329.31264      137.96358    
    189000   378000         471.064        55.155643      21246.526      21066.296      11287.98       9778.3153      3737.8015      3678.8497      10035.559      0             -7673.8945      0              0             -259.41687      224059.04      60.737115      60.737115      60.737115      0.80621776    -85.651632     -583.16546      834.28403    
    190000   380000         465.89933     -102.3465       20880.398      21220.451      11164.221      10056.23       3877.9069      3623.3281      10060.899      0             -7505.9045      0              0             -255.13143      227822.55      61.075295      61.075295      61.075295      0.79289945     153.14386     -782.16297      321.97959    
    191000   382000         466.12167      30.121636      21113.142      21014.557      11169.549      9845.0088      3796.9689      3662.1691      10027.422      0             -7641.5516      0              0             -259.00314      224416.95      60.769438      60.769438      60.769438      0.80493197     573.33241     -646.55397      163.58647    
    192000   384000         458.50237      268.34911      21548.973      20664.784      10986.969      9677.8149      3676.4055      3587.3311      9978.2326      0             -7564.1542      0              0             -257.27141      225927.53      60.905482      60.905482      60.905482      0.7995501      327.78869     -234.77084      712.02947    
    193000   386000         462.1944      -32.569222      20799.581      20906.419      11075.44       9830.9782      3793.7719      3672.6938      9980.2844      0             -7615.7719      0              0             -258.41581      224927         60.815442      60.815442      60.815442      0.80310668    -566.01866     -332.86399      801.17499    
    194000   388000         464.76913      382.30746      21998.136      20748.206      11137.138      9611.068       3690.1929      3606.172       9984.7768      0             -7670.0738      0              0             -259.27672      224180.15      60.748056      60.748056      60.748056      0.80578222     789.75289      634.67637     -277.50687    
    195000   390000         450.52569      93.765653      20874.393      20568.364      10795.826      9772.5379      3731.7755      3711.8724      10012.172      0             -7683.2816      0              0             -259.72776      223790.85      60.712871      60.712871      60.712871      0.80718395     280.99121     -377.74027      378.04602    
    196000   392000         456.17326      122.90413      21107.376      20703.349      10931.158      9772.1916      3777.0798      3644.6648      10015.112      0             -7664.6645      0              0             -257.86525      225407.24      60.858693      60.858693      60.858693      0.80139563     1.6924439     -53.71992       420.73988    
    197000   394000         463.83493     -150.81896      20488.188      20983.138      11114.752      9868.3856      3784.6712      3651.685       10059.708      0             -7627.6783      0              0             -258.30438      225024.04      60.824186      60.824186      60.824186      0.80276037     169.38408     -535.69833     -86.142624    
    198000   396000         461.25783     -551.07495      19087.618      20891.518      11052.998      9838.5201      3791.7963      3736.4421      10036.537      0             -7726.2551      0              0             -258.96124      224453.26      60.772715      60.772715      60.772715      0.80480174    -1039.975      -320.99479     -292.25508    
    199000   398000         459.31787      66.904086      21037.285      20817.705      11006.511      9811.1937      3742.5492      3618.9117      10062.26       0             -7612.527       0              0             -258.28281      225042.83      60.825879      60.825879      60.825879      0.80269333     21.216859      30.082262      149.41314    
    200000   400000         454.48591      495.90883      22192.569      20564.664      10890.724      9673.9402      3779.2707      3644.646       9911.0408      0             -7661.0173      0              0             -258.23171      225087.37      60.829891      60.829891      60.829891      0.8025345      789.95749      345.53025      352.23877    
    201000   402000         456.12874      213.41178      21391.588      20692.71       10930.091      9762.6191      3856.8107      3628.1068      9930.9636      0             -7653.262       0              0             -258.85335      224546.81      60.781157      60.781157      60.781157      0.80446646     241.60846     -418.43851      817.06538    
    202000   404000         464.40128      9.8942962      20976.63       20944.345      11128.323      9816.022       3809.9047      3608.8361      10081.939      0             -7684.6582      0              0             -259.79508      223732.85      60.707626      60.707626      60.707626      0.80739318    -45.854251      71.044889      4.4922506    
    203000   406000         459.82369     -252.13004      19923.395      20754.565      11018.632      9735.9329      3695.2232      3754.4854      9946.3633      0             -7660.139       0              0             -257.14102      226042.1       60.915775      60.915775      60.915775      0.79914485    -169.85561     -33.585673     -552.94882    
    204000   408000         467.15796      506.79661      22739.492      21072.718      11194.381      9878.3367      3777.8397      3623.8544      10024.587      0             -7547.9448      0              0             -257.74686      225510.77      60.868009      60.868009      60.868009      0.8010277      634.02638      924.03072     -37.667259    
[...]
   1952000   3904000        300.45852     -139.52157      11239.818      11647.039      7199.807       4447.2318      2524.955       2349.4311      8718.7556      0             -9145.9098      0              0             -290.43447      200130.15      58.493038      58.493038      58.493038      0.90261449    -471.3397       436.48753     -383.71256    
   1953000   3906000        306.10191     -326.86484      10967.868      11927.474      7335.0381      4592.4357      2495.1132      2458.8569      8711.0926      0             -9072.627       0              0             -288.74341      201302.23      58.607006      58.607006      58.607006      0.89735903    -496.2033      -527.99517      43.603959    
   1954000   3908000        312.8454       125.14584      12420.773      12055.595      7496.6306      4558.9642      2482.3257      2420.8415      8788.9826      0             -9133.1855      0              0             -290.50126      200084.14      58.488554      58.488554      58.488554      0.90282208    -176.76921     -95.613402      647.82012    
   1955000   3910000        306.53387      341.94294      12902.872      11896.723      7345.389       4551.3338      2448.3259      2445.595       8709.5087      0             -9052.0958      0              0             -288.08974      201758.99      58.651298      58.651298      58.651298      0.89532754     128.08245      95.709849      802.03652    
   1956000   3912000        305.05517     -206.05254      11377.354      11983.345      7309.9552      4673.3895      2486.092       2423.5811      8820.9179      0             -9057.2015      0              0             -288.23612      201656.52      58.641368      58.641368      58.641368      0.89578246     165.97196     -3.6534881     -780.47609    
   1957000   3914000        302.35471      102.86528      12171.316      11868.136      7245.245       4622.8908      2413.7807      2482.3328      8762.3068      0             -9035.5295      0              0             -287.61067      202095.06      58.683846      58.683846      58.683846      0.89383866     269.12606      159.06133     -119.59156    
   1958000   3916000        308.33868      82.774881      12273.303      12029.57       7388.6372      4640.933       2466.1088      2447.6011      8766.8989      0             -9039.6758      0              0             -287.88666      201901.32      58.665087      58.665087      58.665087      0.89469639    -172.19374      270.29254      150.22584    
   1959000   3918000        302.66218     -244.71514      11038.508      11754.974      7252.6126      4502.361       2452.7879      2438.3926      8736.2133      0             -9125.0329      0              0             -289.53552      200751.52      58.553511      58.553511      58.553511      0.89982074    -835.03783     -0.045003878    100.93741    
   1960000   3920000        302.03133      454.34563      13174.249      11838.962      7237.4959      4601.4657      2496.4638      2444.4678      8780.2388      0             -9119.7047      0              0             -288.43523      201517.32      58.627872      58.627872      58.627872      0.89640124    -2.3305329      738.68418      626.68323    
   1961000   3922000        301.52386     -222.61175      11208.18       11863.087      7225.3355      4637.7518      2530.5792      2460.3614      8704.6407      0             -9057.8294      0              0             -288.14095      201723.13      58.647823      58.647823      58.647823      0.89548669    -738.06427     -155.64449      225.87352    
   1962000   3924000        305.35196     -278.5273       11106.592      11922.188      7317.0672      4605.1204      2569.2491      2408.9807      8774.8502      0             -9147.9597      0              0             -289.48721      200785.02      58.556769      58.556769      58.556769      0.89967059    -350.64469      60.101118     -545.03832    
   1963000   3926000        305.94787     -203.54503      11312.666      11912.064      7331.3469      4580.7173      2509           2420.2639      8742.7042      0             -9091.2509      0              0             -287.86014      201919.92      58.666888      58.666888      58.666888      0.89461397    -714.00834      4.2338427      99.139398    
   1964000   3928000        307.69897      294.82192      12837.128      11971.845      7373.308       4598.5368      2490.6162      2411.442       8776.4754      0             -9079.9968      0              0             -288.82705      201243.94      58.601348      58.601348      58.601348      0.89761896     743.77945      243.19928     -102.51297    
   1965000   3930000        305.81226      328.32462      12900.026      11939.457      7328.0972      4611.3595      2510.9817      2429.2164      8752.4914      0             -9081.33        0              0             -289.7418       200608.59      58.539612      58.539612      58.539612      0.90046182     185.47425      667.97154      131.52807    
   1966000   3932000        300.89737      21.262745      11928.278      11865.91       7210.323       4655.587       2488.9081      2447.2793      8783.2251      0             -9063.8255      0              0             -288.9975       201125.25      58.589825      58.589825      58.589825      0.89814866     115.29415     -11.624759     -39.881151    
   1967000   3934000        307.32605     -127.59855      11462.25       11837.21       7364.3718      4472.8377      2447.3647      2444.7824      8686.8695      0             -9106.1789      0              0             -288.46793      201494.47      58.625656      58.625656      58.625656      0.89650289    -433.40416     -76.446007      127.05451    
   1968000   3936000        301.59804      465.57708      13277.5        11905.277      7227.1129      4678.1644      2520.1548      2444.1678      8770.0383      0             -9056.1965      0              0             -287.60966      202095.76      58.683914      58.683914      58.683914      0.89383555     305.14195      276.83951      814.74977    
   1969000   3938000        304.73764     -287.74817      11041.104      11888.321      7302.3464      4585.9749      2501.8051      2401.5924      8756.4209      0             -9073.8435      0              0             -287.90842      201886.05      58.663608      58.663608      58.663608      0.89476403     139.12197     -731.68289     -270.68358    
   1970000   3940000        303.33263      229.30888      12478.699      11802.304      7268.6785      4533.6254      2449.0625      2449.7561      8719.8297      0             -9085.0229      0              0             -287.38014      202257.17      58.699532      58.699532      58.699532      0.89312225     283.60466      154.84363      249.47835    
   1971000   3942000        301.69739      439.76853      12929.379      11639.795      7229.4937      4410.3014      2487.8819      2362.8733      8696.5224      0             -9136.9762      0              0             -289.07527      201071.14      58.58457       58.58457       58.58457       0.89839038     177.19941      621.04915      521.05703    
   1972000   3944000        302.93651     -197.3346       11319.004      11898.026      7259.1863      4638.8394      2552.5471      2439.2021      8747.0626      0             -9099.9724      0              0             -288.89812      201194.44      58.596542      58.596542      58.596542      0.89783982    -307.36982     -185.5018      -99.132173    
   1973000   3946000        299.44062     -430.30634      10397.698      11668.2        7175.4152      4492.7852      2453.8347      2377.6429      8725.7193      0             -9064.4117      0              0             -287.10361      202451.98      58.718372      58.718372      58.718372      0.89226284    -376.85498     -605.45839     -308.60566    
   1974000   3948000        302.54266     -368.46297      10697.938      11780.491      7249.7487      4530.7421      2475.5624      2405.8519      8717.5208      0             -9068.1929      0              0             -288.52346      201455.7       58.621895      58.621895      58.621895      0.89667545     5.0604445     -28.57451      -1081.8748    
   1975000   3950000        300.34867     -659.72494      9841.1904      11789.659      7197.1746      4592.4843      2437.6886      2493.0532      8723.9767      0             -9062.2343      0              0             -287.01598      202513.79      58.724348      58.724348      58.724348      0.8919905     -376.77827     -1021.6679     -580.7286     
   1976000   3952000        303.26866      509.34892      13314.5        11821.733      7267.1456      4554.5871      2458.9925      2467.0998      8738.2699      0             -9109.7751      0              0             -289.241        200955.93      58.573379      58.573379      58.573379      0.89890544     719.75503     -72.948377      881.24013    
   1977000   3954000        304.8489      -162.84299      11439.035      11917.73       7305.0125      4612.7179      2459.6156      2460.9486      8778.5313      0             -9086.3775      0              0             -288.36743      201564.7       58.632466      58.632466      58.632466      0.89619054    -364.54567      26.600328     -150.58362    
   1978000   3956000        299.98264      225.71571      12453.839      11789.335      7188.4036      4600.9311      2489.6682      2397.8435      8781.0069      0             -9067.5875      0              0             -287.93913      201864.52      58.661523      58.661523      58.661523      0.89485945     176.53658      105.4135       395.19704    
   1979000   3958000        301.22953      414.41303      12914.484      11697.063      7218.2825      4478.7807      2420.7024      2402.4666      8716.4994      0             -9060.8877      0              0             -288.55538      201433.41      58.619733      58.619733      58.619733      0.89677465    -297.79909      624.32438      916.7138     
   1980000   3960000        302.31283     -569.4423       10094.858      11777.278      7244.2413      4533.0363      2466.3973      2377.5776      8694.6079      0             -9005.5466      0              0             -286.91425      202585.6       58.731288      58.731288      58.731288      0.89167434    -674.30728     -361.45345     -672.56616    
   1981000   3962000        301.05021      518.95081      13229.758      11711.105      7213.9856      4497.1191      2376.48        2483.9388      8739.7326      0             -9103.0323      0              0             -289.67038      200658.05      58.544423      58.544423      58.544423      0.90023986     634.72446      425.11423      497.01375    
   1982000   3964000        299.2176      -460.01314      10303.414      11653.724      7170.0711      4483.6532      2505.9154      2352.6821      8745.7867      0             -9120.731       0              0             -288.78401      201273.94      58.604259      58.604259      58.604259      0.8974852     -547.24724      50.110645     -882.90283    
   1983000   3966000        303.38623     -125.50394      11393.304      11761.604      7269.9629      4491.6412      2491.6912      2410.4344      8703.6367      0             -9114.1211      0              0             -288.86293      201218.95      58.598922      58.598922      58.598922      0.89773046    -88.583738      142.42711     -430.3552     
   1984000   3968000        297.46445     -20.872884      11595.776      11657.07       7128.061       4529.0086      2489.3536      2365.1509      8766.1478      0             -9091.6435      0              0             -288.6698       201353.57      58.611987      58.611987      58.611987      0.89713023     49.105569      116.07365     -227.79787    
   1985000   3970000        300.707       -219.75133      11045.85       11688.791      7205.7613      4483.0294      2495.1034      2405.1624      8674.4071      0             -9091.6434      0              0             -289.7326       200614.96      58.540232      58.540232      58.540232      0.90043322    -798.87529      295.28196     -155.66064    
   1986000   3972000        302.72186      310.61603      12693.702      11776.484      7254.0427      4522.4414      2456.8313      2403.333       8726.529       0             -9064.2518      0              0             -287.07018      202475.56      58.720652      58.720652      58.720652      0.89215895     511.03755      256.51816      164.29239    
   1987000   3974000        298.47644     -37.449661      11600.312      11710.613      7152.3109      4558.3018      2448.3793      2388.0713      8783.4068      0             -9061.5556      0              0             -287.80936      201955.54      58.670338      58.670338      58.670338      0.89445616     330.17387     -169.90533     -272.61752    
   1988000   3976000        299.01132     -10.95548       11709.641      11741.809      7165.1282      4576.6807      2453.1669      2412.2891      8771.7601      0             -9060.5354      0              0             -288.70035      201332.26      58.609919      58.609919      58.609919      0.89722521    -357.81137      149.85904      175.0859     
   1989000   3978000        301.96752     -375.10927      10732.578      11832.151      7235.9668      4596.1841      2480.8658      2425.1431      8751.4156      0             -9061.2403      0              0             -289.18149      200997.29      58.577397      58.577397      58.577397      0.89872047    -134.429       -546.9528      -443.94603    
   1990000   3980000        298.35054      18.255971      11823.987      11770.205      7149.294       4620.9106      2478.2873      2410.265       8783.833       0             -9051.4747      0              0             -287.74224      202002.65      58.6749        58.6749        58.6749        0.89424757     361.53575     -360.97007      54.202225    
   1991000   3982000        303.89761      298.56715      12662.947      11783.351      7282.2171      4501.1344      2500.7483      2336.5807      8728.6153      0             -9064.8099      0              0             -287.73679      202006.47      58.67527       58.67527       58.67527       0.89423065    -185.62944      717.90007      363.43082    
   1992000   3984000        302.59722      80.642015      11963.74       11727.809      7251.056       4476.7526      2491.343       2322.4759      8797.901       0             -9134.9673      0              0             -289.74204      200608.43      58.539597      58.539597      58.539597      0.90046255    -105.27844      174.03018      173.1743     
   1993000   3986000        304.57219      74.030081      11989.987      11773.686      7298.3817      4475.3047      2461.2797      2373.2793      8795.3738      0             -9154.6281      0              0             -290.12652      200342.58      58.513726      58.513726      58.513726      0.90165745     248.69787     -424.69754      398.08991    
   1994000   3988000        303.96053     -319.92443      10834.904      11775.074      7283.7248      4491.3496      2445.8545      2369.9674      8797.417       0             -9121.8893      0              0             -288.45456      201503.82      58.626562      58.626562      58.626562      0.89646132    -660.72539     -224.43531     -74.612578    
   1995000   3990000        302.208        305.33963      12633.542      11741.27       7241.7293      4499.5409      2460.4676      2380.1633      8746.7396      0             -9087.8296      0              0             -290.08306      200372.6       58.516648      58.516648      58.516648      0.90152237     809.56242     -685.29804      791.75451    
   1996000   3992000        300.6096       196.85471      12206.933      11630.047      7203.4274      4426.6193      2369.5079      2389.1797      8768.4418      0             -9100.5102      0              0             -289.26259      200940.93      58.571921      58.571921      58.571921      0.89897253     410.455       -145.59855      325.70767    
   1997000   3994000        300.74511     -173.08799      11178.844      11686.579      7206.6745      4479.9042      2445.4387      2376.1731      8736.1019      0             -9077.8094      0              0             -288.97918      201138         58.591063      58.591063      58.591063      0.89809175    -283.32594      7.8277425     -243.76577    
   1998000   3996000        300.8949      -388.99214      10511.363      11657.032      7210.264       4446.7684      2406.2868      2414.4416      8685.4509      0             -9059.411       0              0             -287.81798      201949.49      58.669752      58.669752      58.669752      0.89448296    -14.408275     -654.87644     -497.6917     
   1999000   3998000        297.61373      464.73123      13046.748      11679.823      7131.638       4548.1847      2437.329       2383.8454      8770.1089      0             -9043.0986      0              0             -288.19974      201681.98      58.643836      58.643836      58.643836      0.89566938     196.53903      883.00931      314.64535    
   2000000   4000000        300.93862      440.1734       12884.376      11587.145      7211.3116      4375.8331      2419.4472      2322.4554      8676.7043      0             -9042.7738      0              0             -287.63571      202077.47      58.682143      58.682143      58.682143      0.89391649     461.7166       707.10808      151.69551    
Loop time of 14354.2 on 8 procs for 2000000 steps with 8040 atoms

Performance: 24.077 ns/day, 0.997 hours/ns, 139.332 timesteps/s, 1.120 Matom-step/s
98.3% CPU use with 8 MPI tasks x 1 OpenMP threads

MPI task timing breakdown:
Section |  min time  |  avg time  |  max time  |%varavg| %total
---------------------------------------------------------------
Pair    | 10351      | 10702      | 11212      | 328.7 | 74.56
Bond    | 453.09     | 464.9      | 477.53     |  34.9 |  3.24
Neigh   | 1003.3     | 1003.7     | 1004.2     |   0.9 |  6.99
Comm    | 1397.4     | 1910.9     | 2267.9     | 781.0 | 13.31
Output  | 10.683     | 11.224     | 11.708     |  10.0 |  0.08
Modify  | 180.16     | 182.76     | 185.36     |  12.6 |  1.27
Other   |            | 78.42      |            |       |  0.55

Nlocal:           1005 ave        1013 max         993 min
Histogram: 1 0 0 1 1 0 0 2 2 1
Nghost:        8181.38 ave        8237 max        8115 min
Histogram: 1 0 1 1 0 1 1 1 1 1
Neighs:         340773 ave      357647 max      328566 min
Histogram: 2 0 1 1 1 1 1 0 0 1

Total # of neighbors = 2726181
Ave neighs/atom = 339.07724
Ave special neighs/atom = 5.9701493
Neighbor list builds = 63865
Dangerous builds = 0

# --- Cleanup ---
unfix npt_fix

undump dump_npt

# --- Write Output ---
write_dump all custom npt_cool_last.dump id type mol x y z xu yu zu vx vy vz modify sort id
write_data /home/arz2/PolyJarvis/data/cis-PBD1/lammps/equil/npt_cool/npt_cool_out.data
System init for write_data ...
Generated 3 of 3 mixed pair_coeff terms from arithmetic mixing rule

print "STAGE COMPLETE: NPT T=480.0->300.0K P=1.0->1.0atm steps=2000000"
STAGE COMPLETE: NPT T=480.0->300.0K P=1.0->1.0atm steps=2000000
quit
    8237 max        8115 min
Histogram: 1 0 1 1 0 1 1 1 1 1
Neighs:         340773 ave      357647 max      328566 min
Histogram: 2 0 1 1 1 1 1 0 0 1

Total # of neighbors = 2726181
Ave neighs/atom = 339.07724
Ave special neighs/atom = 5.9701493
Neighbor list builds = 63865
Dangerous builds = 0
System init for write_data ...
Generated 3 of 3 mixed pair_coeff terms from arithmetic mixing rule
STAGE COMPLETE: NPT T=480.0->300.0K P=1.0->1.0atm steps=2000000
