LAMMPS (22 Jul 2025 - Update 3)
KOKKOS mode with Kokkos version 4.6.2 is enabled
  will use up to 1 GPU(s) per node
  using 1 OpenMP thread(s) per MPI task
Reading data file ...
  orthogonal box = (6.2276347 6.2276347 6.2276347) to (42.15786 42.15786 42.15786)
  1 by 1 by 1 MPI processor grid
  reading atoms ...
  3620 atoms
  reading velocities ...
  3620 velocities
  scanning bonds ...
  4 = max bonds/atom
  scanning angles ...
  12 = max angles/atom
  scanning dihedrals ...
  24 = max dihedrals/atom
  scanning impropers ...
  10 = max impropers/atom
  orthogonal box = (6.2276347 6.2276347 6.2276347) to (42.15786 42.15786 42.15786)
  1 by 1 by 1 MPI processor grid
  reading bonds ...
  3610 bonds
  reading angles ...
  7200 angles
  reading dihedrals ...
  10710 dihedrals
  reading impropers ...
  4800 impropers
Finding 1-2 1-3 1-4 neighbors ...
  special bond factors lj:    0        0        1       
  special bond factors coul:  0        0        1       
     4 = max # of 1-2 neighbors
     6 = max # of 1-3 neighbors
    10 = max # of special neighbors
  special bonds CPU = 0.002 seconds
  read_data CPU = 0.175 seconds
Finding SHAKE clusters ...
     590 = # of size 2 clusters
     600 = # of size 3 clusters
      10 = # of size 4 clusters
       0 = # of frozen angles
  find clusters CPU = 0.001 seconds
PPPM Kokkos initialization ...
  using 12-bit tables for long-range coulomb
  G vector (1/distance) = 0.29528808
  grid = 24 24 24
  stencil order = 5
  estimated absolute RMS force accuracy = 0.00037836216
  estimated relative force accuracy = 1.1394264e-06
  using double precision cuFFT
  3d grid and FFT values/proc = 29791 13824
Generated 6 of 6 mixed pair_coeff terms from sixthpower/sixthpower mixing rule
Neighbor list info ...
  update: every = 1 steps, delay = 0 steps, check = yes
  max neighbors/atom: 4000, page size: 100000
  master list distance cutoff = 11.5
  ghost atom cutoff = 11.5
  binsize = 11.5, bins = 4 4 4
  1 neighbor lists, perpetual/occasional/extra = 1 0 0
  (1) pair lj/class2/coul/long/kk, perpetual
      attributes: full, newton off, kokkos_device
      pair build: full/bin/kk/device
      stencil: full/bin/3d
      bin: kk/device
Setting up Verlet run ...
  Unit style    : real
  Current step  : 0
  Time step     : 1
Per MPI rank memory allocation (min/avg/max) = 24.92 | 24.92 | 24.92 Mbytes
   Step          Time           Temp          Press         Enthalpy        TotEng         KinEng         PotEng         E_bond        E_angle        E_dihed        E_impro         E_vdwl         E_coul         E_long         E_tail         Volume           Lx             Ly             Lz          Density          Pxx            Pyy            Pzz      
         0   0              368.36211     -3.9398327     -916.63039     -913.96516      3307.5946     -4221.5598      692.21962      2008.3296     -2081.7111      15.437357     -985.99346     -1620.8711     -2248.9708     -272.82288      46385.243      35.930226      35.930226      35.930226      1.343162      -791.91729     -431.08983      1211.1876    
       100   100            305.83898     -164.19748     -1608.3441     -1497.0215      2746.1874     -4243.2088      675.91832      1981.7177     -2058.2931      15.293187     -988.62719     -1618.7587     -2250.4591     -272.21968      46488.027      35.956745      35.956745      35.956745      1.3401923      400.36722     -544.13518     -348.82447    
       200   200            298.39398     -1209.5339     -2396.3389     -1569.2411      2679.3373     -4248.5784      688.39501      1982.96       -2068.0059      14.818371     -995.36581     -1620.0082     -2251.3719     -269.8968       46888.128      36.059605      36.059605      36.059605      1.3287564     -1452.741      -2197.1815      21.320668    
       300   300            302.43164     -1184.7084     -2383.1273     -1566.719       2715.5922     -4282.3112      702.88183      1900.5411     -2071.411       14.322123     -960.30302     -1620.9853     -2247.3569     -267.8185       47251.986      36.15264       36.15264       36.15264       1.3185244     -671.22414     -1582.7979     -1300.1031    
       400   400            299.28478     -1640.3026     -2668.688      -1527.2789      2687.336      -4214.6148      710.28565      1950.2556     -2065.4952      16.185805     -965.60933     -1615.4096     -2244.8277     -265.22787      47713.522      36.269967      36.269967      36.269967      1.3057702     -2498.3722     -670.90509     -1751.6306    
       500   500            303.93681     -1332.1251     -2374.6089     -1442.5174      2729.1074     -4171.6248      693.75588      1998.6191     -2064.8686      15.488311     -950.30723     -1617.2706     -2247.0417     -263.76853      47977.503      36.336733      36.336733      36.336733      1.2985857     -575.67178     -1358.0311     -2062.6725    
       600   600            300.65176     -1825.4683     -2711.7301     -1429.7675      2699.6103     -4129.3779      699.40308      1989.1921     -2067.3403      15.070296     -901.05268     -1617.0694     -2247.5809     -262.80612      48153.201      36.381035      36.381035      36.381035      1.2938475     -1191.2618     -2648.8885     -1636.2546    
       700   700            307.23161     -1866.9247     -2785.0241     -1469.4378      2758.692      -4228.1299      692.90043      1963.7562     -2083.7699      15.563796     -952.93713     -1614.7931     -2248.8502     -261.90512      48318.856      36.422706      36.422706      36.422706      1.2894117     -2422.9224     -2377.6499     -800.20176    
       800   800            293.91023     -1577.9443     -2705.1429     -1592.8954      2639.0768     -4231.9722      672.67611      1959.6776     -2081.3078      15.551396     -944.05324     -1610.3995     -2244.1168     -261.83444      48331.899      36.425984      36.425984      36.425984      1.2890637     -1257.0783     -1844.6416     -1632.113     
       900   900            294.38745     -867.9385      -2206.1692     -1594.7591      2643.3618     -4238.1209      649.75833      1970.9195     -2083.6621      15.08426      -940.19363     -1605.7584     -2244.269      -261.99493      48302.293      36.418544      36.418544      36.418544      1.2898538     -1031.7581     -1303.8417     -268.21569    
      1000   1000           298.4888      -1574.3869     -2643.2422     -1535.9067      2680.1886     -4216.0954      654.75086      1972.0571     -2067.1064      15.714824     -925.31816     -1615.6653     -2250.5283     -262.403        48227.177      36.399656      36.399656      36.399656      1.2918628     -2127.799      -1711.3881     -883.9737     
      1100   1100           300.02367     -1435.1275     -2473.9738     -1466.8198      2693.9706     -4160.7904      683.56581      2018.7076     -2074.751       15.45351      -941.08477     -1611.5934     -2251.0881     -262.98507      48120.434      36.372781      36.372781      36.372781      1.2947285     -418.06631     -2423.0804     -1464.2358    
      1200   1200           304.10413     -1695.5791     -2626.2582     -1439.3991      2730.6098     -4170.0089      722.04253      1937.5126     -2070.3354      15.193343     -914.62852     -1612.4298     -2247.3636     -263.66678      47996.019      36.341407      36.341407      36.341407      1.2980847     -886.7259      -2065.9996     -2134.0117    
      1300   1300           301.38831     -1975.5937     -2873.7044     -1491.2187      2706.2239     -4197.4426      717.29017      1979.1642     -2081.2951      15.777972     -975.24242     -1606.8868     -2246.2506     -263.73847      47982.972      36.338114      36.338114      36.338114      1.2984377     -1777.3181     -1804.9576     -2344.5054    
      1400   1400           293.20932     -1566.3245     -2662.9298     -1568.5131      2632.7832     -4201.2963      697.60683      1969.7316     -2073.3194      15.307593     -949.69369     -1613.0303     -2247.8989     -264.14083      47909.882      36.319654      36.319654      36.319654      1.3004185     -1069.5412     -2389.4151     -1240.0172    
      1500   1500           297.64278      14.79084      -1538.8672     -1549.1796      2672.5921     -4221.7717      670.7018       1986.9839     -2085.9275      16.044085     -939.45183     -1620.9795     -2249.1427     -264.71026      47806.82       36.293592      36.293592      36.293592      1.303222       188.36636      361.51194     -505.50578    
      1600   1600           301.93471     -293.67787     -1709.1579     -1504.9836      2711.1302     -4216.1138      664.45313      1973.3306     -2075.9228      15.090479     -925.11872     -1617.8645     -2250.082      -265.4646       47670.973      36.259182      36.259182      36.259182      1.3069357     -737.50167     -618.09132      474.55939    
      1700   1700           309.98941     -375.37055     -1721.4522     -1460.4872      2783.4549     -4243.9421      685.09788      1951.1944     -2077.4812      15.701322     -957.87707     -1611.0378     -2249.5397     -265.46934      47670.122      36.258966      36.258966      36.258966      1.3069591     -603.10183     -1139.4821      616.47233    
      1800   1800           301.83494     -1268.1633     -2350.2847     -1466.0502      2710.2343     -4176.2844      706.00228      1969.2825     -2068.306       15.782383     -937.58247     -1613.5067     -2247.9565     -264.6941       47809.739      36.294331      36.294331      36.294331      1.3031424     -778.06381     -1471.1406     -1555.2856    
      1900   1900           293.38279     -241.69203     -1736.6002     -1567.8688      2634.3408     -4202.2096      688.45392      1979.4343     -2078.6839      15.79367      -937.87348     -1619.7748     -2249.5594     -264.36448      47869.349      36.309409      36.309409      36.309409      1.3015196     -716.55958     -1425.0046      1416.4881    
      2000   2000           293.11607     -709.17081     -2107.9155     -1612.6353      2631.9459     -4244.5812      685.65438      1948.9226     -2081.7474      15.904678     -944.85518     -1617.6094     -2250.8508     -264.26302      47887.729      36.314055      36.314055      36.314055      1.3010201     -2384.2798     -186.61626      443.38364    
      2100   2100           297.33804     -2233.3867     -3106.8452     -1545.9922      2669.8558     -4215.848       702.90935      1942.9996     -2072.8408      15.174898     -948.45317     -1608.788      -2246.8498     -264.08178      47920.594      36.32236       36.32236       36.32236       1.3001278     -460.92043     -2829.5133     -3409.7263    
      2200   2200           301.3903      -1744.4876     -2721.0466     -1502.8978      2706.2418     -4209.1396      685.97823      1985.6712     -2076.9463      15.373889     -961.34007     -1612.0776     -2245.799      -264.30421      47880.266      36.312169      36.312169      36.312169      1.3012229     -1016.1381     -1608.4916     -2608.833     
      2300   2300           301.58346     -617.14737     -1916.4157     -1485.9865      2707.9762     -4193.9627      680.69186      1963.3654     -2066.298       15.726555     -924.64485     -1617.1139     -2245.6897     -264.62061      47823.016      36.29769       36.29769       36.29769       1.3027806     -242.50365     -845.61135     -763.32711    
      2400   2400           301.85686     -333.97225     -1705.3219     -1472.245       2710.4312     -4182.6762      714.278        1933.9936     -2055.7224      14.881049     -923.72287     -1618.9883     -2247.3953     -264.4525       47853.418      36.30538       36.30538       36.30538       1.3019529     -678.30674     -938.5957       614.9857     
      2500   2500           299.96399     -1273.1052     -2368.345      -1477.3728      2693.4347     -4170.8075      685.25159      1978.0438     -2070.1375      15.767428     -913.32159     -1620.5674     -2245.8439     -263.7161       47987.042      36.339141      36.339141      36.339141      1.2983275     -1335.7056     -2912.6033      428.99324    
      2600   2600           298.60014     -1180.0903     -2342.9202     -1514.4958      2681.1885     -4195.6843      694.58422      1966.6831     -2082.097       15.545238     -922.8563      -1620.4127     -2247.1308     -262.90505      48135.081      36.376471      36.376471      36.376471      1.2943345     -1004.7002     -1192.1066     -1343.4642    
      2700   2700           292.73188     -1775.3508     -2773.4944     -1524.6024      2628.4962     -4153.0986      751.15304      1938.8434     -2070.4206      15.191514     -925.65754     -1616.0652     -2246.1432     -262.35891      48235.28       36.401695      36.401695      36.401695      1.2916458     -665.7925      -1986.755      -2673.505     
      2800   2800           307.32559     -1685.6524     -2654.5935     -1471.1485      2759.5359     -4230.6845      714.02851      1934.4948     -2083.257       16.465236     -954.63204     -1612.1307     -2245.6533     -262.87935      48139.785      36.377656      36.377656      36.377656      1.2942081     -2794.1749     -1111.2349     -1151.5474    
      2900   2900           308.54575     -538.87347     -1808.139      -1431.2193      2770.492      -4201.7113      660.30779      2009.7315     -2087.9074      15.671687     -942.59798     -1611.3064     -2245.6105     -263.86055      47960.772      36.332509      36.332509      36.332509      1.2990387     -661.60701     -2325.6024      1370.589     
      3000   3000           296.6902       732.71457     -972.3823      -1483.5033      2664.0387     -4147.542       691.68375      1986.4653     -2092.3026      15.069261     -883.49517     -1619.4471     -2245.5155     -264.57428      47831.391      36.299809      36.299809      36.299809      1.3025525      713.23497      534.86802      950.04072    
      3100   3100           294.71188     -1743.533      -2793.1038     -1577.2817      2646.275      -4223.5567      714.83467      1947.363      -2077.2643      15.30367      -960.62192     -1615.5847     -2247.5871     -264.66508      47814.981      36.295657      36.295657      36.295657      1.3029995     -2854.9296     -688.90962     -1686.7597    
      3200   3200           297.06972     -726.49767     -2081.0269     -1576.0711      2667.4465     -4243.5176      655.43747      1970.5983     -2079.7199      15.322194     -934.08595     -1621.3201     -2249.7496     -265.53233      47658.814      36.256099      36.256099      36.256099      1.3072692     -278.67936     -1496.7653     -404.04834    
      3300   3300           300.01079     -868.81725     -2139.4637     -1536.749       2693.8549     -4230.6039      684.63243      1970.6678     -2074.2124      15.556287     -960.45084     -1617.2016     -2249.5956     -266.04381      47567.188      36.23285       36.23285       36.23285       1.3097873     -1616.3924     -565.37732     -424.68205    
      3400   3400           301.12543     -196.67207     -1657.1728     -1520.9123      2703.8635     -4224.7758      687.65071      1933.093      -2085.8007      14.019475     -899.72171     -1621.9505     -2252.0661     -266.38481      47506.297      36.217382      36.217382      36.217382      1.3114661     -961.45025      801.43544     -430.0014     
      3500   3500           303.32551     -973.33308     -2201.8351     -1525.2405      2723.6184     -4248.8589      692.42289      1971.977      -2099.1654      16.884291     -963.64405     -1615.641      -2251.6927     -265.503        47664.078      36.257434      36.257434      36.257434      1.3071248     -1014.5734     -757.7347      -1147.6912    
      3600   3600           298.20369     -1084.1559     -2256.5        -1500.3556      2677.6287     -4177.9842      708.42945      1950.4382     -2075.609       15.633699     -905.94593     -1619.0004     -2251.9303     -264.6205       47823.036      36.297695      36.297695      36.297695      1.3027801     -915.98245     -1924.8178     -411.66739    
      3700   3700           300.99415     -2068.497      -2921.6586     -1470.8343      2702.6847     -4173.519       709.76904      1987.4479     -2072.3069      15.720012     -952.41449     -1612.9231     -2248.8115     -263.13378      48093.238      36.365928      36.365928      36.365928      1.2954607     -2257.4646     -1807.0584     -2140.9681    
      3800   3800           300.67952     -1233.0873     -2309.9412     -1440.753       2699.8596     -4140.6126      682.68941      2023.9996     -2086.4253      16.161245     -914.44077     -1613.9531     -2248.6437     -261.82827      48333.038      36.42627       36.42627       36.42627       1.2890333     -1551.8842     -1468.8812     -678.49661    
      3900   3900           309.56707     -917.18934     -2000.2862     -1351.5645      2779.6626     -4131.2272      681.10388      2018.6802     -2082.163       15.841098     -909.89586     -1609.1407     -2245.6527     -260.93786      48497.967      36.467656      36.467656      36.467656      1.2846497     -276.91987     -1839.6045     -635.04368    
      4000   4000           307.3462      -963.83052     -2004.9772     -1322.4636      2759.721      -4082.1846      677.63532      2054.0455     -2075.3669      16.068575     -896.07137     -1610.7967     -2247.699      -260.63088      48555.091      36.481968      36.481968      36.481968      1.2831383     -2388.2755     -1751.5157      1248.2996    
      4100   4100           303.49943     -619.66272     -1863.8805     -1426.0908      2725.1801     -4151.2709      661.3292       2012.7071     -2079.5912      16.49011      -902.19364     -1611.8273     -2248.1852     -261.232        48443.361      36.453963      36.453963      36.453963      1.2860978     -1012.1626     -1225.2859      378.46037    
      4200   4200           299.45508     -1161.6993     -2295.8196     -1478.8858      2688.8651     -4167.7509      704.10867      1982.9097     -2089.6212      15.927863     -922.13426     -1611.3052     -2247.6365     -262.44805      48218.898      36.397573      36.397573      36.397573      1.2920847     -1940.0458     -703.12964     -841.92238    
      4300   4300           297.30059     -1277.2036     -2402.6881     -1509.0433      2669.5195     -4178.5628      713.15021      1962.5027     -2079.8376      14.970117     -934.28048     -1609.6174     -2245.4503     -263.77384      47976.538      36.33649       36.33649       36.33649       1.2986118     -1725.5765     -983.10056     -1122.9338    
      4400   4400           293.80188     -1268.6989     -2435.0072     -1550.2962      2638.1039     -4188.4002      670.61231      1996.8874     -2091.0783      15.863854     -924.48191     -1609.3223     -2246.8812     -264.66326      47815.311      36.29574       36.29574       36.29574       1.3029906     -642.47736     -1929.2937     -1234.3256    
      4500   4500           292.66743     -1222.3287     -2403.0781     -1553.5232      2627.9175     -4181.4406      718.4624       1978.9798     -2083.4402      15.496068     -950.42459     -1612.973      -2247.5411     -265.54191      47657.094      36.255663      36.255663      36.255663      1.3073163     -828.75327     -1630.7246     -1207.5083    
      4600   4600           299.48995     -696.86728     -1947.1054     -1463.6314      2689.1782     -4152.8096      717.92093      2034.0267     -2100.6624      16.18899      -960.15256     -1614.3249     -2245.8064     -266.01949      47571.536      36.233954      36.233954      36.233954      1.3096676     -630.01482     -975.47182     -485.11519    
      4700   4700           305.13325     -1314.7709     -2333.7774     -1422.5767      2739.8505     -4162.4272      714.07066      2000.5848     -2084.2948      15.617672     -948.90211     -1613.2216     -2246.2819     -266.30087      47521.271      36.221187      36.221187      36.221187      1.3110528     -2758.2665     -1016.6208     -169.42539    
      4800   4800           301.66188     -1659.1296     -2621.2142     -1469.2028      2708.6804     -4177.8832      704.86431      1984.6167     -2074.4577      14.346299     -944.81718     -1615.2302     -2247.2054     -265.8031       47610.265      36.243784      36.243784      36.243784      1.3086022     -1697.4335     -2168.1058     -1111.8494    
      4900   4900           296.44633     -1855.6061     -2839.5905     -1545.9754      2661.8489     -4207.8243      702.32726      1991.8154     -2076.5931      16.476139     -984.09852     -1610.6647     -2247.0868     -264.73858      47801.707      36.292298      36.292298      36.292298      1.3033614     -1941.9835     -2434.9902     -1189.8446    
      5000   5000           300.4878      -1178.0721     -2366.1247     -1544.0989      2698.1381     -4242.237       682.13463      1965.081      -2086.822       16.528753     -952.40643     -1616.2617     -2250.4912     -264.49833      47845.125      36.303283      36.303283      36.303283      1.3021786     -873.19537     -891.59063     -1769.4304    
      5100   5100           301.96469     -925.38471     -2158.0102     -1512.4968      2711.3994     -4223.8962      680.48111      1980.1495     -2098.571       15.961705     -942.45863     -1612.0946     -2247.3642     -264.5779       47830.737      36.299643      36.299643      36.299643      1.3025703     -600.96191     -1076.8288     -1098.3634    
      5200   5200           304.28824     -697.80075     -1944.7013     -1457.2437      2732.263      -4189.5068      699.50797      1985.0061     -2088.1486      16.103291     -951.18648     -1606.6874     -2244.1016     -264.199        47899.332      36.316988      36.316988      36.316988      1.300705      -1592.1384     -960.43553      459.1717     
      5300   5300           308.28513     -544.1721      -1780.7681     -1399.4376      2768.1518     -4167.5894      692.824        2032.6645     -2105.3112      16.273164     -941.90309     -1615.9278     -2246.209      -263.37299      48049.558      36.354915      36.354915      36.354915      1.2966383      679.0869      -2029.7137     -281.88947    
      5400   5400           297.15371     -1250.2376     -2331.6256     -1450.9487      2668.2007     -4119.1494      733.22         1986.3908     -2074.3698      15.456184     -923.11267     -1612.3435     -2244.3904     -262.00675      48300.114      36.417997      36.417997      36.417997      1.289912      -730.35329     -2374.6979     -645.6617     
      5500   5500           294.72377     -920.30051     -2188.982      -1538.3781      2646.3817     -4184.7598      687.6437       1975.8928     -2081.5031      15.630219     -922.8591      -1614.7028     -2244.8615     -261.06553      48474.251      36.46171       36.46171       36.46171       1.2852782     -1166.9433     -994.49923     -599.45901    
      5600   5600           298.84078     -1574.4554     -2631.4342     -1516.7507      2683.3492     -4200.0998      710.4378       1954.9663     -2092.7386      15.650714     -939.05306     -1605.1381     -2244.2249     -260.68455      48545.093      36.479464      36.479464      36.479464      1.2834026     -965.67406     -2109.512      -1648.1802    
      5700   5700           298.71443     -1390.9053     -2436.9236     -1454.5672      2682.2146     -4136.7819      719.39003      1990.1094     -2089.5111      15.490844     -922.98313     -1605.0874     -2244.1905     -261.31541      48427.898      36.450084      36.450084      36.450084      1.2865084     -1100.9571     -1527.901      -1543.8579    
      5800   5800           305.7024      -250.67119     -1601.3016     -1424.893       2744.961      -4169.854       697.37461      1970.6811     -2088.5598      16.024496     -909.21        -1611.133      -2245.0315     -262.2534       48254.688      36.406576      36.406576      36.406576      1.2911263     -738.49136      1736.7919     -1750.3141    
      5900   5900           300.19052     -870.65298     -2085.097      -1474.882       2695.4688     -4170.3508      669.95755      2029.3003     -2090.9278      17.819372     -939.67501     -1611.2558     -2245.5695     -263.32904      48057.577      36.356937      36.356937      36.356937      1.2964219     -191.88761     -1080.4055     -1339.6658    
      6000   6000           297.09329      538.94365     -1210.9554     -1586.3315      2667.6582     -4253.9897      639.16736      1935.6929     -2083.1607      15.091749     -903.90976     -1612.513      -2244.3582     -264.98007      47758.143      36.28127       36.28127       36.28127       1.3045503      1579.3963     -98.769657      136.20433    
      6100   6100           297.88116     -1138.7432     -2356.1285     -1565.2877      2674.7325     -4240.0203      700.03087      1934.9694     -2067.1594      16.407399     -969.16621     -1609.5954     -2245.507      -265.75         47619.778      36.246198      36.246198      36.246198      1.3083408     -337.59959     -967.84816     -2110.7819    
      6200   6200           302.86802      204.99445     -1370.7151     -1512.5394      2719.5106     -4232.05        674.49902      1976.223      -2080.1668      15.860077     -959.96172     -1613.7497     -2244.7539     -266.76446      47438.687      36.200193      36.200193      36.200193      1.3133352     -1049.5858      455.56875      1209.0004    
      6300   6300           296.24156     -1265.1424     -2364.2517     -1489.7942      2660.0103     -4149.8045      701.48008      2023.8814     -2093.0077      16.103753     -944.73188     -1610.3145     -2243.2156     -267.01597      47394.003      36.188823      36.188823      36.188823      1.3145735     -2248.2663      723.72825     -2270.8891    
      6400   6400           297.53424      360.0707      -1236.1814     -1485.3424      2671.6175     -4156.9599      665.74669      2005.9786     -2075.6355      15.570734     -906.06135     -1618.2781     -2244.281      -266.71299      47447.842      36.202522      36.202522      36.202522      1.3130818     -540.19398      206.56962      1413.8365    
      6500   6500           296.97935     -1113.9699     -2296.4771     -1520.0128      2666.635      -4186.6478      709.69485      2009.2247     -2090.0138      16.089458     -977.47093     -1609.6407     -2244.5315     -264.78202      47793.863      36.290313      36.290313      36.290313      1.3035753     -1301.712      -1192.8875     -847.31031    
      6600   6600           294.88904     -1186.7374     -2384.0418     -1552.1962      2647.8657     -4200.062       690.90046      1996.31       -2096.6269      15.432939     -941.198       -1620.9094     -2243.9711     -263.29854      48063.144      36.358341      36.358341      36.358341      1.2962718     -689.98819     -2058.8005     -811.42348    
      6700   6700           295.40878     -2360.5548     -3190.7497     -1529.7461      2652.5326     -4182.2787      715.48961      1983.7613     -2083.3073      15.296096     -947.874       -1618.3751     -2247.2694     -262.28897      48248.143      36.40493       36.40493       36.40493       1.2913015     -2622.816      -2661.3013     -1797.5472    
      6800   6800           301.20075     -1496.2205     -2501.9488     -1449.7273      2704.5398     -4154.2671      690.36846      1988.1508     -2062.756       15.161437     -920.06449     -1620.6893     -2244.4379     -262.43694      48220.939      36.398087      36.398087      36.398087      1.29203       -1058.0929     -839.42492     -2591.1438    
      6900   6900           305.82884     -660.67806     -1908.4383     -1444.0186      2746.0963     -4190.1149      661.15732      1986.4869     -2050.9015      15.063223     -945.40623     -1611.3594     -2245.1553     -262.55224      48199.764      36.392758      36.392758      36.392758      1.2925976     -1443.7418     -201.46509     -336.82725    
      7000   7000           298.95568     -667.19626     -1970.6899     -1502.9669      2684.3809     -4187.3477      654.54914      1988.0878     -2054.4199      16.115751     -934.68956     -1612.0344     -2244.9565     -263.27001      48068.353      36.359655      36.359655      36.359655      1.2961313     -1522.1164      264.44629     -743.91869    
      7100   7100           292.04618     -282.64791     -1774.0201     -1576.5656      2622.3392     -4198.9047      643.81482      1973.0772     -2065.1504      14.778046     -903.9703      -1615.2587     -2246.1954     -264.1892       47901.108      36.317437      36.317437      36.317437      1.3006567     -455.21011     -1284.9816      892.24792    
      7200   7200           288.88925     -279.34471     -1881.5108     -1686.7457      2593.9925     -4280.7382      655.80979      1924.7973     -2074.0553      15.018874     -942.51491     -1613.7134     -2246.0804     -264.70717      47807.378      36.293733      36.293733      36.293733      1.3032068      195.34399     -269.35172     -764.0264     
      7300   7300           293.33713     -928.76451     -2330.2463     -1683.1223      2633.9309     -4317.0532      676.6888       1881.7962     -2073.9497      14.876546     -957.23903     -1612.8074     -2246.4186     -264.88334      47775.582      36.285685      36.285685      36.285685      1.3040741     -1205.5439     -1463.5713     -117.17836    
      7400   7400           296.23545     -1179.8849     -2408.128      -1586.6699      2659.9554     -4246.6253      680.49828      1967.1494     -2100.0363      16.231989     -950.47398     -1611.5431     -2248.4515     -265.08839      47738.628      36.276327      36.276327      36.276327      1.3050836     -2021.9883     -1861.323       343.6567     
      7500   7500           298.5613      -1363.0737     -2461.9759     -1513.3745      2680.8397     -4194.2142      685.93535      1983.6289     -2073.5592      15.880536     -940.93681     -1616.7373     -2248.4256     -265.19912      47718.694      36.271277      36.271277      36.271277      1.3056287     -708.83817     -1985.8415     -1394.5413    
      7600   7600           306.01533     -550.6362      -1834.0767     -1451.2059      2747.7709     -4198.9768      716.88144      1939.6222     -2078.6156      14.649309     -927.69487     -1618.8656     -2244.9536     -265.42941      47677.294      36.260785      36.260785      36.260785      1.3067625      243.16126     -892.08625     -1002.9836    
      7700   7700           301.46116     -1116.6513     -2236.4251     -1459.2746      2706.878      -4166.1526      700.4006       2003.0249     -2092.4929      16.790431     -937.54416     -1613.334      -2242.9975     -265.18501      47721.234      36.271921      36.271921      36.271921      1.3055592     -1680.5341     -1003.0906     -666.32935    
      7800   7800           292.78354     -291.44267     -1741.0954     -1538.2963      2628.9601     -4167.2564      691.13124      1971.8587     -2095.1003      16.002967     -898.18488     -1611.9065     -2241.0575     -265.23059      47713.033      36.269843      36.269843      36.269843      1.3057836     -528.54851     -1112.3363      766.5568     
      7900   7900           295.53396      127.92527     -1467.4562     -1556.6751      2653.6566     -4210.3317      642.83948      2006.4751     -2087.5024      15.248402     -931.08016     -1613.8226     -2242.4895     -264.62826      47821.633      36.29734       36.29734       36.29734       1.3028183     -364.86077      533.05325      215.58335    
      8000   8000           298.94532     -1728.0136     -2724.593      -1513.8048      2684.2878     -4198.0927      667.04198      2012.1221     -2086.428       16.74979      -951.35501     -1612.54       -2243.6835     -263.39984      48044.661      36.35368       36.35368       36.35368       1.2967705     -2500.0077     -1247.0168     -1437.0164    
      8100   8100           304.10365     -1151.722      -2211.0986     -1403.6646      2730.6055     -4134.2702      693.805        2007.4298     -2088.8199      14.941262     -903.00093     -1616.3007     -2242.3247     -263.25533      48071.033      36.36033       36.36033       36.36033       1.2960591     -1233.2905     -808.266       -1413.6094    
      8200   8200           308.07035     -1866.6094     -2671.7086     -1361.9933      2766.2233     -4128.2166      716.16625      2027.2379     -2094.2062      16.880303     -941.99488     -1610.8951     -2241.4048     -263.03471      48111.353      36.370493      36.370493      36.370493      1.2949729     -1556.8536     -1391.6694     -2651.3051    
      8300   8300           305.66226     -1319.713      -2339.5363     -1414.2808      2744.6006     -4158.8813      696.42819      1963.0592     -2049.7881      15.125217     -926.27978     -1615.4806     -2241.9454     -263.24147      48073.564      36.360968      36.360968      36.360968      1.2959908     -1681.2204     -1578.3522     -699.5664     
      8400   8400           303.11355     -588.54934     -1896.0705     -1483.6561      2721.7152     -4205.3713      693.69177      1970.4689     -2085.317       16.398732     -947.50837     -1610.4432     -2242.6622     -263.38168      48047.973      36.354515      36.354515      36.354515      1.2966811     -120.84534     -1186.4826     -458.32009    
      8500   8500           294.46294     -741.66123     -2043.776      -1524.289       2644.0397     -4168.3287      701.43276      1997.9059     -2082.2699      16.708525     -951.79156     -1607.544      -2242.7705     -263.49196      48027.864      36.349443      36.349443      36.349443      1.297224       866.7835      -2466.5378     -625.22934    
      8600   8600           297.34501     -925.01091     -2163.7165     -1516.8427      2669.9184     -4186.7611      678.04286      1993.306      -2078.755       14.792364     -921.9803      -1620.2491     -2251.9179     -263.91486      47950.903      36.330017      36.330017      36.330017      1.299306      -1043.2809     -650.5128      -1081.239     
      8700   8700           303.35038     -1081.5986     -2208.1106     -1451.8826      2723.8418     -4175.7244      707.61607      1981.8003     -2064.8186      16.096678     -941.52201     -1622.7306     -2252.1662     -263.96712      47941.408      36.327619      36.327619      36.327619      1.2995634     -706.87982     -602.45595     -1935.4599    
      8800   8800           304.67897     -656.57123     -1850.9927     -1392.7096      2735.7714     -4128.481       691.8862       1994.9002     -2063.858       15.174952     -893.43553     -1622.1605     -2250.9884     -264.41401      47860.383      36.307141      36.307141      36.307141      1.3017635     -1485.584      -1212.1756      728.04595    
      8900   8900           298.88614      239.76804     -1257.9595     -1425.4432      2683.7565     -4109.1996      690.10697      2009.5697     -2066.279       15.983548     -890.3577      -1618.5577     -2249.6654     -264.21372      47896.664      36.316313      36.316313      36.316313      1.3007774     -286.17268     -403.57376      1409.0506    
      9000   9000           299.81658     -528.42688     -1907.9137     -1537.7023      2692.111      -4229.8133      679.76463      1943.9193     -2060.5462      15.754418     -942.70999     -1616.7981     -2249.1974     -263.43385      48038.458      36.352115      36.352115      36.352115      1.2969379     -674.57971     -4.6214856     -906.07946    
      9100   9100           298.78064     -2274.4618     -3143.0672     -1547.0161      2682.8092     -4229.8253      703.2013       1955.756      -2088.3417      16.029152     -955.08464     -1612.6943     -2248.691      -263.00764      48116.305      36.371741      36.371741      36.371741      1.2948396     -2136.369      -2978.4189     -1708.5974    
      9200   9200           298.11475     -1028.7022     -2244.5646     -1525.7268      2676.83       -4202.5568      694.83377      1915.73       -2070.0538      14.471296     -886.92346     -1619.3457     -2251.269      -264.11633      47914.325      36.320777      36.320777      36.320777      1.3002979     -2888.0721     -987.54316      789.5086     
      9300   9300           299.58119     -2295.7434     -3049.8669     -1449.9189      2689.9974     -4139.9163      721.68331      1998.5472     -2073.1238      15.810312     -950.41811     -1603.8353     -2248.5799     -264.82196      47786.655      36.288488      36.288488      36.288488      1.3037719     -1587.5967     -1837.0898     -3462.5437    
      9400   9400           310.59299     -645.31339     -1865.0085     -1416.5702      2788.8746     -4205.4447      660.382        1989.2045     -2065.9551      15.033205     -944.61418     -1611.97       -2247.5252     -265.58558      47649.258      36.253676      36.253676      36.253676      1.3075313      376.89396     -1050.9728     -1261.8614    
      9500   9500           304.33548     -1838.9315     -2721.6962     -1442.2142      2732.6872     -4174.9014      706.24461      1956.7082     -2059.9567      14.341393     -936.28821     -1610.2762     -2245.6745     -265.25763      47708.168      36.26861       36.26861       36.26861       1.3059168     -3103.5654     -1713.7768     -699.45226    
      9600   9600           300.29655     -698.47716     -1962.3071     -1474.6921      2696.4209     -4171.1129      703.60467      1966.3806     -2078.9089      15.759422     -921.86577     -1611.2612     -2244.8218     -264.36966      47868.411      36.309171      36.309171      36.309171      1.3015451     -1764.4309     -1789.2852      1458.2846    
      9700   9700           299.45202     -1655.5966     -2643.7647     -1483.2584      2688.8376     -4172.096       694.6703       1969.5274     -2065.5184      15.551562     -929.0971      -1610.9828     -2246.247      -263.29559      48063.683      36.358477      36.358477      36.358477      1.2962573     -984.08893     -2335.8905     -1646.8105    
      9800   9800           304.82568     -1867.0981     -2773.149      -1461.7119      2737.0887     -4198.8006      690.98204      1953.4139     -2075.1606      15.224626     -923.44325     -1611.0866     -2248.7308     -262.75814      48161.993      36.383249      36.383249      36.383249      1.2936113     -1716.8631     -3209.9846     -674.44653    
      9900   9900           308.84598     -1062.5574     -2169.111      -1421.5307      2773.1878     -4194.7185      666.16873      1984.8086     -2098.3509      15.769381     -906.00029     -1612.1666     -2244.9474     -262.3198       48242.472      36.403504      36.403504      36.403504      1.2914533     -1006.4995     -1502.669      -678.50367    
     10000   10000          302.25592     -1490.2202     -2467.4048     -1417.7548      2714.0144     -4131.7692      704.93973      2022.9668     -2087.3672      16.033184     -933.63069     -1609.4391     -2245.272      -262.02482      48296.782      36.417159      36.417159      36.417159      1.290001      -628.60672     -2375.9052     -1466.1485    
     10100   10100          298.5353      -1054.0926     -2236.2889     -1494.792       2680.6062     -4175.3982      686.51308      1973.9216     -2084.5218      15.571019     -907.24129     -1615.5168     -2244.124      -262.36504      48234.154      36.401411      36.401411      36.401411      1.291676      -905.86269     -1125.6021     -1130.8131    
     10200   10200          301.99962     -127.19509     -1638.5311     -1549.1334      2711.713      -4260.8464      646.30322      1929.3411     -2107.7588      15.974374     -881.84112     -1619.7236     -2243.1416     -262.59134      48192.585      36.390951      36.390951      36.390951      1.2927901     -840.54792      1466.1388     -1007.1761    
     10300   10300          302.77534      168.62231     -1417.059      -1535.5685      2718.6784     -4254.2469      642.80741      1936.818      -2090.3433      16.272787     -895.76331     -1618.7504     -2245.288      -262.60216      48190.6        36.390452      36.390452      36.390452      1.2928434      27.271916      351.44283      127.15218    
     10400   10400          303.98218     -505.11559     -1821.8727     -1467.4653      2729.5148     -4196.9801      682.603        1942.1494     -2071.6464      14.916832     -901.57044     -1616.9487     -2246.4839     -263.04168      48110.078      36.370172      36.370172      36.370172      1.2950072      1186.8184     -931.34485     -1770.8203    
     10500   10500          303.83119     -1619.011      -2523.0801     -1387.6895      2728.1591     -4115.8486      728.0702       1983.7477     -2068.8455      14.175518     -913.2083      -1614.0151     -2245.7731     -263.17281      48086.107      36.36413       36.36413       36.36413       1.2956528     -1616.0359     -1486.6119     -1754.3852    
     10600   10600          306.93559     -1270.5899     -2304.1901     -1411.5106      2756.0341     -4167.5446      707.50226      1983.6429     -2090.4052      15.762152     -926.35742     -1612.8339     -2244.8554     -262.69169      48174.177      36.386317      36.386317      36.386317      1.2932841     -1190.4921     -1836.7879     -784.48977    
     10700   10700          300.98611     -845.25164     -2045.9408     -1450.9637      2702.6125     -4153.5762      692.09873      1979.7421     -2089.4527      14.746305     -898.44994     -1608.6143     -2243.6464     -262.19371      48265.673      36.409338      36.409338      36.409338      1.2908325     -1522.2385     -743.25755     -270.2589     
     10800   10800          302.34635     -1179.2364     -2307.3715     -1475.3274      2714.8263     -4190.1537      693.8358       1932.1871     -2074.7208      14.642791     -910.18515     -1602.9703     -2242.9432     -261.57185      48380.419      36.438169      36.438169      36.438169      1.2877709     -2502.4638     -1191.1734      155.92801    
     10900   10900          301.01944     -1303.7078     -2412.128      -1491.2614      2702.9118     -4194.1732      703.77459      1948.2926     -2079.812       16.183768     -937.32818     -1604.4972     -2240.7867     -261.28836      48432.91       36.451342      36.451342      36.451342      1.2863753     -1113.7609     -1677.3507     -1120.0119    
     11000   11000          301.51057     -824.07111     -2074.1841     -1492.5929      2707.3217     -4199.9146      703.48948      1934.432      -2087.4305      14.97219      -906.44625     -1615.8999     -2243.0317     -261.50704      48392.409      36.441179      36.441179      36.441179      1.2874519     -717.36467     -1318.4515     -436.3971     
     11100   11100          300.65088     -2519.9351     -3238.2391     -1459.6872      2699.6024     -4159.2897      726.25577      1961.736      -2069.4247      14.459853     -934.95773     -1613.0667     -2244.2922     -261.49257      48395.087      36.441851      36.441851      36.441851      1.2873806     -2791.5734     -1793.5558     -2974.6762    
     11200   11200          303.55672     -1314.6892     -2324.0121     -1397.1537      2725.6945     -4122.8481      708.41834      2001.8527     -2092.7354      14.818419     -890.11517     -1618.2381     -2246.849      -261.78587      48340.866      36.428236      36.428236      36.428236      1.2888246     -2804.1699     -851.61117     -288.28672    
     11300   11300          303.0218      -1998.2402     -2820.7355     -1412.897       2720.8913     -4133.7884      699.77545      2005.6802     -2057.9298      15.044879     -943.62056     -1609.6018     -2243.1367     -261.95784      48309.132      36.420263      36.420263      36.420263      1.2896712     -1363.9958     -3388.5719     -1242.153     
     11400   11400          292.78791     -432.95546     -1820.6972     -1516.2604      2628.9992     -4145.2597      676.91461      1973.5173     -2061.1181      14.691852     -885.36594     -1618.8453     -2245.0542     -262.47179      48214.537      36.396476      36.396476      36.396476      1.2922015     -1047.6247      643.29477     -894.53645    
     11500   11500          295.14121     -1305.9856     -2453.1208     -1534.4502      2650.1301     -4184.5802      685.09459      1979.1572     -2080.6156      14.919748     -927.42574     -1610.6113     -2245.099      -262.37057      48233.138      36.401156      36.401156      36.401156      1.2917032     -1535.9325     -685.58498     -1696.4395    
     11600   11600          294.43601     -1459.8498     -2533.0499     -1505.4681      2643.7979     -4149.266       715.3047       1971.9047     -2059.441       15.110311     -942.78386     -1604.3998     -2244.9611     -262.19735      48265.003      36.40917       36.40917       36.40917       1.2908504     -1854.8904     -1239.0792     -1285.5798    
     11700   11700          302.83932     -1206.645      -2301.7576     -1452.9689      2719.2528     -4172.2217      701.58169      1978.6431     -2080.8374      14.989758     -931.74733     -1610.2805     -2244.571      -262.37135      48232.994      36.401119      36.401119      36.401119      1.2917071     -1879.8226     -846.24879     -893.86355    
     11800   11800          301.14087     -1510.697      -2514.8608     -1454.041       2704.0021     -4158.0431      703.16441      1986.2329     -2092.7366      15.22807      -914.64345     -1612.2846     -2243.004      -262.8284       48149.118      36.380007      36.380007      36.380007      1.2939572      61.033121     -2136.0098     -2457.1144    
     11900   11900          296.61686     -791.87068     -2106.5235     -1551.4637      2663.3801     -4214.8438      664.955        1980.291      -2076.3872      15.601035     -936.96871     -1615.0857     -2247.2492     -263.30008      48062.863      36.35827       36.35827       36.35827       1.2962794     -1115.1207     -2530.5011      1270.0098    
     12000   12000          293.28633     -602.98455     -2033.5563     -1611.7528      2633.4747     -4245.2275      641.9513       1973.7912     -2078.6989      15.577707     -930.22911     -1618.3645     -2249.2552     -263.83503      47965.411      36.33368       36.33368       36.33368       1.298913      -6.8809211     -1309.107      -492.96576    
     12100   12100          300.64736     -275.15072     -1758.7817     -1566.7348      2699.5708     -4266.3056      652.48962      1974.3094     -2099.5662      15.348616     -946.02359     -1615.9492     -2246.9143     -264.42342      47858.679      36.306711      36.306711      36.306711      1.3018098     -1926.9376     -163.49967      1264.9851    
     12200   12200          303.08427     -1639.7784     -2634.9554     -1490.1387      2721.4523     -4211.591       680.35342      1985.0557     -2055.3343      16.080773     -970.8844      -1617.2939     -2249.5683     -264.35389      47871.267      36.309893      36.309893      36.309893      1.3014675     -2301.7126     -1407.3328     -1210.2896    
     12300   12300          300.44122     -3.6890999     -1457.3388     -1454.7647      2697.7198     -4152.4845      685.18168      1969.1105     -2070.6242      15.139638     -881.21969     -1620.3785     -2249.694      -264.50606      47843.726      36.302929      36.302929      36.302929      1.3022167      637.79489     -231.84706     -417.01513    
     12400   12400          300.56337     -2003.2474     -2870.6846     -1464.7286      2698.8167     -4163.5453      739.44822      1972.2678     -2067.0405      15.061342     -960.88788     -1612.4786     -2249.9157     -262.96587      48123.947      36.373667      36.373667      36.373667      1.294634      -3102.3297     -1826.249      -1081.1635    
     12500   12500          301.1696      -219.68352     -1654.0855     -1499.6043      2704.2601     -4203.8644      703.16529      1911.5848     -2083.0366      15.584566     -874.808       -1624.7966     -2251.5578     -262.45718      48217.22       36.397151      36.397151      36.397151      1.2921296     -295.09583     -1258.8448      894.89011    
     12600   12600          300.2105      -509.89027     -1895.1401     -1535.92        2695.6482     -4231.5681      667.61263      1981.2554     -2098.9516      16.165426     -927.81235     -1619.2749     -2250.5628     -261.97059      48306.78       36.419672      36.419672      36.419672      1.289734       67.670265     -1400.3064     -197.03468    
     12700   12700          290.12715     -816.69859     -2228.9082     -1652.8835      2605.1078     -4257.9914      658.80203      1930.0221     -2088.4102      14.79177      -898.95106     -1622.3989     -2251.8472     -261.672        48361.902      36.433519      36.433519      36.433519      1.288264      -700.39354     -959.37478     -790.32745    
     12800   12800          292.78232     -672.79044     -2136.4399     -1661.7677      2628.9491     -4290.7167      672.85342      1905.2814     -2091.41        15.762757     -925.72281     -1617.2493     -2250.2321     -261.5908       48376.914      36.437289      36.437289      36.437289      1.2878642     -1576.25        480.04039     -922.16172    
     12900   12900          293.35387     -826.353       -2143.7425     -1562.2631      2634.0812     -4196.3442      683.14412      1959.2527     -2079.1922      15.508814     -922.22396     -1606.9255     -2245.9082     -262.28157      48249.505      36.405273      36.405273      36.405273      1.291265      -374.0112      -2101.9611     -3.086726     
     13000   13000          294.65402     -223.873       -1655.3891     -1498.1621      2645.7555     -4143.9176      691.50782      1970.7257     -2067.8501      15.185583     -890.57562     -1614.7298     -2248.1812     -262.79138      48155.9        36.381715      36.381715      36.381715      1.293775       1013.2851      431.16682     -2116.0709    
     13100   13100          304.30248     -1303.59       -2358.7463     -1440.8153      2732.3909     -4173.2062      741.48305      1950.1464     -2087.6219      15.392285     -934.55667     -1611.65       -2246.3994     -262.1003       48282.875      36.413663      36.413663      36.413663      1.2903726     -958.43434     -722.43158     -2229.904     
     13200   13200          300.12505     -1753.0515     -2679.9942     -1445.3457      2694.8809     -4140.2266      658.45227      2066.8588     -2082.0938      15.751065     -938.45856     -1613.131      -2247.6054     -262.05224      48291.729      36.415889      36.415889      36.415889      1.290136      -1187.6923     -2904.8078     -1166.6543    
     13300   13300          303.35856     -2130.4801     -3016.7291     -1518.087       2723.9152     -4242.0023      692.26464      1920.3008     -2077.7274      14.306434     -925.64426     -1617.3929     -2248.1096     -262.37115      48233.03       36.401129      36.401129      36.401129      1.2917061     -3815.4887     -1346.4148     -1229.5367    
     13400   13400          294.43044     -1934.0161     -2950.7094     -1591.6852      2643.7479     -4235.433       688.23975      1912.4651     -2059.4366      14.102485     -927.54719     -1615.7696     -2247.4871     -262.64517      48182.708      36.388465      36.388465      36.388465      1.2930551     -1107.321      -2448.652      -2246.0754    
     13500   13500          293.45176     -941.09115     -2236.2885     -1575.0374      2634.9601     -4209.9975      650.84876      1996.1656     -2087.9316      15.536013     -923.48036     -1613.7712     -2247.3648     -262.66473      48179.121      36.387562      36.387562      36.387562      1.2931514     -2147.9541     -308.28397     -367.03539    
     13600   13600          298.09626     -1760.8448     -2761.3718     -1521.5348      2676.664      -4198.1988      664.24498      1972.8368     -2060.9654      15.451007     -929.40827     -1609.9169     -2250.441      -262.11568      48280.041      36.412951      36.412951      36.412951      1.2904483     -1399.2866     -2673.6007     -1209.6471    
     13700   13700          303.15024     -1292.296      -2394.0537     -1484.019       2722.0447     -4206.0637      692.17616      1911.2004     -2047.2529      15.070567     -917.33306     -1611.598      -2248.3269     -262.08404      48285.87       36.414416      36.414416      36.414416      1.2902926     -1181.6183     -1150.9645     -1544.3051    
     13800   13800          297.09954     -858.8878      -2079.0101     -1473.1924      2667.7143     -4140.9066      681.36369      1999.4978     -2088.5653      15.661253     -889.14698     -1612.4309     -2247.2861     -261.65619      48364.825      36.434253      36.434253      36.434253      1.2881861     -1229.864      -1921.7979      574.99848    
     13900   13900          301.01232     -561.81638     -1867.0043     -1470.0665      2702.8479     -4172.9144      696.67605      1940.5977     -2073.9135      15.17602      -885.84758     -1616.6604     -2248.9427     -261.22121      48445.361      36.454465      36.454465      36.454465      1.2860447     -1785.3705     -949.43384      1049.3552    
     14000   14000          295.56147     -1157.04       -2304.0622     -1484.5688      2653.9036     -4138.4724      693.6878       2000.3146     -2079.9993      16.427879     -909.78742     -1612.6514     -2246.4646     -260.57901      48564.754      36.484388      36.484388      36.484388      1.282883      -1672.4954     -1786.6657     -11.959065    
     14100   14100          292.91617     -1963.7464     -2918.8501     -1525.5484      2630.151      -4155.6994      689.39625      1987.5265     -2073.4608      15.775829     -926.05722     -1605.1252     -2243.7548     -260.12181      48650.114      36.505751      36.505751      36.505751      1.2806321     -2687.2085     -1730.5492     -1473.4814    
     14200   14200          298.50472     -1017.6599     -2218.6091     -1498.1646      2680.3316     -4178.4962      671.49535      1969.8063     -2070.9797      14.856785     -916.00367     -1604.2681     -2243.4031     -260.69858      48542.48       36.478809      36.478809      36.478809      1.2834717     -1331.8255     -399.63002     -1321.5242    
     14300   14300          304.19549     -956.28399     -2132.0897     -1457.0643      2731.4302     -4188.4945      656.82146      1973.6407     -2071.8468      15.248331     -902.89634     -1614.5304     -2244.9315     -261.45885      48401.33       36.443418      36.443418      36.443418      1.2872146     -639.84085     -1398.7384     -830.27268    
     14400   14400          303.54853     -1671.6746     -2629.9519     -1454.6471      2725.6209     -4180.268       703.47116      1947.6933     -2077.9105      14.88494      -910.68165     -1613.4387     -2244.2865     -262.50509      48208.42       36.394936      36.394936      36.394936      1.2923655     -2254.7064     -1405.3058     -1355.0116    
     14500   14500          293.08056     -303.69825     -1730.4183     -1517.9414      2631.6271     -4149.5684      685.91204      1972.4898     -2060.9151      14.271186     -889.06956     -1625.8027     -2246.4541     -263.79527      47972.641      36.335506      36.335506      36.335506      1.2987173     -555.68868     -398.74028      43.334214    
     14600   14600          293.41158     -528.10123     -1959.0935     -1591.1114      2634.5993     -4225.7107      677.57036      1938.7342     -2072.6781      14.963022     -919.55743     -1617.0644     -2247.6783     -264.86644      47778.631      36.286457      36.286457      36.286457      1.3039908      434.27128     -1488.7618     -529.81312    
     14700   14700          297.16325     -104.54831     -1643.1791     -1570.4846      2668.2863     -4238.7709      650.93844      1982.4096     -2059.4278      14.852623     -958.67963     -1619.1852     -2249.6789     -265.43095      47677.016      36.260714      36.260714      36.260714      1.3067701     -1894.5834      807.73894      773.19953    
     14800   14800          301.28512     -1452.9184     -2499.2661     -1489.2946      2705.2973     -4194.592       676.32922      1975.9884     -2068.8331      15.808467     -933.38131     -1613.3037     -2247.2        -265.50252      47664.164      36.257456      36.257456      36.257456      1.3071224     -1328.1205     -876.67313     -2153.9616    
     14900   14900          306.88386     -971.35874     -2106.6837     -1431.848       2755.5695     -4187.4176      675.97939      1969.2722     -2048.8037      15.380199     -944.24424     -1608.4568     -2246.5446     -265.6551       47636.788      36.250513      36.250513      36.250513      1.3078736     -1400.8058     -635.13294     -878.1375     
     15000   15000          308.56992     -587.76459     -1855.7523     -1447.498       2770.709      -4218.2069      675.08735      1929.655      -2081.8603      14.412518     -899.53323     -1609.8414     -2246.1268     -265.71076      47626.809      36.247982      36.247982      36.247982      1.3081476     -1501.2181      87.884056     -349.95968    
     15100   15100          300.26317     -1102.4706     -2271.6107     -1503.1801      2696.1211     -4199.3012      673.32048      1980.3957     -2076.3687      15.564297     -947.48478     -1600.1822     -2244.546      -264.78836      47792.72       36.290023      36.290023      36.290023      1.3036065     -880.08229     -2444.164       16.834573    
     15200   15200          295.87178      73.954071     -1482.4819     -1534.2868      2656.69       -4190.9767      657.5264       1945.6256     -2062.4689      14.793204     -896.44123     -1607.6607     -2242.351      -263.46808      48032.216      36.350541      36.350541      36.350541      1.2971065     -797.43856     -639.98669      1659.2875    
     15300   15300          298.57266     -1091.8128     -2259.5533     -1489.3776      2680.9417     -4170.3193      710.1098       1975.2954     -2076.4623      15.340215     -944.59287     -1605.6515     -2244.3581     -261.63443      48368.847      36.435263      36.435263      36.435263      1.288079      -74.503523     -2164.9684     -1035.9665    
     15400   15400          309.76924     -1697.1919     -2588.9129     -1387.3709      2781.4779     -4168.8488      711.73106      1919.8765     -2051.7981      14.758669     -907.80108     -1608.544      -2247.0719     -260.69248      48543.616      36.479094      36.479094      36.479094      1.2834416     -2321.8089     -1799.9797     -969.78704    
     15500   15500          303.73534     -1050.5058     -2132.4256     -1389.0694      2727.2983     -4116.3677      682.26953      2003.0854     -2049.788       14.904302     -912.6189      -1606.5414     -2247.6788     -260.81828      48520.202      36.473228      36.473228      36.473228      1.284061      -1235.8912     -128.32975     -1787.2966    
     15600   15600          301.20418     -1207.1113     -2275.9107     -1423.5127      2704.5706     -4128.0832      717.25095      1954.582      -2063.2614      14.608064     -899.18243     -1606.0451     -2246.0353     -261.36137      48419.38       36.447947      36.447947      36.447947      1.2867347     -1425.6307     -778.64467     -1417.0587    
     15700   15700          299.62738     -1587.5224     -2570.3443     -1449.0996      2690.4122     -4139.5118      730.45358      1944.6831     -2072.5148      14.370971     -906.1027      -1605.3129     -2245.0891     -261.30996      48428.906      36.450337      36.450337      36.450337      1.2864816     -1703.6448     -1482.9936     -1575.9287    
     15800   15800          291.10762     -1998.8503     -2878.3694     -1465.8179      2613.9116     -4079.7295      725.78729      2038.0639     -2071.4176      15.497585     -930.53453     -1608.5049     -2248.6212     -261.16351      48456.065      36.45715       36.45715       36.45715       1.2857606     -1749.2033     -2980.2268     -1267.1208    
     15900   15900          295.39927     -744.7931      -2011.4371     -1485.7429      2652.4472     -4138.1901      689.06251      1987.0159     -2084.2102      15.183344     -887.53375     -1610.4893     -2247.2187     -261.48033      48397.353      36.44242       36.44242       36.44242       1.2873204      134.88811     -1263.7141     -1105.5533    
     16000   16000          292.85154     -1027.5722     -2242.8637     -1519.3805      2629.5706     -4148.9511      683.37975      1989.4142     -2099.3145      15.614464     -877.05737     -1613.4317     -2247.556      -262.13221      48276.996      36.412185      36.412185      36.412185      1.2905297     -1066.7634      173.9392      -2189.8925    
     16100   16100          300.14033     -1545.1897     -2655.9087     -1569.0274      2695.0181     -4264.0455      677.47454      1897.8104     -2081.5514      14.026965     -908.53523     -1613.5157     -2249.7551     -262.38333      48230.792      36.400566      36.400566      36.400566      1.291766      -2692.8839     -994.80635     -947.8788     
     16200   16200          296.18899     -1467.5388     -2643.6015     -1610.0633      2659.5382     -4269.6015      694.98171      1918.3976     -2103.6632      15.509834     -931.69926     -1612.9862     -2250.142      -262.05929      48290.429      36.415562      36.415562      36.415562      1.2901707     -1157.6285     -2814.0351     -430.95271    
     16300   16300          294.38562      82.598133     -1486.5057     -1544.6756      2643.3454     -4188.021       657.59095      1960.8413     -2073.9549      15.600748     -881.37133     -1619.035      -2247.6927     -262.06445      48289.479      36.415324      36.415324      36.415324      1.2901961     -1218.2134      12.635291      1453.3725    
     16400   16400          303.9196      -845.33494     -2061.9329     -1467.5118      2728.9529     -4196.4647      680.48933      1993.066      -2066.662       16.202369     -951.13622     -1619.3376     -2249.0866     -262.46483      48215.815      36.396797      36.396797      36.396797      1.2921673      866.20283     -1741.7418     -1660.4658    
     16500   16500          300.13969     -1292.4127     -2384.5717     -1480.5665      2695.0123     -4175.5788      694.69876      1936.903      -2070.7769      15.114574     -885.15085     -1620.9771     -2245.3902     -263.85589      47961.62       36.332723      36.332723      36.332723      1.2990157     -730.59439     -1951.662      -1194.9819    
     16600   16600          293.73068     -1074.5279     -2267.0267     -1518.1132      2637.4646     -4155.5778      707.22854      1958.8178     -2070.4962      14.966841     -893.38573     -1624.2247     -2248.4844     -264.80282      47790.11       36.289363      36.289363      36.289363      1.3036776     -1328.5557     -1410.279      -484.74917    
     16700   16700          295.77428     -1002.6928     -2286.2365     -1587.6972      2655.8145     -4243.5116      666.19766      1960.4108     -2078.0006      16.606276     -941.05258     -1619.7339     -2247.9392     -264.91926      47769.104      36.284045      36.284045      36.284045      1.3042509     -1229.2422     -342.40742     -1436.4288    
     16800   16800          292.3817      -659.46904     -2086.8043     -1626.5396      2625.3519     -4251.8915      689.74179      1929.2535     -2085.8018      14.688582     -934.13536     -1620.1205     -2245.5178     -264.43766      47856.102      36.306059      36.306059      36.306059      1.3018799     -2015.0774     -515.48825      552.15852    
     16900   16900          297.1157      -1127.0765     -2330.1272     -1539.7957      2667.8594     -4207.655       698.03895      1930.194      -2085.8734      14.406948     -903.02992     -1616.9999     -2244.3917     -263.1968       48081.723      36.363025      36.363025      36.363025      1.2957709     -959.41803     -1156.7469     -1265.0647    
     17000   17000          305.70403     -1624.377      -2604.8021     -1458.3054      2744.9756     -4203.281       710.42313      1944.4741     -2084.7633      15.434956     -929.34068     -1612.7428     -2246.7663     -261.48726      48396.07       36.442097      36.442097      36.442097      1.2873545     -1240.0303     -1893.5136     -1739.587     
     17100   17100          302.39594     -2209.3239     -3016.3378     -1451.7826      2715.2717     -4167.0543      708.12638      1976.2801     -2068.0783      14.980677     -942.5195      -1608.6617     -2247.1819     -260.61837      48557.42       36.482551      36.482551      36.482551      1.2830768     -1754.2351     -2854.7249     -2019.0118    
     17200   17200          299.58583     -142.93826     -1586.6896     -1485.5558      2690.0391     -4175.5949      676.55305      1926.8834     -2072.7965      14.263851     -860.87525     -1614.5031     -2245.1203     -260.8486       48514.563      36.471815      36.471815      36.471815      1.2842102      534.72513     -470.71785     -492.82206    
     17300   17300          289.54725     -1694.5102     -2752.7625     -1551.9093      2599.9008     -4151.8101      691.54655      1994.9775     -2080.7203      15.814306     -915.02965     -1611.1641     -2247.2344     -260.42988      48592.565      36.491351      36.491351      36.491351      1.2821488     -2117.9401     -1994.7833     -970.80712    
     17400   17400          290.34125     -1541.4289     -2655.1195     -1565.3603      2607.0303     -4172.3905      660.89294      1974.8854     -2060.2524      14.892046     -896.61163     -1616.3503     -2249.8465     -261.05346      48476.491      36.462272      36.462272      36.462272      1.2852188     -692.75364     -2429.7481     -1501.785     
     17500   17500          298.45641     -888.53579     -2076.3038     -1449.859       2679.8979     -4129.7569      692.31797      2037.4885     -2073.6109      15.869964     -933.6031      -1617.0499     -2251.1695     -261.77531      48342.816      36.428726      36.428726      36.428726      1.2887726     -1557.8533     -1281.5739      173.81985    
     17600   17600          299.75165     -696.84386     -1912.3906     -1422.6516      2691.5281     -4114.1797      698.30815      2012.8819     -2071.9911      15.13071      -893.55771     -1623.3928     -2251.559      -262.60765      48189.593      36.390198      36.390198      36.390198      1.2928704     -132.49506     -600.7986      -1357.2379    
     17700   17700          297.12567     -197.94112     -1599.4715     -1460.4556      2667.9489     -4128.4045      677.63489      1987.8173     -2065.0814      15.497973     -879.43969     -1616.2024     -2248.6312     -262.7895       48156.245      36.381802      36.381802      36.381802      1.2937657      536.56282     -364.51248     -765.8737     
     17800   17800          297.66548     -762.46383     -2055.2626     -1518.3839      2672.7959     -4191.1798      689.50553      1975.145      -2077.9288      16.026396     -941.48916     -1604.1363     -2248.3025     -262.10759      48281.53       36.413325      36.413325      36.413325      1.2904085     -270.71855     -1689.9431     -326.72981    
     17900   17900          294.73653     -8.0292231     -1584.5421     -1578.8807      2646.4964     -4225.3771      687.8167       1949.6573     -2114.2665      15.191127     -900.33969     -1615.6116     -2247.8245     -261.7532       48346.899      36.429751      36.429751      36.429751      1.2886638     -347.68903      100.20399      223.39737    
     18000   18000          288.05313     -2708.6875     -3524.0197     -1605.6711      2586.4848     -4192.1559      726.34764      1967.1328     -2086.146       15.591861     -955.51534     -1610.614      -2248.9528     -260.59609      48561.571      36.483591      36.483591      36.483591      1.2829671     -3345.6914     -2759.9122     -2020.459     
     18100   18100          297.66583     -1898.381      -2851.2537     -1509.0975      2672.7991     -4181.8966      684.65729      1995.2655     -2095.4724      15.330105     -915.91453     -1617.4103     -2248.3523     -261.04586      48477.903      36.462626      36.462626      36.462626      1.2851814     -2535.4691     -1150.072      -2009.6018    
     18200   18200          303.82179     -640.29078     -1890.4164     -1439.1249      2728.0747     -4167.1996      698.33492      1946.5226     -2079.4831      14.713678     -880.74708     -1617.8946     -2248.646      -261.85245      48328.574      36.425148      36.425148      36.425148      1.2891524     -564.10995     -2374.4773      1017.7149    
     18300   18300          306.97005     -633.70959     -1873.3711     -1427.4497      2756.3435     -4183.7932      663.04858      1984.1454     -2073.8489      15.626894     -911.16408     -1615.1983     -2246.4028     -262.28203      48249.419      36.405251      36.405251      36.405251      1.2912673     -326.90425     -987.99194     -586.23258    
     18400   18400          300.96563     -1186.2092     -2321.4048     -1488.2842      2702.4287     -4190.7129      694.81839      1948.8856     -2086.7854      14.399014     -913.25759     -1603.0615     -2245.7113     -262.77858      48158.247      36.382306      36.382306      36.382306      1.2937119     -598.53593     -1202.0597     -1758.0319    
     18500   18500          295.83652     -44.683235     -1578.6677     -1547.3098      2656.3734     -4203.6832      672.02591      1935.7404     -2088.3377      15.29756      -883.21309     -1609.1973     -2245.9989     -262.987        48120.081      36.372692      36.372692      36.372692      1.294738       290.10676      392.81087     -816.96733    
     18600   18600          293.85575     -954.00273     -2191.222      -1519.5936      2638.5877     -4158.1812      704.19783      1994.5631     -2077.6452      16.180439     -947.639       -1603.9278     -2243.9106     -262.15435      48272.919      36.41116       36.41116       36.41116       1.2906387     -1456.9295     -650.58948     -754.48924    
     18700   18700          296.89898     -845.88368     -2044.8075     -1449.8269      2665.9134     -4115.7403      688.088        2036.0253     -2068.2694      16.741238     -940.2442      -1603.7421     -2244.3391     -262.38823      48229.892      36.400339      36.400339      36.400339      1.2917901     -763.19357     -838.13329     -936.32416    
     18800   18800          304.75019     -849.04314     -2000.7777     -1405.7848      2736.4109     -4142.1958      700.10035      1974.8952     -2083.0488      15.452426     -896.99836     -1607.8883     -2244.7083     -263.36287      48051.404      36.355381      36.355381      36.355381      1.2965885     -662.18944     -1366.0372     -518.90279    
     18900   18900          309.22427      56.257269     -1381.5006     -1420.8269      2776.5846     -4197.4115      702.50503      1919.71       -2080.4495      14.927229     -889.99267     -1616.4054     -2247.7061     -264.01673      47932.401      36.325343      36.325343      36.325343      1.2998076      83.92282      -112.00053      196.84951    
     19000   19000          301.35108     -1059.2457     -2197.657      -1456.8532      2705.8896     -4162.7428      681.7532       1980.4159     -2063.6333      16.181873     -922.62675     -1607.9092     -2246.9245     -263.89429      47954.641      36.330961      36.330961      36.330961      1.2992048     -664.93847     -2907.9028      395.10431    
     19100   19100          300.25029     -626.62895     -1947.9566     -1509.3809      2696.0054     -4205.3864      691.10931      1927.9034     -2077.8385      15.24488      -904.75618     -1611.8149     -2245.2343     -263.6953       47990.828      36.340097      36.340097      36.340097      1.2982251     -1118.0305     -473.7228      -288.13358    
     19200   19200          292.66589     -1131.1206     -2348.3901     -1555.6968      2627.9036     -4183.6004      692.7811       2001.025      -2092.2839      16.007735     -945.69639     -1608.8354     -2246.5986     -263.3542       48052.987      36.35578       36.35578       36.35578       1.2965458     -308.03732     -2629.4707     -455.85389    
     19300   19300          297.67808      192.68079     -1398.861      -1533.7676      2672.9091     -4206.6767      643.79978      1955.1907     -2085.7747      15.126962     -876.08058     -1612.1725     -2246.7664     -263.59766      48008.604      36.344583      36.344583      36.344583      1.2977444     -739.92135      1404.2165     -86.252776    
     19400   19400          302.92616     -858.12098     -2033.0547     -1431.3792      2720.0326     -4151.4119      677.54426      2051.3208     -2101.9712      17.041175     -930.8501      -1614.4674     -2250.0295     -263.22236      48077.054      36.361848      36.361848      36.361848      1.2958967     -1843.5954     -387.82838     -342.9392     
     19500   19500          308.07343     -1083.1569     -2167.5868     -1407.6156      2766.2509     -4173.8665      692.37249      1968.2412     -2084.3296      14.728474     -898.32782     -1616.9478     -2249.6035     -263.04543      48109.393      36.369999      36.369999      36.369999      1.2950257      741.28204     -1784.704      -2206.0486    
     19600   19600          298.69243     -1509.5319     -2515.7627     -1455.6076      2682.0172     -4137.6248      694.8779       2018.7863     -2084.9497      16.274503     -918.70588     -1615.2362     -2248.6717     -262.79036      48156.089      36.381763      36.381763      36.381763      1.2937699     -1351.1885     -2570.3192     -607.08801    
     19700   19700          296.6712      -837.94391     -2076.8306     -1488.9919      2663.8681     -4152.86        685.80873      1995.4314     -2068.5863      15.819644     -920.14448     -1613.1004     -2248.0886     -263.08332      48102.463      36.368253      36.368253      36.368253      1.2952122     -2107.2268      661.18661     -1067.7916    
     19800   19800          296.50376     -1260.992      -2368.4348     -1485.4718      2662.3646     -4147.8364      693.36381      1984.2258     -2057.6786      15.181628     -922.91056     -1612.5709     -2247.4476     -263.57629      48012.496      36.345565      36.345565      36.345565      1.2976392     -555.1819      -1000.4923     -2227.3019    
     19900   19900          296.72128     -1583.3144     -2556.4121     -1449.7077      2664.3178     -4114.0255      706.2712       2026.1119     -2070.0255      15.600811     -939.11341     -1608.1952     -2244.6753     -264.0414       47927.923      36.324212      36.324212      36.324212      1.299929      -784.33689     -2905.4564     -1060.1499    
     20000   20000          303.11198     -762.15771     -1881.9471     -1350.7143      2721.7011     -4072.4155      723.53492      2052.5637     -2068.5296      16.500081     -936.27417     -1612.5404     -2247.67       -264.7869       47792.983      36.29009       36.29009       36.29009       1.3035993      150.31468     -3003.3877      566.59985    
     20100   20100          305.12472     -687.42806     -1838.9966     -1361.6008      2739.7739     -4101.3747      742.68076      1980.4956     -2062.3925      13.984732     -910.90092     -1615.2517     -2249.9908     -265.75727      47618.473      36.245867      36.245867      36.245867      1.3083766     -339.64279     -810.3625      -912.27889    
     20200   20200          301.76878     -762.62854     -2002.6592     -1473.0595      2709.6402     -4182.6997      681.0785       2004.5571     -2062.5399      14.753124     -964.71076     -1607.9273     -2247.9105     -265.76745      47616.65       36.245404      36.245404      36.245404      1.3084267      244.73927     -1000.2723     -1532.3526    
     20300   20300          300.55913     -1369.9823     -2467.5296     -1515.8704      2698.7786     -4214.649       696.46029      1982.8542     -2076.6183      15.823966     -972.93485     -1611.3747     -2248.8597     -265.68684      47631.097      36.249069      36.249069      36.249069      1.3080299     -1900.8863     -1958.8855     -250.17508    
     20400   20400          295.79348     -524.43555     -1899.7727     -1536.1568      2655.9869     -4192.1437      759.94152      1914.9861     -2077.4487      15.615818     -931.89203     -1622.6205     -2250.726      -266.18634      47541.717      36.226381      36.226381      36.226381      1.310489       540.52017     -1291.3223     -822.50454    
     20500   20500          299.63743     -786.98498     -2097.4032     -1551.5724      2690.5024     -4242.0748      707.79443      1949.4942     -2095.2831      15.531112     -960.69148     -1610.9257     -2247.9943     -266.10002      47557.139      36.230298      36.230298      36.230298      1.310064      -1714.3185     -100.04528     -546.59117    
     20600   20600          297.8191      -72.970598     -1634.3676     -1583.6275      2674.1753     -4257.8028      651.85032      1967.5817     -2097.0763      16.552076     -939.40604     -1610.0169     -2247.2877     -265.41972      47679.034      36.261226      36.261226      36.261226      1.3067148     -795.72662     -45.722585      622.53741    
     20700   20700          297.03377     -1357.8082     -2516.9765     -1570.476       2667.1236     -4237.5996      705.92322      1919.6124     -2082.45        15.818596     -933.27553     -1613.075      -2250.1533     -264.76106      47797.647      36.291271      36.291271      36.291271      1.3034721     -460.03709     -2384.383      -1229.0046    
     20800   20800          301.07123     -563.27223     -1868.9961     -1475.6238      2703.3768     -4179.0006      710.8424       1983.3148     -2068.4049      15.672491     -961.68576     -1607.0666     -2251.673      -264.27192      47886.116      36.313647      36.313647      36.313647      1.3010639     -1303.491      -425.13923      38.81355     
     20900   20900          298.26505     -1613.9231     -2569.9278     -1440.64        2678.1796     -4118.8196      738.99238      1986.9233     -2055.7648      15.460711     -940.63517     -1609.6398     -2254.1562     -263.76351      47978.416      36.336964      36.336964      36.336964      1.2985609     -3244.4623     -917.17771     -680.12927    
     21000   21000          304.07977     -365.45717     -1730.4969     -1474.718       2730.3911     -4205.109       661.7231       1977.1104     -2066.989       15.752496     -925.19991     -1615.2092     -2252.297      -263.69885      47990.182      36.339934      36.339934      36.339934      1.2982426     -877.15354     -295.57635      76.358387    
     21100   21100          293.78781     -478.76809     -1876.5965     -1541.1978      2637.9776     -4179.1754      711.62929      1980.0951     -2076.5719      16.503011     -946.76633     -1613.609      -2250.4556     -263.45136      48035.264      36.35131       36.35131       36.35131       1.2970241     -1154.062       277.08738     -559.3297     
     21200   21200          292.96572     -955.34016     -2212.6581     -1543.7822      2630.5959     -4174.3781      707.07924      1979.1684     -2080.5573      15.704637     -934.1625      -1613.7211     -2247.8896     -263.6022       48007.777      36.344374      36.344374      36.344374      1.2977668     -1868.4536     -2036.0796      1038.5127    
     21300   21300          309.00091     -1186.3969     -2281.7051     -1451.653       2774.5789     -4226.2319      681.1886       1944.8538     -2065.8204      15.524552     -936.13715     -1615.7605     -2250.0809     -263.79171      47973.288      36.335669      36.335669      36.335669      1.2986998     -466.4421      -2485.2722     -607.47643    
     21400   21400          303.93299     -774.1814      -1904.5648     -1363.9419      2729.0732     -4093.0151      706.31883      2004.3492     -2051.1494      15.147326     -898.82528     -1617.4966     -2251.3592     -264.29249      47882.389      36.312705      36.312705      36.312705      1.3011652     -1289.8852     -234.11334     -798.54569    
     21500   21500          300.9746      -432.48563     -1727.4995     -1425.3892      2702.5091     -4127.8983      707.96476      1973.196      -2061.4598      15.168144     -895.98086     -1615.5458     -2251.2407     -264.20599      47898.065      36.316668      36.316668      36.316668      1.3007393     -484.62736     -891.559        78.729479    
[...]
    495100   495100         304.36717     -1603.5775     -2575.869      -1439.5372      2732.9717     -4172.509       678.50243      1966.1632     -2066.2905      15.509559     -915.91819     -1603.7847     -2246.6908     -260.44818      48589.15       36.490496      36.490496      36.490496      1.2822389     -1791.2912     -1388.8859     -1630.5553    
    495200   495200         303.69705     -979.44219     -2088.7355     -1393.5318      2726.9545     -4120.4864      701.60772      1961.1394     -2071.4622      15.494229     -877.87415     -1604.4665     -2244.9249     -260.01791      48669.554      36.510613      36.510613      36.510613      1.2801206     -1157.2968     -604.39392     -1176.6358    
    495300   495300         308.76751     -1869.6963     -2707.6383     -1376.6714      2772.4832     -4149.1546      714.42142      1954.288      -2063.7978      15.141237     -928.31883     -1599.4997     -2241.3889     -259.26288      48811.29       36.546021      36.546021      36.546021      1.2764034     -2421.1433     -1501.922      -1686.0237    
    495400   495400         297.66036     -1042.1066     -2207.8157     -1466.6412      2672.75       -4139.3912      718.40623      1911.6808     -2045.3237      14.937006     -894.52421     -1604.8922     -2239.6751     -259.49453      48767.717      36.535143      36.535143      36.535143      1.2775439      23.297158     -760.61806     -2388.9989    
    495500   495500         293.9659      -1439.9306     -2544.0711     -1523.6129      2639.5767     -4163.1896      736.77746      1935.4424     -2076.8232      14.577802     -926.94836     -1607.4186     -2238.7971     -260.42512      48593.453      36.491573      36.491573      36.491573      1.2821253      856.32036     -2948.2093     -2227.9029    
    495600   495600         295.12951     -2089.6075     -2989.4564     -1515.1206      2650.025      -4165.1456      709.46435      1955.7122     -2046.2038      15.238976     -952.74307     -1606.2841     -2240.3301     -261.58018      48378.879      36.437782      36.437782      36.437782      1.2878119     -2556.2627     -2155.3148     -1557.245     
    495700   495700         302.62086      861.11711     -844.64453     -1447.5462      2717.2913     -4164.8375      681.88271      1945.4968     -2078.0869      15.439884     -878.71474     -1608.877      -2241.9784     -263.60414      48007.425      36.344286      36.344286      36.344286      1.2977763      1722.136      -330.98516      1192.2005    
    495800   495800         303.69298     -1762.5219     -2649.7538     -1418.8325      2726.918      -4145.7506      711.51537      1985.7663     -2072.3971      15.751646     -934.1783      -1608.5375     -2243.6711     -264.26568      47887.247      36.313933      36.313933      36.313933      1.3010332     -1555.8046     -1968.1779     -1763.5832    
    495900   495900         296.13066     -642.14993     -1992.5993     -1544.9561      2659.0145     -4203.9706      687.33775      1973.1947     -2073.3925      16.579201     -952.26132     -1610.5663     -2244.8621     -264.75309      47799.086      36.291635      36.291635      36.291635      1.3034328      1313.9647     -1835.9632     -1404.4513    
    496000   496000         296.45404     -1073.4902     -2326.9732     -1579.6235      2661.9182     -4241.5416      663.21758      1932.9953     -2066.8498      14.279004     -930.28074     -1612.2655     -2242.6375     -265.1006       47736.428      36.27577       36.27577       36.27577       1.3051437     -1134.1506     -1130.833      -955.48686    
    496100   496100         298.82555     -1223.4038     -2388.1959     -1536.0271      2683.2124     -4219.2395      690.52931      1943.6037     -2070.3125      15.018122     -945.24555     -1611.1901     -2241.6425     -264.96026      47761.713      36.282174      36.282174      36.282174      1.3044527     -1313.8091     -1818.78       -537.62236    
    496200   496200         300.59626     -414.93261     -1765.4233     -1476.2726      2699.112      -4175.3846      691.08416      1972.6656     -2067.3959      15.999067     -934.92033     -1609.8584     -2242.9588     -264.84381      47782.713      36.287491      36.287491      36.287491      1.3038794     -1286.1158     -648.4419       689.75988    
    496300   496300         310.57043     -1654.5971     -2620.2166     -1466.4034      2788.672      -4255.0754      664.23612      1954.9458     -2085.394       15.145524     -957.68849     -1604.3876     -2241.9328     -264.66302      47815.353      36.295751      36.295751      36.295751      1.3029894     -2686.9645     -1082.8367     -1193.9901    
    496400   496400         296.41097     -1705.845      -2758.1618     -1565.5251      2661.5315     -4227.0565      685.20829      1963.7998     -2080.9369      16.270792     -959.73148     -1610.2172     -2241.4498     -263.9781       47939.416      36.327115      36.327115      36.327115      1.2996174     -1971.1944     -1514.3217     -1632.0188    
    496500   496500         291.6358      -1229.1578     -2466.9548     -1606.4305      2618.6542     -4225.0848      687.93597      1939.0032     -2082.5758      15.008379     -924.16165     -1616.7112     -2243.5837     -263.62163      48004.239      36.343482      36.343482      36.343482      1.2978624     -781.18365     -1831.2837     -1075.0062    
    496600   496600         297.20552     -1471.3651     -2587.754      -1556.7736      2668.6659     -4225.4395      677.8391       1984.1198     -2097.8528      15.918733     -950.49366     -1611.3479     -2243.6228     -263.3944       48045.652      36.35393       36.35393       36.35393       1.2967437     -1279.1939     -1814.5802     -1320.3211    
    496700   496700         300.2678      -401.56093     -1788.8572     -1507.9024      2696.1627     -4204.0651      664.97578      1974.7742     -2073.4283      15.606105     -918.7775      -1620.8447     -2246.3707     -263.78588      47974.349      36.335937      36.335937      36.335937      1.298671      -1243.4072      1980.2972     -1941.5728    
    496800   496800         299.20239     -895.89828     -2102.0309     -1475.6033      2686.5962     -4162.1995      682.0095       1969.9915     -2086.6662      15.470252     -882.33505     -1614.6869     -2245.9827     -263.95163      47944.223      36.328329      36.328329      36.328329      1.2994871     -1915.475       389.16761     -1161.3875    
    496900   496900         297.98166     -2142.5085     -2960.7701     -1459.7219      2675.6349     -4135.3568      721.37458      1987.4184     -2067.9149      15.642449     -934.41667     -1612.5195     -2244.9411     -263.42952      48039.246      36.352314      36.352314      36.352314      1.2969166     -1468.342      -4014.5532     -944.63024    
    497000   497000         290.59684     -939.11806     -2222.2473     -1563.4538      2609.3252     -4172.779       679.14074      1954.7355     -2057.9186      15.80217      -905.34401     -1616.1235     -2243.0714     -263.09186      48100.902      36.367859      36.367859      36.367859      1.2952543     -432.58397     -1356.2166     -1028.5536    
    497100   497100         293.25182     -1114.0931     -2383.8403     -1599.727       2633.1648     -4232.8918      674.13931      1935.5373     -2065.8741      15.755862     -939.34824     -1608.6913     -2244.4106     -262.22806      48259.35       36.407749      36.407749      36.407749      1.2910016     -1501.7516     -1397.8931     -442.63451    
    497200   497200         298.32144     -1262.1511     -2439.8406     -1550.1822      2678.6859     -4228.8682      696.08691      1925.0864     -2083.7463      14.600125     -917.95987     -1617.1584     -2245.7771     -261.83315      48332.138      36.426043      36.426043      36.426043      1.2890574     -330.3237      -2214.7517     -1241.3779    
    497300   497300         299.54764     -537.83012     -1862.5587     -1482.1938      2689.6963     -4171.89        685.42482      1972.6828     -2104.1311      15.399966     -877.31292     -1617.1127     -2246.8409     -260.96437      48493.04       36.466421      36.466421      36.466421      1.2847802     -236.93046     -1586.4005      209.84059    
    497400   497400         300.68955     -2204.45       -3014.7991     -1448.6725      2699.9496     -4148.6221      728.98209      1965.6045     -2087.7341      15.152985     -911.33266     -1612.4741     -2246.8208     -259.78251      48713.656      36.521637      36.521637      36.521637      1.2789617     -2024.3318     -3559.7868     -1029.2316    
    497500   497500         302.99659      154.04589     -1339.0802     -1448.5268      2720.665      -4169.1918      663.74931      1944.2052     -2079.3741      15.360717     -855.86913     -1613.2884     -2243.9754     -259.76723      48716.522      36.522354      36.522354      36.522354      1.2788864     -1327.6046      801.2883       988.45396    
    497600   497600         295.79624     -1247.2233     -2340.2524     -1452.5585      2656.0116     -4108.5701      699.17909      1994.7786     -2075.2514      15.717278     -899.49448     -1602.7449     -2240.7544     -259.30894      48802.62       36.543857      36.543857      36.543857      1.2766302     -2083.3663     -607.72432     -1050.5793    
    497700   497700         303.44383     -935.05727     -2123.8609     -1460.969       2724.6808     -4185.6499      677.64114      1922.0226     -2071.5233      14.944342     -877.04999     -1610.7643     -2240.9204     -260.33468      48610.333      36.495798      36.495798      36.495798      1.2816801      201.48194     -1617.3718     -1389.282     
    497800   497800         295.32703     -1585.3885     -2602.2102     -1481.343       2651.7986     -4133.1415      704.86066      2017.9111     -2080.9688      16.288934     -942.09549     -1609.6733     -2239.4646     -261.04662      48477.762      36.462591      36.462591      36.462591      1.2851851     -2406.7323     -2083.8448     -265.58836    
    497900   497900         299.66496     -1698.4813     -2739.8489     -1542.1302      2690.7497     -4232.8799      701.88558      1931.2674     -2065.8631      15.639132     -965.22046     -1609.4338     -2241.1547     -261.72335      48352.413      36.431136      36.431136      36.431136      1.2885168     -2233.6715     -1837.8744     -1023.898     
    498000   498000         294.5281      -467.37173     -1944.5167     -1616.0995      2644.6248     -4260.7243      656.58648      1898.7425     -2076.2195      14.528011     -898.74401     -1614.302      -2241.3158     -262.64744      48182.293      36.38836       36.38836       36.38836       1.2930663     -571.33723     -221.69155     -609.08643    
    498100   498100         298.44134     -381.21868     -1825.2036     -1557.627       2679.7625     -4237.3895      631.51594      2008.985      -2088.2142      15.875933     -959.16671     -1607.9539     -2238.4316     -262.94359      48128.026      36.374694      36.374694      36.374694      1.2945243     -30.874975     -1239.6561      126.87499    
    498200   498200         300.766       -1643.8511     -2645.6221     -1492.2555      2700.6361     -4192.8916      729.63713      1942.9758     -2076.0127      15.475379     -947.37016     -1614.2743     -2243.3227     -263.04595      48109.297      36.369975      36.369975      36.369975      1.2950282     -3417.5671     -1778.5594      264.57315    
    498300   498300         301.79386     -331.71405     -1750.2587     -1518.1303      2709.8655     -4227.9958      662.15966      1916.345      -2065.7023      14.281689     -889.05096     -1624.2557     -2241.7731     -263.73763      47983.125      36.338152      36.338152      36.338152      1.2984335     -1937.4728      854.06577      88.264921    
    498400   498400         299.06369     -1777.1535     -2799.745      -1553.9009      2685.3507     -4239.2516      668.46094      1958.0058     -2079.0702      14.331324     -941.9807      -1617.3569     -2241.6418     -263.26781      48068.755      36.359756      36.359756      36.359756      1.2961205     -1018.4732     -1712.8116     -2600.1756    
    498500   498500         298.40372     -2113.8108     -3070.1274     -1584.5128      2679.4247     -4263.9375      673.25225      1926.8451     -2083.7659      15.524138     -941.17125     -1610.8075     -2243.8144     -262.60105      48190.803      36.390503      36.390503      36.390503      1.2928379     -2920.6665     -1132.5203     -2288.2457    
    498600   498600         296.94951     -641.92527     -2021.4887     -1570.1586      2666.3671     -4236.5257      647.69119      1932.4412     -2064.3846      14.696363     -912.66173     -1610.7066     -2243.6016     -262.49842      48209.645      36.395245      36.395245      36.395245      1.2923326     -30.13631      -221.15823     -1674.4813    
    498700   498700         300.1946      -394.85231     -1743.0108     -1465.058       2695.5054     -4160.5634      692.72983      1987.086      -2079.1821      16.6924       -919.68386     -1612.7134     -2245.4922     -262.18043      48268.118      36.409953      36.409953      36.409953      1.2907671     -728.77695     -427.10998     -28.67        
    498800   498800         294.55311     -878.49034     -2057.4654     -1439.9017      2644.8493     -4084.7511      695.60521      2045.0483     -2068.0719      16.49332      -915.55256     -1613.7355     -2244.5379     -262.53774      48202.425      36.393428      36.393428      36.393428      1.2925262     -269.22851     -557.92342     -1808.3191    
    498900   498900         302.26127     -977.4189      -2144.2245     -1459.9093      2714.0625     -4173.9718      698.30993      1966.3891     -2083.5161      14.945851     -902.89521     -1620.7851     -2246.4202     -263.60951      48006.446      36.344039      36.344039      36.344039      1.2978027      312.14524     -1583.9727     -1660.4292    
    499000   499000         295.0926      -648.41695     -2009.69       -1556.5091      2649.6936     -4206.2026      684.66508      1930.755      -2074.3382      15.188232     -896.80912     -1619.0554     -2246.6083     -264.07014      47922.706      36.322894      36.322894      36.322894      1.3000705     -272.36125     -474.18876     -1198.7008    
    499100   499100         290.50749     -973.93548     -2258.433      -1576.5819      2608.523      -4185.1048      680.57499      1974.2558     -2064.4795      16.376169     -927.56455     -1617.6159     -2246.6518     -263.61927      48004.669      36.34359       36.34359       36.34359       1.2978508      153.39835     -1849.9599     -1225.2449    
    499200   499200         298.5721      -571.16495     -1929.9376     -1529.2083      2680.9366     -4210.145       679.53742      1970.6405     -2096.8069      15.743973     -915.27639     -1618.1175     -2245.8661     -263.0553       48107.586      36.369544      36.369544      36.369544      1.2950743      150.52071     -1633.1069     -230.90871    
    499300   499300         296.58246     -1738.516      -2733.0045     -1511.5715      2663.0713     -4174.6428      707.74903      1984.9179     -2078.4708      15.326667     -943.56246     -1614.8323     -2245.7709     -262.69124      48174.259      36.386338      36.386338      36.386338      1.2932819     -199.73761     -2563.466      -2452.3445    
    499400   499400         299.57825     -1730.6344     -2694.3807     -1480.7408      2689.971      -4170.7118      712.11341      1974.8145     -2094.4751      15.73498      -917.36763     -1615.1249     -2246.4071     -263.17948      48084.888      36.363823      36.363823      36.363823      1.2956856     -885.1756      -1930.2194     -2376.5083    
    499500   499500         310.96894     -1438.678      -2396.4272     -1388.6356      2792.2503     -4180.8859      708.33229      1947.92       -2075.0682      15.25458      -912.02028     -1616.3757     -2248.9285     -263.46894      48032.06       36.350501      36.350501      36.350501      1.2971107     -1133.1801     -2037.8567     -1144.9972    
    499600   499600         311.77615     -657.19641     -1778.2686     -1317.4742      2799.4984     -4116.9726      705.26019      1978.7196     -2077.5048      15.560794     -871.62085     -1619.1022     -2248.2853     -263.22344      48076.858      36.361799      36.361799      36.361799      1.295902      -1882.6056      381.81531     -470.79889    
    499700   499700         312.27645     -1125.1577     -2219.2839     -1427.9632      2803.9906     -4231.9538      682.07779      1972.7721     -2087.3676      15.857031     -951.40937     -1615.3009     -2248.5829     -262.42028      48224.001      36.398857      36.398857      36.398857      1.2919479     -744.89514     -1460.5399     -1170.0379    
    499800   499800         297.12995     -1805.5181     -2761.5021     -1489.3749      2667.9873     -4157.3622      704.91571      1979.0067     -2059.1779      15.159924     -943.02439     -1607.4694     -2246.7729     -261.94363      48311.753      36.420922      36.420922      36.420922      1.2896013     -2318.1022     -957.02656     -2141.4255    
    499900   499900         300.74328     -392.8709      -1788.5728     -1511.362       2700.4321     -4211.794       697.21012      1926.9137     -2074.6203      14.448628     -916.40641     -1612.7821     -2246.5577     -261.56295      48382.066      36.438582      36.438582      36.438582      1.2877271     -1400.7229     -440.69693      662.80714    
    500000   500000         296.98447     -992.2718      -2220.9894     -1518.5592      2666.681      -4185.2402      682.07579      1963.7182     -2089.5193      15.159466     -895.2166      -1612.6426     -2248.8153     -260.71379      48539.649      36.4781        36.4781        36.4781        1.2835465     -1371.1069     -1558.9189     -46.789587    
Loop time of 942.113 on 1 procs for 500000 steps with 3620 atoms

Performance: 45.854 ns/day, 0.523 hours/ns, 530.722 timesteps/s, 1.921 Matom-step/s
100.0% CPU use with 1 MPI tasks x 1 OpenMP threads

MPI task timing breakdown:
Section |  min time  |  avg time  |  max time  |%varavg| %total
---------------------------------------------------------------
Pair    | 60.574     | 60.574     | 60.574     |   0.0 |  6.43
Bond    | 102.11     | 102.11     | 102.11     |   0.0 | 10.84
Kspace  | 434.08     | 434.08     | 434.08     |   0.0 | 46.08
Neigh   | 38.666     | 38.666     | 38.666     |   0.0 |  4.10
Comm    | 9.1167     | 9.1167     | 9.1167     |   0.0 |  0.97
Output  | 2.9569     | 2.9569     | 2.9569     |   0.0 |  0.31
Modify  | 268.42     | 268.42     | 268.42     |   0.0 | 28.49
Other   |            | 26.19      |            |       |  2.78

Nlocal:           3620 ave        3620 max        3620 min
Histogram: 1 0 0 0 0 0 0 0 0 0
Nghost:          12070 ave       12070 max       12070 min
Histogram: 1 0 0 0 0 0 0 0 0 0
Neighs:              0 ave           0 max           0 min
Histogram: 1 0 0 0 0 0 0 0 0 0
FullNghs:    1.709e+06 ave   1.709e+06 max   1.709e+06 min
Histogram: 1 0 0 0 0 0 0 0 0 0

Total # of neighbors = 1709000
Ave neighs/atom = 472.09945
Ave special neighs/atom = 5.9723757
Neighbor list builds = 11546
Dangerous builds = 0
System init for write_data ...
PPPM Kokkos initialization ...
  using 12-bit tables for long-range coulomb
  G vector (1/distance) = 0.2976993
  grid = 25 25 25
  stencil order = 5
  estimated absolute RMS force accuracy = 0.00032813769
  estimated relative force accuracy = 9.881769e-07
  using double precision cuFFT
  3d grid and FFT values/proc = 32768 15625
Generated 6 of 6 mixed pair_coeff terms from sixthpower/sixthpower mixing rule
STAGE COMPLETE: NPT T=300.0->300.0K P=-1000.0->-1000.0atm steps=500000
