units real
atom_style full
boundary p p p

# --- Force Field (injected via PAIR_STYLE_BLOCK) ---
pair_style lj/class2/coul/cut 9.5 9.5
dielectric 1.000000
bond_style class2
angle_style class2
dihedral_style class2
improper_style class2
special_bonds lj/coul 0 0 1
pair_modify mix sixthpower tail yes
neighbor 2.0 bin
neigh_modify delay 0 every 1 check yes
neigh_modify one 4000
# KOKKOS: package loaded via -pk kokkos on the command line

read_data /home/alexzhao/PolyJarvis/data/PVC2/lammps/equil/nvt_softheat/nvt_softheat_out.data
Reading data file ...
  orthogonal box = (0 0 0) to (48.385495 48.385495 48.385495)
  1 by 1 by 1 MPI processor grid
WARNING: Pair style lj/class2/coul/long/kk in data file differs from currently defined pair style lj/class2/coul/cut/kk (src/read_data.cpp:811)
  reading atoms ...
  3620 atoms
  reading velocities ...
  3620 velocities
  scanning bonds ...
  4 = max bonds/atom
  scanning angles ...
  12 = max angles/atom
  scanning dihedrals ...
  24 = max dihedrals/atom
  scanning impropers ...
  10 = max impropers/atom
  orthogonal box = (0 0 0) to (48.385495 48.385495 48.385495)
  1 by 1 by 1 MPI processor grid
  reading bonds ...
  3610 bonds
  reading angles ...
  7200 angles
  reading dihedrals ...
  10710 dihedrals
  reading impropers ...
  4800 impropers
Finding 1-2 1-3 1-4 neighbors ...
  special bond factors lj:    0        0        1       
  special bond factors coul:  0        0        1       
     4 = max # of 1-2 neighbors
     6 = max # of 1-3 neighbors
    10 = max # of special neighbors
  special bonds CPU = 0.004 seconds
  read_data CPU = 0.245 seconds
include /home/alexzhao/PolyJarvis/data/PVC2/lammps/equil/emc_build.params
# LAMMPS parameters created by EMC v9.4.4, build Jul 31 2025 20:33:44

# Variables

variable	seed		index	482917
variable	ntotal		index	3620
variable	fshape		index	1
variable	output		index	emc_build
variable	field		index	pcff/pcff
variable	location1	index	~/emc/field/
variable	nav		index	0.6022141179
variable	temperature	index	300
variable	radius		index	5
variable	nrelax		index	100
variable	weight_nonbond	index	0.0001
variable	weight_bond	index	0.0001
variable	weight_focus	index	1
variable	cutoff		index	9.5
variable	charge_cutoff	index	9.5
variable	kappa		index	4
variable	density1	index	0.55
variable	lprevious	index	0
variable	lphase		index	48.3854950346
variable	f_poly		index	10
variable	chem_repeat	index	*CC(Cl)*
variable	chem_cap	index	*[H]
variable	lg_repeat	index	6
variable	lg_cap		index	1
variable	norm_poly	index	100
variable	l_poly		index	362
variable	mg_repeat	index	50.48806
variable	mg_cap		index	1.00797
variable	m_poly		index	3031.29954
variable	n_poly		index	10
variable	mtotal		index	37519.6854
variable	nphase1		index	3620
variable	mphase1		index	37519.6854
variable	vphase1		index	113277.998291
variable	lbox		index	48.3854950346
variable	lphase1		index	48.3854950346
variable	lxx		index	48.3854950346
variable	lyy		index	48.3854950346
variable	lzz		index	48.3854950346
variable	lzy		index	0
variable	lzx		index	0
variable	lyx		index	0
variable	vtotal		index	113277.998291
variable	nl_poly		index	10

# Types

variable	type_c		index	1
variable	type_c1		index	2
variable	type_cl		index	3
variable	type_hc		index	4

variable	type_bond_c_c	index	1
variable	type_bond_c_c1	index	2
variable	type_bond_c_cl	index	3
variable	type_bond_c_hc	index	4
variable	type_bond_c1_cl	index	5
variable	type_bond_c1_hc	index	6

variable	type_angle_c_c_c1 index	1
variable	type_angle_c_c_cl index	2
variable	type_angle_c_c_hc index	3
variable	type_angle_c_c1_c index	4
variable	type_angle_c_c1_cl index	5
variable	type_angle_c_c1_hc index	6
variable	type_angle_c1_c_c1 index	7
variable	type_angle_c1_c_hc index	8
variable	type_angle_cl_c_hc index	9
variable	type_angle_cl_c1_hc index	10
variable	type_angle_hc_c_hc index	11

# Clusters

variable	n0_poly		index	1
variable	n1_poly		index	10
variable	nl_poly		index	10

# Flags

variable	flag_charged	index	1

# Masses

mass		1    12.01115  # c
mass		2    12.01115  # c1
mass		3    35.45300  # cl
mass		4     1.00797  # hc

# Potentials

pair_modify	mix sixthpower tail yes
special_bonds	lj/coul 0 0 1

# Pair Coeffs

pair_coeff	 1  1    0.05400    4.01000  # c,c
pair_coeff	 2  2    0.05400    4.01000  # c1,c1
pair_coeff	 3  3    0.22470    3.92000  # cl,cl
pair_coeff	 4  4    0.02000    2.99500  # hc,hc

# Bond Coeffs

bond_coeff	1    1.53000  299.67000 -501.77000  679.81000  # c,c
bond_coeff	2    1.53000  299.67000 -501.77000  679.81000  # c,c1
bond_coeff	3    1.79000  194.31900    0.00000    0.00000  # c,cl
bond_coeff	4    1.10100  345.00000 -691.89000  844.60000  # c,hc
bond_coeff	5    1.79000  194.31900    0.00000    0.00000  # c1,cl
bond_coeff	6    1.10100  345.00000 -691.89000  844.60000  # c1,hc

# Angle Coeffs

angle_coeff	 1  112.67000   39.51600   -7.44300   -9.55830  # c,c,c1
angle_coeff	 2  107.00000   61.17450    0.00000    0.00000  # c,c,cl
angle_coeff	 3  110.77000   41.45300  -10.60400    5.12900  # c,c,hc
angle_coeff	 4  112.67000   39.51600   -7.44300   -9.55830  # c,c1,c
angle_coeff	 5  107.00000   61.17450    0.00000    0.00000  # c,c1,cl
angle_coeff	 6  110.77000   41.45300  -10.60400    5.12900  # c,c1,hc
angle_coeff	 7  112.67000   39.51600   -7.44300   -9.55830  # c1,c,c1
angle_coeff	 8  110.77000   41.45300  -10.60400    5.12900  # c1,c,hc
angle_coeff	 9  107.99680   51.09870    0.00000    0.00000  # cl,c,hc
angle_coeff	10  107.99680   51.09870    0.00000    0.00000  # cl,c1,hc
angle_coeff	11  107.66000   39.64100  -12.92100   -2.43180  # hc,c,hc

# BondBond Coeffs

angle_coeff	 1 bb    0.00000    1.53000    1.53000  # c,c,c1
angle_coeff	 2 bb    0.00000    1.53000    1.79000  # c,c,cl
angle_coeff	 3 bb    3.38720    1.53000    1.10100  # c,c,hc
angle_coeff	 4 bb    0.00000    1.53000    1.53000  # c,c1,c
angle_coeff	 5 bb    0.00000    1.53000    1.79000  # c,c1,cl
angle_coeff	 6 bb    3.38720    1.53000    1.10100  # c,c1,hc
angle_coeff	 7 bb    0.00000    1.53000    1.53000  # c1,c,c1
angle_coeff	 8 bb    3.38720    1.53000    1.10100  # c1,c,hc
angle_coeff	 9 bb    0.00000    1.79000    1.10100  # cl,c,hc
angle_coeff	10 bb    0.00000    1.79000    1.10100  # cl,c1,hc
angle_coeff	11 bb    5.33160    1.10100    1.10100  # hc,c,hc

# BondAngle Coeffs

angle_coeff	 1 ba    8.01600    8.01600    1.53000    1.53000  # c,c,c1
angle_coeff	 2 ba    0.00000    0.00000    1.53000    1.79000  # c,c,cl
angle_coeff	 3 ba   20.75400   11.42100    1.53000    1.10100  # c,c,hc
angle_coeff	 4 ba    8.01600    8.01600    1.53000    1.53000  # c,c1,c
angle_coeff	 5 ba    0.00000    0.00000    1.53000    1.79000  # c,c1,cl
angle_coeff	 6 ba   20.75400   11.42100    1.53000    1.10100  # c,c1,hc
angle_coeff	 7 ba    8.01600    8.01600    1.53000    1.53000  # c1,c,c1
angle_coeff	 8 ba   20.75400   11.42100    1.53000    1.10100  # c1,c,hc
angle_coeff	 9 ba    0.00000    0.00000    1.79000    1.10100  # cl,c,hc
angle_coeff	10 ba    0.00000    0.00000    1.79000    1.10100  # cl,c1,hc
angle_coeff	11 ba   18.10300   18.10300    1.10100    1.10100  # hc,c,hc

# Dihedral Coeffs

dihedral_coeff	 1    0.00000    0.00000    0.05140    0.00000   -0.14300    0.00000  # c,c,c1,c
dihedral_coeff	 2    0.00000    0.00000    0.00000    0.00000    0.15000    0.00000  # c,c,c1,cl
dihedral_coeff	 3    0.00000    0.00000    0.03160    0.00000   -0.16810    0.00000  # c,c,c1,hc
dihedral_coeff	 4    0.00000    0.00000    0.05140    0.00000   -0.14300    0.00000  # c,c1,c,c1
dihedral_coeff	 5    0.00000    0.00000    0.03160    0.00000   -0.16810    0.00000  # c,c1,c,hc
dihedral_coeff	 6    0.00000    0.00000    0.00000    0.00000    0.15000    0.00000  # c1,c,c,cl
dihedral_coeff	 7    0.00000    0.00000    0.03160    0.00000   -0.16810    0.00000  # c1,c,c,hc
dihedral_coeff	 8    0.00000    0.00000    0.00000    0.00000    0.15000    0.00000  # c1,c,c1,cl
dihedral_coeff	 9    0.00000    0.00000    0.03160    0.00000   -0.16810    0.00000  # c1,c,c1,hc
dihedral_coeff	10    0.00000    0.00000    0.00000    0.00000   -0.10000    0.00000  # cl,c,c,hc
dihedral_coeff	11    0.00000    0.00000    0.00000    0.00000   -0.10000    0.00000  # cl,c1,c,hc
dihedral_coeff	12   -0.14320    0.00000    0.06170    0.00000   -0.10830    0.00000  # hc,c,c,hc
dihedral_coeff	13   -0.14320    0.00000    0.06170    0.00000   -0.10830    0.00000  # hc,c,c1,hc

# MiddleBondTorsion Coeffs

dihedral_coeff	 1 mbt  -17.78700   -7.18770    0.00000    1.53000  # c,c,c1,c
dihedral_coeff	 2 mbt    0.00000    0.00000    0.00000    1.53000  # c,c,c1,cl
dihedral_coeff	 3 mbt  -14.87900   -3.65810   -0.31380    1.53000  # c,c,c1,hc
dihedral_coeff	 4 mbt  -17.78700   -7.18770    0.00000    1.53000  # c,c1,c,c1
dihedral_coeff	 5 mbt  -14.87900   -3.65810   -0.31380    1.53000  # c,c1,c,hc
dihedral_coeff	 6 mbt    0.00000    0.00000    0.00000    1.53000  # c1,c,c,cl
dihedral_coeff	 7 mbt  -14.87900   -3.65810   -0.31380    1.53000  # c1,c,c,hc
dihedral_coeff	 8 mbt    0.00000    0.00000    0.00000    1.53000  # c1,c,c1,cl
dihedral_coeff	 9 mbt  -14.87900   -3.65810   -0.31380    1.53000  # c1,c,c1,hc
dihedral_coeff	10 mbt    0.00000    0.00000    0.00000    1.53000  # cl,c,c,hc
dihedral_coeff	11 mbt    0.00000    0.00000    0.00000    1.53000  # cl,c1,c,hc
dihedral_coeff	12 mbt  -14.26100   -0.53220   -0.48640    1.53000  # hc,c,c,hc
dihedral_coeff	13 mbt  -14.26100   -0.53220   -0.48640    1.53000  # hc,c,c1,hc

# EndBondTorsion Coeffs

dihedral_coeff	 1 ebt   -0.07320    0.00000    0.00000   -0.07320    0.00000    0.00000    1.53000    1.53000  # c,c,c1,c
dihedral_coeff	 2 ebt    0.00000    0.00000    0.00000    0.00000    0.00000    0.00000    1.53000    1.79000  # c,c,c1,cl
dihedral_coeff	 3 ebt    0.24860    0.24220   -0.09250    0.08140    0.05910    0.22190    1.53000    1.10100  # c,c,c1,hc
dihedral_coeff	 4 ebt   -0.07320    0.00000    0.00000   -0.07320    0.00000    0.00000    1.53000    1.53000  # c,c1,c,c1
dihedral_coeff	 5 ebt    0.24860    0.24220   -0.09250    0.08140    0.05910    0.22190    1.53000    1.10100  # c,c1,c,hc
dihedral_coeff	 6 ebt    0.00000    0.00000    0.00000    0.00000    0.00000    0.00000    1.53000    1.79000  # c1,c,c,cl
dihedral_coeff	 7 ebt    0.24860    0.24220   -0.09250    0.08140    0.05910    0.22190    1.53000    1.10100  # c1,c,c,hc
dihedral_coeff	 8 ebt    0.00000    0.00000    0.00000    0.00000    0.00000    0.00000    1.53000    1.79000  # c1,c,c1,cl
dihedral_coeff	 9 ebt    0.24860    0.24220   -0.09250    0.08140    0.05910    0.22190    1.53000    1.10100  # c1,c,c1,hc
dihedral_coeff	10 ebt    0.00000    0.00000    0.00000    0.00000    0.00000    0.00000    1.79000    1.10100  # cl,c,c,hc
dihedral_coeff	11 ebt    0.00000    0.00000    0.00000    0.00000    0.00000    0.00000    1.79000    1.10100  # cl,c1,c,hc
dihedral_coeff	12 ebt    0.21300    0.31200    0.07770    0.21300    0.31200    0.07770    1.10100    1.10100  # hc,c,c,hc
dihedral_coeff	13 ebt    0.21300    0.31200    0.07770    0.21300    0.31200    0.07770    1.10100    1.10100  # hc,c,c1,hc

# AngleTorsion Coeffs

dihedral_coeff	 1 at    0.38860   -0.31390    0.13890    0.38860   -0.31390    0.13890  112.67000  112.67000  # c,c,c1,c
dihedral_coeff	 2 at    0.00000    0.00000    0.00000    0.00000    0.00000    0.00000  112.67000  107.00000  # c,c,c1,cl
dihedral_coeff	 3 at   -0.24540    0.00000   -0.11360    0.31130    0.45160   -0.19880  112.67000  110.77000  # c,c,c1,hc
dihedral_coeff	 4 at    0.38860   -0.31390    0.13890    0.38860   -0.31390    0.13890  112.67000  112.67000  # c,c1,c,c1
dihedral_coeff	 5 at   -0.24540    0.00000   -0.11360    0.31130    0.45160   -0.19880  112.67000  110.77000  # c,c1,c,hc
dihedral_coeff	 6 at    0.00000    0.00000    0.00000    0.00000    0.00000    0.00000  112.67000  107.00000  # c1,c,c,cl
dihedral_coeff	 7 at   -0.24540    0.00000   -0.11360    0.31130    0.45160   -0.19880  112.67000  110.77000  # c1,c,c,hc
dihedral_coeff	 8 at    0.00000    0.00000    0.00000    0.00000    0.00000    0.00000  112.67000  107.00000  # c1,c,c1,cl
dihedral_coeff	 9 at   -0.24540    0.00000   -0.11360    0.31130    0.45160   -0.19880  112.67000  110.77000  # c1,c,c1,hc
dihedral_coeff	10 at    0.00000    0.00000    0.00000    0.00000    0.00000    0.00000  107.00000  110.77000  # cl,c,c,hc
dihedral_coeff	11 at    0.00000    0.00000    0.00000    0.00000    0.00000    0.00000  107.00000  110.77000  # cl,c1,c,hc
dihedral_coeff	12 at   -0.80850    0.55690   -0.24660   -0.80850    0.55690   -0.24660  110.77000  110.77000  # hc,c,c,hc
dihedral_coeff	13 at   -0.80850    0.55690   -0.24660   -0.80850    0.55690   -0.24660  110.77000  110.77000  # hc,c,c1,hc

# AngleAngleTorsion Coeffs

dihedral_coeff	 1 aat  -22.04500  112.67000  112.67000  # c,c,c1,c
dihedral_coeff	 2 aat    0.00000  112.67000  107.00000  # c,c,c1,cl
dihedral_coeff	 3 aat  -16.16400  112.67000  110.77000  # c,c,c1,hc
dihedral_coeff	 4 aat  -22.04500  112.67000  112.67000  # c,c1,c,c1
dihedral_coeff	 5 aat  -16.16400  112.67000  110.77000  # c,c1,c,hc
dihedral_coeff	 6 aat    0.00000  112.67000  107.00000  # c1,c,c,cl
dihedral_coeff	 7 aat  -16.16400  112.67000  110.77000  # c1,c,c,hc
dihedral_coeff	 8 aat    0.00000  112.67000  107.00000  # c1,c,c1,cl
dihedral_coeff	 9 aat  -16.16400  112.67000  110.77000  # c1,c,c1,hc
dihedral_coeff	10 aat    0.00000  107.00000  110.77000  # cl,c,c,hc
dihedral_coeff	11 aat    0.00000  107.00000  110.77000  # cl,c1,c,hc
dihedral_coeff	12 aat  -12.56400  110.77000  110.77000  # hc,c,c,hc
dihedral_coeff	13 aat  -12.56400  110.77000  110.77000  # hc,c,c1,hc

# BondBond13 Coeffs

dihedral_coeff	 1 bb13    0.00000    1.53000    1.53000  # c,c,c1,c
dihedral_coeff	 2 bb13    0.00000    1.53000    1.79000  # c,c,c1,cl
dihedral_coeff	 3 bb13    0.00000    1.53000    1.10100  # c,c,c1,hc
dihedral_coeff	 4 bb13    0.00000    1.53000    1.53000  # c,c1,c,c1
dihedral_coeff	 5 bb13    0.00000    1.53000    1.10100  # c,c1,c,hc
dihedral_coeff	 6 bb13    0.00000    1.53000    1.79000  # c1,c,c,cl
dihedral_coeff	 7 bb13    0.00000    1.53000    1.10100  # c1,c,c,hc
dihedral_coeff	 8 bb13    0.00000    1.53000    1.79000  # c1,c,c1,cl
dihedral_coeff	 9 bb13    0.00000    1.53000    1.10100  # c1,c,c1,hc
dihedral_coeff	10 bb13    0.00000    1.79000    1.10100  # cl,c,c,hc
dihedral_coeff	11 bb13    0.00000    1.79000    1.10100  # cl,c1,c,hc
dihedral_coeff	12 bb13    0.00000    1.10100    1.10100  # hc,c,c,hc
dihedral_coeff	13 bb13    0.00000    1.10100    1.10100  # hc,c,c1,hc

# Improper Coeffs

improper_coeff	 1    0.00000    0.00000  # c,c,cl,hc
improper_coeff	 2    0.00000    0.00000  # c,c,hc,c1
improper_coeff	 3    0.00000    0.00000  # c,c,hc,cl
improper_coeff	 4    0.00000    0.00000  # c,c,hc,hc
improper_coeff	 5    0.00000    0.00000  # c,c1,c1,hc
improper_coeff	 6    0.00000    0.00000  # c,c1,hc,hc
improper_coeff	 7    0.00000    0.00000  # c,cl,hc,hc
improper_coeff	 8    0.00000    0.00000  # c,hc,hc,hc
improper_coeff	 9    0.00000    0.00000  # c1,c,c,cl
improper_coeff	10    0.00000    0.00000  # c1,c,c,hc
improper_coeff	11    0.00000    0.00000  # c1,c,cl,hc

# AngleAngle Coeffs

improper_coeff	 1 aa    0.00000    0.00000    0.00000  107.00000  110.77000  107.99680  # c,c,cl,hc
improper_coeff	 2 aa    0.11840   -1.31990   -1.31990  110.77000  112.67000  110.77000  # c,c,hc,c1
improper_coeff	 3 aa    0.00000    0.00000    0.00000  110.77000  107.00000  107.99680  # c,c,hc,cl
improper_coeff	 4 aa    0.27380   -0.48250    0.27380  110.77000  110.77000  107.66000  # c,c,hc,hc
improper_coeff	 5 aa   -1.31990   -1.31990    0.11840  112.67000  110.77000  110.77000  # c,c1,c1,hc
improper_coeff	 6 aa    0.27380   -0.48250    0.27380  110.77000  110.77000  107.66000  # c,c1,hc,hc
improper_coeff	 7 aa    0.00000    0.00000    0.00000  107.99680  107.99680  107.66000  # c,cl,hc,hc
improper_coeff	 8 aa   -0.31570   -0.31570   -0.31570  107.66000  107.66000  107.66000  # c,hc,hc,hc
improper_coeff	 9 aa    0.00000    0.00000    0.00000  112.67000  107.00000  107.00000  # c1,c,c,cl
improper_coeff	10 aa   -1.31990   -1.31990    0.11840  112.67000  110.77000  110.77000  # c1,c,c,hc
improper_coeff	11 aa    0.00000    0.00000    0.00000  107.00000  110.77000  107.99680  # c1,c,cl,hc


# --- Thermo Output ---
thermo_style custom step time temp press enthalpy etotal ke pe ebond eangle edihed eimp evdwl ecoul vol lx ly lz density pxx pyy pzz
thermo_modify flush yes
thermo 1000

# --- Trajectory ---
dump dump_comp all custom 2000 npt_compress.dump id type mol x y z ix iy iz vx vy vz

restart 10000 compress_1.rst compress_2.rst
velocity all create 600.0 112365 mom yes rot yes dist gaussian
# SHAKE disabled

# --- NPT Compression ---
# High pressure compresses the cell from low to target density
# P ramp: 1.0 -> 50000.0 atm
timestep 0.5
fix npt_comp all npt temp 610.0 610.0 100.0 iso 1.0 50000.0 1000.0

run 300000
Generated 6 of 6 mixed pair_coeff terms from sixthpower/sixthpower mixing rule
Neighbor list info ...
  update: every = 1 steps, delay = 0 steps, check = yes
  max neighbors/atom: 4000, page size: 100000
  master list distance cutoff = 11.5
  ghost atom cutoff = 11.5
  binsize = 11.5, bins = 5 5 5
  1 neighbor lists, perpetual/occasional/extra = 1 0 0
  (1) pair lj/class2/coul/cut/kk, perpetual
      attributes: full, newton off, kokkos_device
      pair build: full/bin/kk/device
      stencil: full/bin/3d
      bin: kk/device
Per MPI rank memory allocation (min/avg/max) = 21.24 | 21.24 | 21.24 Mbytes
   Step          Time           Temp          Press         Enthalpy        TotEng         KinEng         PotEng         E_bond        E_angle        E_dihed        E_impro         E_vdwl         E_coul         Volume           Lx             Ly             Lz          Density          Pxx            Pyy            Pzz      
         0   0              600           -94.260135      7438.8269      7594.5487      6472.5309      1122.0178      2601.3742      3539.4446     -1854.9515      23.805077      444.58883     -3632.2434      113278         48.385495      48.385495      48.385495      0.54999999     281.00648     -433.96361     -129.82327    
      1000   500            598.19621      129.57119      7955.8501      7745.9984      6453.0725      1292.9259      2564.0382      3574.588      -1815.7577      23.895096      560.27976     -3614.1174      111052.47      48.066527      48.066527      48.066527      0.56102215     846.23363     -973.80942      516.28935    
      2000   1000           616.88527      387.95991      8509.2885      7907.3926      6654.6817      1252.7109      2543.0576      3651.3352     -1857.1021      23.109041      429.95656     -3537.6454      106379.68      47.382673      47.382673      47.382673      0.58566543     594.54937      993.02617     -423.6958     
      3000   1500           605.84086      68.279524      7989.12        7888.4506      6535.5395      1352.9111      2612.9205      3599.4613     -1806.7347      22.716996      346.66108     -3422.1141      101095.35      46.584745      46.584745      46.584745      0.61627859     930.87419      276.67918     -1002.7148    
      4000   2000           610.64676      228.34325      7864.8381      7545.9796      6587.3834      958.59619      2420.0478      3486.7244     -1801.7653      22.297056      322.98532     -3491.6931      95748.927      45.748617      45.748617      45.748617      0.6506903     -365.11552      1530.487      -480.34176    
      5000   2500           606.46331      564.47468      8229.3603      7485.8245      6542.2543      943.57022      2437.4617      3561.7843     -1861.7029      23.290487      338.46439     -3555.7277      90319.501      44.867015      44.867015      44.867015      0.6898056     -583.35883      1696.4157      580.36717    
      6000   3000           616.58267     -989.37499      6474.4918      7700.0449      6651.4173      1048.6276      2527.3422      3635.1383     -1842.4286      24.266211      279.52583     -3575.2164      84936.684      43.957377      43.957377      43.957377      0.73352166    -1324.5014     -442.7546      -1200.869     
      7000   3500           619.49631      1475.0714      9339.625       7628.3604      6682.8484      945.51199      2407.54        3605.0864     -1811.3833      23.523236      297.83494     -3577.0893      79547.813      43.007356      43.007356      43.007356      0.78321321     2502.6134      1076.2885      846.31216    
      8000   4000           622.94037      394.92923      8029.4962      7598.1139      6720.0013      878.11259      2487.9082      3576.3496     -1821.5482      23.500022      241.33767     -3629.4348      74897.461      42.152406      42.152406      42.152406      0.83184259    -803.48871      1540.1341      448.14227    
      9000   4500           613.71936      663.55383      8103.225       7421.3176      6620.5293      800.78832      2443.7835      3468.8672     -1790.899       24.156649      189.99048     -3535.1105      70464.98       41.303905      41.303905      41.303905      0.88416825     112.29842      263.05905      1615.304     
     10000   5000           607.22773     -186.92356      6979.6885      7162.061       6550.5004      611.56057      2424.4351      3487.5474     -1800.0091      23.552294      74.941439     -3598.9065      66898.967      40.595055      40.595055      40.595055      0.93129835    -452.15901     -421.44299      312.83133    
     11000   5500           605.01213      965.71725      8233.9618      7343.9069      6526.5995      817.30742      2455.7886      3593.0376     -1839.4852      24.040707      74.82439      -3490.8987      63196.192      39.831834      39.831834      39.831834      0.98586475     1584.3142      1997.3566     -684.51904    
     12000   6000           609.43477      1431.2517      8465.535       7222.969       6574.3091      648.6599       2446.7312      3631.7993     -1849.9439      25.6273        7.8143789     -3613.3684      59528.86       39.045938      39.045938      39.045938      1.0465999      1856.0087      883.71164      1554.0348    
     13000   6500           614.03321      152.11209      7626.4626      7501.0506      6623.9149      877.13571      2452.6208      3584.2477     -1806.5803      24.682281     -10.703737     -3367.1311      56532.694      38.379551      38.379551      38.379551      1.1020684      2185.7577      454.7893      -2184.2107    
     14000   7000           609.31617      718.62989      7779.2128      7212.9684      6573.0296      639.9388       2444.8183      3608.8928     -1806.2425      25.282209     -40.053366     -3592.7586      54028.482      37.804276      37.804276      37.804276      1.1531491      619.60867      1553.7308     -17.44985     
     15000   7500           606.05755      305.07683      7558.046       7325.8371      6537.8771      787.96004      2459.8401      3606.3855     -1797.6477      25.165819     -166.08806     -3339.6957      52190.765      37.370699      37.370699      37.370699      1.1937533      2767.537      -3824.6071      1972.3006    
     16000   8000           619.79206      2204.2978      8866.9472      7227.7779      6686.0388      541.73913      2407.3472      3548.8148     -1775.9984      24.702929     -179.38958     -3483.7378      50989.136      37.081664      37.081664      37.081664      1.2218857      1026.0288      1904.3724      3682.4922    
     17000   8500           607.11181      2576.5762      8884.9771      6991.3589      6549.2499      442.10902      2305.9884      3679.4061     -1781.1144      26.501218     -178.366       -3610.3063      50393.385      36.936679      36.936679      36.936679      1.2363309      2828.7966      2132.1802      2768.7518    
     18000   9000           606.78734      2350.4319      8454.5304      6756.04        6545.7497      210.29032      2335.0499      3527.1137     -1821.7164      25.756031     -141.51826     -3714.3946      49549.531      36.729345      36.729345      36.729345      1.2573862      3131.9701      2309.831       1609.4946    
     19000   9500           597.49738      2778.9091      9013.5409      7024.4875      6445.5338      578.95361      2374.2211      3740.3109     -1812.897       25.202262     -225.93113     -3521.9525      49079.057      36.612726      36.612726      36.612726      1.2694396      3662.7904      4179.2502      494.68679    
     20000   10000          613.69227      5248.5469      10702.282      7013.9165      6620.237       393.67945      2335.1432      3603.0028     -1803.1618      27.478154     -262.23158     -3506.5514      48185.784      36.389239      36.389239      36.389239      1.2929726      3567.1836      6816.8163      5361.6406    
     21000   10500          608.0247       1859.6924      8387.1138      7084.0697      6559.0978      524.97196      2489.0893      3592.0725     -1797.4365      24.985976     -342.61875     -3441.1205      48044.324      36.353595      36.353595      36.353595      1.2967796      1544.5805      1356.7782      2677.7184    
     22000   11000          610.19753      2505.9335      8850.8566      7102.0589      6582.5373      519.52168      2527.9163      3641.569      -1819.3079      24.135795     -314.76301     -3540.0285      47851.343      36.304855      36.304855      36.304855      1.3020094      3779.2746      1031.0316      2707.4944    
     23000   11500          621.78943      5342.34        10951.002      7285.3571      6707.5855      577.77156      2506.7596      3600.8388     -1790.8727      24.039674     -214.60912     -3548.3847      47048.193      36.100591      36.100591      36.100591      1.3242357      4737.3991      5764.7611      5524.8598    
     24000   12000          612.41478      1748.2312      8402.6246      7199.7669      6606.456       593.31085      2438.6949      3725.8435     -1858.5238      25.592008     -366.46796     -3371.8278      47177.998      36.133761      36.133761      36.133761      1.3205922      2075.9008      1840.247       1328.5458    
     25000   12500          605.19388      4690.7414      9967.6518      6793.7139      6528.5602      265.15372      2462.1491      3611.8449     -1880.4458      26.239536     -338.60056     -3616.0335      46396.054      35.933017      35.933017      35.933017      1.3428491      3695.3802      4160.1493      6216.6946    
     26000   13000          599.36667      3635.4518      9280.5669      6841.1589      6465.6988      375.46008      2483.0627      3551.7218     -1821.9371      23.060814     -380.10116     -3480.3469      46009.781      35.833018      35.833018      35.833018      1.3541229      3062.7516      3710.4896      4133.1143    
     27000   13500          605.02073      5551.581       10385.665      6686.2716      6526.6923      159.57935      2377.232       3482.5691     -1850.0511      23.92473      -391.2166      -3482.8788      45691.767      35.750269      35.750269      35.750269      1.3635476      5995.6204      5618.6422      5040.4804    
     28000   14000          609.51728      3054.6742      9185.7462      7141.5875      6575.1991      566.3884       2526.1566      3726.9652     -1849.0778      25.787898     -393.49126     -3469.9522      45885.326      35.80068       35.80068       35.80068       1.3577957      587.95137      4486.7802      4089.2912    
     29000   14500          612.12692      5689.032       10771.671      6997.1452      6603.3507      393.79449      2467.8553      3613.7592     -1854.3117      25.029065     -325.03195     -3533.5054      45493.373      35.698452      35.698452      35.698452      1.3694939      5105.8725      8507.1991      3454.0244    
     30000   15000          600.84284      5126.1757      10318.463      6932.5347      6481.6231      450.91155      2462.4381      3609.8169     -1815.1237      23.447171     -301.83163     -3527.8353      45290.635      35.645343      35.645343      35.645343      1.3756243      5439.7403      5035.0186      4903.7681    
     31000   15500          613.21625      6593.6686      11123.214      6775.5793      6615.1019      160.47744      2257.6899      3677.2456     -1829.6704      25.453479     -362.05312     -3608.1879      45211.621      35.624603      35.624603      35.624603      1.3780284      5543.1388      7554.6127      6683.2542    
     32000   16000          593.23531      5949.0035      10404.483      6533.462       6399.5565      133.90552      2414.916       3549.8939     -1832.6458      22.251673     -368.59503     -3651.9151      44617.516      35.467872      35.467872      35.467872      1.3963776      6570.5303      4032.5204      7243.9599    
     33000   16500          604.27916      5247.7673      10322.03       6879.8606      6518.6927      361.16792      2439.6046      3616.5347     -1834.3042      24.812339     -367.45518     -3518.0245      44976.096      35.562634      35.562634      35.562634      1.3852447      5778.348       5014.5543      4950.3996    
     34000   17000          608.56214      6442.2625      11386.437      7167.3007      6564.8954      602.40526      2376.2179      3699.601      -1858.4524      24.703322     -286.91275     -3352.7518      44906.506      35.544283      35.544283      35.544283      1.3873914      7752.0475      6211.2133      5363.5268    
     35000   17500          605.28368      7108.573       11502.809      6892.8286      6529.5289      363.29968      2354.9249      3699.9261     -1837.7332      25.122889     -414.15621     -3464.7849      44467.301      35.428023      35.428023      35.428023      1.4010947      7776.1441      6959.8039      6589.7711    
     36000   18000          606.34177      8924.7013      12127.597      6374.5791      6540.9432     -166.36407      2407.2558      3513.0556     -1867.0798      24.08787      -397.96827     -3845.7152      44200.393      35.356998      35.356998      35.356998      1.4095553      9329.7359      6909.477       10534.891    
     37000   18500          606.88698      6161.5162      10536.433      6585.4474      6546.8246      38.622881      2388.6656      3560.617      -1793.607       22.262488     -446.70919     -3692.6061      43968.536      35.295066      35.295066      35.295066      1.4169882      4464.3926      7635.8688      6384.2873    
     38000   19000          619.42108      5436.2579      10392.996      6920.157       6682.0369      238.12014      2460.3418      3557.0939     -1801.1336      22.677188     -414.73505     -3586.1241      43803.486      35.250847      35.250847      35.250847      1.4223274      3575.7786      5770.6456      6962.3495    
     39000   19500          606.22512      5534.1273      10534.773      7008.9496      6539.6847      469.26484      2466.2212      3644.5681     -1814.6828      25.415257     -441.77493     -3410.482       43685.316      35.219119      35.219119      35.219119      1.4261748      6117.924       5802.6724      4681.7855    
     40000   20000          605.51097      6841.047       11225.342      6881.4743      6531.9808      349.49347      2302.6961      3716.9702     -1840.1437      23.157357     -399.62416     -3453.5623      43538.968      35.179747      35.179747      35.179747      1.4309686      6183.6547      7771.1313      6568.355     
     41000   20500          592.9267       6759.5104      10804.771      6515.0637      6396.2274      118.83631      2362.0029      3541.4668     -1861.8851      24.108567     -401.2905      -3545.5663      43514.756      35.173225      35.173225      35.173225      1.4317648      7547.4651      4374.4646      8356.6015    
     42000   21000          611.32078      9828.2019      12956.461      6812.7951      6594.6544      218.14072      2299.4177      3604.9591     -1810.4021      24.146086     -334.8716      -3565.1085      42862.511      34.996601      34.996601      34.996601      1.4535522      11009.295      10469.886      8005.4252    
     43000   21500          614.02787      5947.8191      10542.766      6761.2675      6623.8573      137.4102       2413.071       3635.4525     -1836.8179      24.984221     -393.00938     -3706.2704      43594.361      35.19466       35.19466       35.19466       1.4291504      8462.4936      3926.2251      5454.7387    
     44000   22000          622.18513      7594.1446      11835.339      7042.4872      6711.8542      330.63303      2455.6189      3667.0744     -1854.1282      24.20638      -305.20848     -3656.93        43275.219      35.108566      35.108566      35.108566      1.43969        8058.719       7517.3529      7206.362     
     45000   22500          618.77375      7932.3849      11976.007      7005.4915      6675.0537      330.43783      2406.7496      3602.5362     -1827.836       22.734895     -419.50383     -3454.2431      42965.686      35.024659      35.024659      35.024659      1.4500617      5622.1425      9095.2206      9079.7914    
     46000   23000          608.05165      6146.9724      10483.335      6596.3827      6559.3886      36.994135      2407.0474      3578.9342     -1854.691       24.065183     -422.56312     -3695.7985      43358.283      35.131014      35.131014      35.131014      1.4369319      5810.1221      5109.5359      7521.2592    
     47000   23500          615.96666      7313.9947      11248.38       6722.5639      6644.7721      77.791846      2384.4423      3521.9443     -1803.2698      22.126107     -431.53351     -3615.9176      42429.344      34.878311      34.878311      34.878311      1.4683917      7507.5699      6166.4932      8267.9212    
     48000   24000          607.07226      7718.5918      11728.196      6889.351       6548.8233      340.52773      2386.7778      3620.5669     -1825.4162      24.586611     -405.52063     -3460.4667      42986.069      35.030197      35.030197      35.030197      1.4493742      7810.477       8774.5131      6570.7854    
     49000   24500          618.33581      7487.1327      11600.293      6971.8766      6670.3294      301.54719      2419.4273      3675.318      -1834.361       23.880174     -367.83936     -3614.8779      42387.814      34.866927      34.866927      34.866927      1.4698304      6390.8114      10387.013      5683.5736    
     50000   25000          618.87833      8118.9834      11982.049      6964.6256      6676.1819      288.44367      2484.7589      3595.4942     -1788.2196      22.442299     -371.61762     -3654.4145      42374.366      34.863239      34.863239      34.863239      1.4702969      8469.9562      7314.659       8572.3349    
     51000   25500          630.7719       7602.5095      11785.658      7072.0285      6804.4844      267.54407      2361.0885      3607.4784     -1848.5947      23.063984     -440.52242     -3434.9696      42513.08       34.90124       34.90124       34.90124       1.4654995      6448.9027      6639.7175      9718.9082    
     52000   26000          607.0541       9283.2493      12597.813      6898.2598      6548.6274      349.6324       2330.2628      3603.0429     -1799.4603      22.379011     -338.24603     -3468.346       42098.334      34.787373      34.787373      34.787373      1.4799374      10001.926      7935.0158      9912.8062    
     53000   26500          600.38512      7057.5583      10977.733      6649.9945      6476.6855      173.309        2432.0426      3575.4127     -1803.8273      22.318009     -448.65517     -3603.9818      42046.576      34.773111      34.773111      34.773111      1.4817591      6698.8646      6911.0829      7562.7275    
     54000   27000          605.02296      7543.5342      11403.721      6787.4803      6526.7163      260.76395      2384.3476      3503.487      -1791.1935      21.052264     -373.09922     -3483.8302      41960.211      34.749286      34.749286      34.749286      1.484809       8418.8544      6733.8835      7477.8648    
     55000   27500          622.25747      9694.9265      13088.829      7149.2805      6712.6346      436.64595      2358.2313      3763.1415     -1831.5151      23.578927     -412.31416     -3464.4766      42008.097      34.7625        34.7625        34.7625        1.4831164      8427.8047      11306.249      9350.7259    
     56000   28000          609.95054      10572.909      13323.946      6878.6266      6579.8729      298.75364      2363.41        3667.3835     -1819.1668      22.353378     -415.84568     -3519.3807      41799.786      34.704944      34.704944      34.704944      1.4905076      12505.18       9637.2397      9576.307     
     57000   28500          611.74461      7405.4545      11401.247      6879.8156      6599.2266      280.58905      2377.8682      3600.0783     -1851.3446      23.491481     -411.98671     -3457.5176      41864.736      34.72291       34.72291       34.72291       1.4881952      7469.5077      7330.2526      7416.6031    
     58000   29000          601.36918      8690.1249      12042.326      6723.6373      6487.301       236.33626      2355.8023      3502.3813     -1803.8276      23.133099     -338.568       -3502.5848      41966.492      34.75102       34.75102       34.75102       1.4845867      7555.2494      8757.1236      9758.0016    
     59000   29500          606.30876      8870.5202      12149.377      6760.3369      6540.587       219.74991      2428.9826      3614.7655     -1832.5657      24.357024     -379.10866     -3636.6809      41656.849      34.665341      34.665341      34.665341      1.495622       7485.319       9831.5925      9294.6491    
     60000   30000          611.71702      7945.7185      11727.484      6861.5126      6598.9289      262.58368      2467.9875      3534.8886     -1801.5092      21.92712      -378.1619      -3582.5485      41991.415      34.757898      34.757898      34.757898      1.4837056      6527.8902      7742.0087      9567.2567    
     61000   30500          598.06661      10368.913      13082.78       6798.7235      6451.6744      347.04912      2400.4447      3639.4907     -1808.831       22.993634     -359.32101     -3547.728       41555.735      34.63727       34.63727       34.63727       1.4992611      9777.6658      9418.5157      11910.557    
     62000   31000          590.7383       10422.406      13037.644      6717.5389      6372.6199      344.91907      2410.1776      3675.0341     -1833.8782      23.815749     -341.19844     -3589.0317      41579.612      34.643903      34.643903      34.643903      1.4984002      11574.884      9779.7907      9912.5435    
     63000   31500          609.74963      11121.558      13653.51       6963.504       6577.7056      385.79838      2436.0691      3646.323      -1854.3436      23.660605     -370.68951     -3495.2212      41246.3        34.551083      34.551083      34.551083      1.5105088      9077.1171      11365.913      12921.645    
     64000   32000          613.21166      10180.764      12892.727      6780.9238      6615.0524      165.87144      2337.4267      3667.5004     -1867.1269      23.547342     -337.41659     -3658.0594      41163.572      34.527968      34.527968      34.527968      1.5135445      8853.3493      9064.5525      12624.391    
     65000   32500          606.97191      10649.96       12963.594      6585.9795      6547.7408      38.238656      2343.2356      3587.9593     -1860.9672      23.74079      -333.95642     -3721.7735      41061.466      34.499395      34.499395      34.499395      1.5173082      10636.006      7762.1462      13551.726    
     66000   33000          594.12943      11351.437      13342.306      6555.8379      6409.2019      146.63603      2411.3129      3616.8578     -1843.1481      22.904105     -345.51275     -3715.778       40993.694      34.480404      34.480404      34.480404      1.5198166      11707.664      10824.051      11522.597    
     67000   33500          616.039        11011.378      13745.904      7163.6684      6645.5525      518.11594      2424.0926      3674.8625     -1781.7727      23.54758      -277.98108     -3544.6329      40987.921      34.478786      34.478786      34.478786      1.5200307      10204.48       13406.248      9423.4059    
     68000   34000          601.355        9250.1672      12382.308      6836.4008      6487.1481      349.25265      2483.9945      3585.504      -1823.8378      21.306099     -341.37162     -3576.3426      41109.966      34.512973      34.512973      34.512973      1.5155181      10494.753      8273.7655      8981.9837    
     69000   34500          594.44831      10233.79       12904.562      6817.4009      6412.6418      404.75905      2405.9599      3625.6845     -1795.8526      22.120865     -284.52462     -3568.6291      40785.181      34.421844      34.421844      34.421844      1.5275867      11837.618      9807.5386      9056.2124    
     70000   35000          599.89864      12968.382      14435.256      6704.1118      6471.4375      232.6743       2442.2238      3589.793      -1803.1583      22.623194     -313.87056     -3704.9369      40877.287      34.447736      34.447736      34.447736      1.5241446      12441.547      12229.779      14233.821    
     71000   35500          596.6189       10183.639      12510.487      6396.1804      6436.0571     -39.876703      2416.5713      3535.7327     -1806.3467      21.483777     -397.99153     -3809.3262      41168.81       34.529432      34.529432      34.529432      1.5133519      10820.545      11877.119      7853.2545    
     72000   36000          626.82094      8301.1955      11582.027      6653.7238      6761.8632     -108.13941      2358.9948      3543.851      -1832.7181      23.162174     -481.82637     -3719.6029      40708.107      34.400147      34.400147      34.400147      1.5304789      8784.8724      9265.3598      6853.3542    
     73000   36500          617.5621       10471.686      13109.805      6875.6655      6661.983       213.68255      2529.068       3590.5896     -1850.2581      22.340945     -363.18624     -3714.8717      40821.034      34.431927      34.431927      34.431927      1.526245       9513.4864      9251.64        12649.932    
     74000   37000          615.97928      13542.187      14810.952      6857.3298      6644.9082      212.42158      2381.675       3659.2844     -1802.6998      21.690143     -311.87683     -3735.6513      40271.729      34.276786      34.276786      34.276786      1.5470629      13758.063      13316.401      13552.098    
     75000   37500          610.65925      11953.299      13915.113      6797.9251      6587.5182      210.40695      2459.5398      3577.912      -1831.6107      21.687687     -379.82543     -3637.2964      40826.743      34.433532      34.433532      34.433532      1.5260316      11750.401      12221.312      11888.185    
     76000   38000          600.32128      13356.702      14401.541      6559.0153      6475.9968      83.018546      2400.481       3502.1688     -1844.1945      21.50104      -331.8788      -3665.0589      40260.651      34.273643      34.273643      34.273643      1.5474886      13545.935      12695.656      13828.516    
     77000   38500          596.84337      12797.891      14169.357      6606.9612      6438.4786      168.48261      2397.6509      3624.3136     -1877.1294      22.421425     -307.47483     -3691.299       40517.729      34.346437      34.346437      34.346437      1.53767        17048.554      8965.8159      12379.303    
     78000   39000          617.87249      14047.759      14849.28       6652.281       6665.3314     -13.050357      2331.1421      3597.8366     -1867.6437      24.10722      -290.73692     -3807.7557      40010.313      34.202458      34.202458      34.202458      1.557171       13559.788      12269.632      16313.857    
     79000   39500          624.71112      13631.323      14927.557      6958.4711      6739.1034      219.36773      2411.2264      3606.1175     -1856.0691      20.980571     -264.30977     -3698.5779      40086.173      34.22406       34.22406       34.22406       1.5542241      13584.105      16506.003      10803.862    
     80000   40000          607.53654      14236.362      15091.717      6740.3195      6553.8318      186.48775      2434.4417      3649.4749     -1852.1426      22.798615     -313.24103     -3754.8439      40223.903      34.263212      34.263212      34.263212      1.5489023      11963.079      13422.204      17323.804    
     81000   40500          609.13514      12998.804      14307.408      6743.7763      6571.0767      172.69963      2346.3835      3576.7793     -1872.3783      23.194412     -310.57251     -3590.7068      39897.999      34.170424      34.170424      34.170424      1.5615544      13076.389      13502.288      12417.735    
     82000   41000          606.45643      12037.628      13615.316      6580.3448      6542.18        38.164805      2349.5351      3577.0706     -1860.1534      22.404027     -392.33387     -3658.3577      40072.419      34.220146      34.220146      34.220146      1.5547576      13828.412      9430.7295      12853.741    
     83000   41500          615.155        14496.715      15348.184      6934.356       6636.0163      298.33965      2233.4095      3610.8271     -1833.6975      22.933571     -270.14847     -3464.9846      39796.798      34.141509      34.141509      34.141509      1.5655254      14379.905      13509.407      15600.834    
     84000   42000          595.16416      13762.251      14695.385      6670.3783      6420.364       250.01431      2328.143       3723.6065     -1872.6017      22.944565     -345.34041     -3606.7377      39983.426      34.194795      34.194795      34.194795      1.5582181      14743.306      12129.098      14414.35     
     85000   42500          612.49042      12885.818      14263.966      6765.8662      6607.272       158.59426      2306.6124      3635.4418     -1839.4175      22.804494     -321.84978     -3644.9971      39899.123      34.170745      34.170745      34.170745      1.5615105      10479.294      12947.954      15230.205    
     86000   43000          619.6766       15054.513      15567.846      6869.4928      6684.7933      184.69945      2378.2102      3658.7022     -1859.1638      21.95292      -311.13718     -3703.8648      39618.171      34.090351      34.090351      34.090351      1.5725839      14183.171      13151.862      17828.506    
     87000   43500          609.53906      15782.719      15770.606      6622.811       6575.434       47.376943      2292.8133      3556.6322     -1845.7149      22.133588     -199.81186     -3778.6754      39742.825      34.126067      34.126067      34.126067      1.5676515      17750.633      13541.103      16056.421    
     88000   44000          611.41849      15688.031      15650.824      6598.3432      6595.7084      2.6347518      2468.1919      3512.7726     -1842.865       21.686031     -299.16581     -3857.985       39566.103      34.07541       34.07541       34.07541       1.5746534      15452.138      16491.968      15119.987    
     89000   44500          625.22804      15275.164      15697.101      6842.4318      6744.6797      97.75209       2340.3466      3598.5743     -1861.0322      20.784164     -273.22137     -3727.6995      39747.568      34.127425      34.127425      34.127425      1.5674644      16137.74       14335.04       15352.711    
     90000   45000          601.5769       15387.139      15601.809      6794.0661      6489.5418      304.52432      2468.2456      3725.4475     -1825.8532      23.170705     -256.77206     -3829.7142      39249.205      33.984193      33.984193      33.984193      1.5873671      15356.62       16497.552      14307.245    
     91000   45500          619.23473      15606.955      15838.026      6824.5069      6680.0266      144.48037      2352.07        3622.5536     -1847.7525      23.419559     -346.39442     -3659.4159      39600.467      34.085272      34.085272      34.085272      1.5732869      15093.529      15486.568      16240.767    
     92000   46000          605.17203      16750.266      16352.02       6763.7184      6528.3244      235.394        2391.5642      3523.6459     -1860.1622      21.110514     -214.75188     -3626.0125      39250.4        33.984537      33.984537      33.984537      1.5873188      17200.046      15125.963      17924.789    
     93000   46500          615.20077      14262          15135.125      6935.3569      6636.51        298.84691      2362.7623      3628.8689     -1821.4699      22.183515     -241.54405     -3651.9539      39422.6        34.034164      34.034164      34.034164      1.5803853      11850.782      14495.154      16440.064    
     94000   47000          612.31358      12895.09       14402.803      6958.9534      6605.3643      353.58911      2373.795       3690.4321     -1862.5868      22.07655      -358.99769     -3511.13        39581.96       34.079962      34.079962      34.079962      1.5740226      13201.266      12241.205      13242.8      
     95000   47500          592.86666      15836.01       15621.705      6577.3613      6395.5797      181.78154      2332.0689      3610.1563     -1849.4265      23.894027     -297.80783     -3637.1033      39161.144      33.958757      33.958757      33.958757      1.5909366      14892.748      15352.451      17262.833    
     96000   48000          610.2028       13364.183      14352.942      6708.3209      6582.5941      125.72676      2345.728       3620.3614     -1831.0334      24.165283     -351.71276     -3681.7818      39222.717      33.976546      33.976546      33.976546      1.5884391      9535.7777      13173.246      17383.524    
     97000   48500          609.08829      16938.116      16543.507      6895.8607      6570.5713      325.2894       2305.8862      3634.6435     -1798.9819      22.308269     -235.1628      -3603.4038      39055.338      33.928146      33.928146      33.928146      1.5952467      16817.211      16575.283      17421.853    
     98000   49000          622.23606      18537.762      17487.694      6943.5708      6712.4036      231.16725      2269.1254      3719.179      -1877.3835      23.351808     -256.59147     -3646.514       39001.139      33.912444      33.912444      33.912444      1.5974636      21940.665      16533.026      17139.593    
     99000   49500          611.22109      15396.123      15589.291      6867.3874      6593.579       273.80836      2394.4122      3669.1327     -1812.9015      23.481501     -314.08177     -3686.2348      38844.008      33.86684       33.86684       33.86684       1.6039256      16241.129      14984.309      14962.929    
    100000   50000          605.82686      13351.382      14255.977      6730.424       6535.3885      195.03552      2477.7038      3580.4843     -1844.7111      22.705136     -386.03786     -3655.1088      38648.827      33.810021      33.810021      33.810021      1.6120256      13996.93       11673.824      14383.392    
    101000   50500          613.36991      15548.485      15682.124      6836.5918      6616.7595      219.83227      2348.0896      3579.1574     -1828.5867      21.563811     -236.33868     -3664.0531      39008.57       33.914598      33.914598      33.914598      1.5971592      14612.479      12662          19370.976    
    102000   51000          601.20008      20073.179      18241.303      6944.458       6485.4769      458.98111      2430.5634      3732.5503     -1869.9365      23.118754     -135.3519      -3721.963       38589.141      33.792608      33.792608      33.792608      1.6145189      20648.627      18357.837      21213.074    
    103000   51500          613.52055      17262.781      16539.191      6836.1178      6618.3846      217.73325      2328.421       3568.2561     -1826.5716      21.564955     -184.99846     -3688.9388      38540.97       33.778541      33.778541      33.778541      1.6165368      18333.155      15765.943      17689.245    
    104000   52000          602.89874      18337.838      17060.37       6730.3644      6503.8012      226.56321      2304.4495      3629.3244     -1836.6831      22.519276     -185.31865     -3707.7282      38625.714      33.80328       33.80328       33.80328       1.6129902      18582.347      15561.631      20869.536    
    105000   52500          603.48484      17209.753      16538.301      6817.335       6510.1238      307.21117      2382.8558      3538.5721     -1840.6695      21.284838     -235.13033     -3559.7017      38731.018      33.833971      33.833971      33.833971      1.6086047      15031.973      18980.225      17617.06     
    106000   53000          624.66067      17967.656      17058.671      6904.2697      6738.5592      165.71048      2353.3547      3516.7823     -1838.1126      21.141793     -213.19282     -3674.2629      38751.366      33.839895      33.839895      33.839895      1.6077601      18260.483      17603.267      18039.218    
    107000   53500          609.93612      20062.988      18104.189      6887.6813      6579.7174      307.96395      2389.9045      3576.9518     -1806.3848      20.411431     -138.57398     -3734.345       38334.178      33.718019      33.718019      33.718019      1.6252572      19798.329      21623.509      18767.128    
    108000   54000          615.51625      15512.064      15628.032      6921.5383      6639.9133      281.62508      2410.0867      3559.3315     -1822.11        21.100247     -211.63821     -3675.1452      38485.56       33.762345      33.762345      33.762345      1.6188643      16233.602      15724.993      14577.596    
    109000   54500          609.54496      17304.53       16520.603      6782.4031      6575.4977      206.90544      2367.0614      3616.7727     -1835.9201      21.670289     -253.39918     -3709.2797      38587.174      33.792033      33.792033      33.792033      1.6146012      16552.182      17687.946      17673.463    
    110000   55000          607.55052      18722.534      17153.904      6715.5206      6553.9826      161.53802      2447.5033      3533.2984     -1851.9826      20.821271     -182.31967     -3805.7827      38228.981      33.687148      33.687148      33.687148      1.6297295      15594.399      17089.595      23483.606    
    111000   55500          624.84702      19503.683      17707.162      6822.115       6740.5695      81.545541      2388.7275      3574.3825     -1822.7822      22.024009     -204.98687     -3875.8194      38268.177      33.698657      33.698657      33.698657      1.6280602      20099.433      20298.359      18113.257    
    112000   56000          606.30018      18329.143      16873.615      6671.658       6540.4944      131.16355      2448.731       3500.2311     -1806.2446      21.80119      -165.92647     -3867.4287      38165.016      33.668349      33.668349      33.668349      1.6324609      17338.425      18142.768      19506.235    
    113000   56500          599.6396       17867.396      16532.077      6521.8959      6468.6431      53.252736      2355.7107      3529.6742     -1852.2141      22.321251     -204.67443     -3797.5649      38415.35       33.741801      33.741801      33.741801      1.621823       18393.666      15683.044      19525.479    
    114000   57000          591.04099      19659.871      17664.313      6671.0216      6375.8851      295.13643      2357.3426      3656.1055     -1845.6123      23.345561     -137.84937     -3758.1956      38341.685      33.72022       33.72022       33.72022       1.624939       19409.421      19035.655      20534.536    
    115000   57500          607.43198      19429.585      17411.958      6636.8173      6552.7038      84.113548      2352.4989      3586.4013     -1833.7439      23.580575     -134.60607     -3910.0172      38026.252      33.627494      33.627494      33.627494      1.638418       17252.252      20273.173      20763.33     
    116000   58000          622.77966      19041.921      17553.683      6907.7557      6718.2677      189.488        2307.0432      3625.5877     -1832.1734      21.115443     -160.70315     -3771.3818      38335.124      33.718296      33.718296      33.718296      1.6252171      17294.287      17150.648      22680.828    
    117000   58500          626.59444      23043.538      19611.564      6889.1976      6759.4199      129.77774      2214.8098      3681.6752     -1864.8745      23.235269     -90.975775     -3834.0923      37856.708      33.577443      33.577443      33.577443      1.6457558      23845.095      21998.274      23287.244    
    118000   59000          614.97566      19716.389      18048.154      7104.4131      6634.0817      470.33144      2341.0705      3770.9896     -1836.3196      23.5292       -139.98131     -3688.9568      38059.451      33.637278      33.637278      33.637278      1.6369889      17973.946      20871.413      20303.809    
    119000   59500          619.32887      20532.969      18259.701      6857.0036      6681.0422      175.96144      2357.2313      3654.1048     -1855.2037      23.420686     -173.41657     -3830.175       38078.512      33.642892      33.642892      33.642892      1.6361694      19870.806      20567.633      21160.467    
    120000   60000          607.14954      20108.397      17811.913      6661.3318      6549.657       111.67485      2301.8894      3597.5015     -1869.3924      21.370965     -112.61129     -3827.0834      38022.808      33.626479      33.626479      33.626479      1.6385665      20108.173      18148.989      22068.028    
    121000   60500          602.29851      17744.818      16515.174      6669.5097      6497.3263      172.18348      2352.6153      3600.0282     -1858.3449      22.091926     -91.358675     -3852.8483      38044.999      33.63302       33.63302       33.63302       1.6376107      17232.525      18078.614      17923.314    
    122000   61000          598.47487      19368.48       17384.107      6575.4205      6456.0786      119.34192      2277.6268      3664.8852     -1840.3339      20.982373     -169.90901     -3833.9096      38264.98       33.697718      33.697718      33.697718      1.6281963      20841.106      18273.093      18991.241    
    123000   61500          616.19811      22567.308      19262.723      6824.5241      6647.2688      177.25529      2271.0521      3657.1514     -1832.3667      21.922442     -116.23946     -3824.2645      37792.173      33.558352      33.558352      33.558352      1.6485662      20590.692      24837.997      22273.235    
    124000   62000          606.47622      20252.127      18146.899      6979.7471      6542.3936      437.35353      2384.0803      3579.4042     -1811.3024      20.01941      -29.600386     -3705.2477      37809.062      33.56335       33.56335       33.56335       1.6478298      21455.403      18696.524      20604.454    
    125000   62500          607.24368      21763.953      19058.23       6970.1386      6550.6725      419.46616      2480.211       3613.925      -1817.6979      22.041381     -80.085327     -3798.9279      38084.134      33.644548      33.644548      33.644548      1.6359279      21651.73       20206.853      23433.276    
    126000   63000          611.64598      23216.885      19840.241      7019.69        6598.1626      421.52742      2357.1961      3636.4529     -1836.9828      22.699242     -13.755735     -3744.0823      37864.032      33.579608      33.579608      33.579608      1.6454375      23376.301      21948.992      24325.363    
    127000   63500          613.04076      20429.15       18204.878      6977.3924      6613.2088      364.1836       2424.3787      3597.5693     -1847.9386      22.267187     -28.365159     -3803.7278      37683.939      33.526285      33.526285      33.526285      1.6533011      19621.443      19387.117      22278.892    
    128000   64000          610.6068       19330.53       17417.371      6733.0183      6586.9524      146.06592      2360.9522      3582.4154     -1829.2514      22.259123     -150.46162     -3839.8477      37899.07       33.589962      33.589962      33.589962      1.6439163      18859.335      17409.115      21723.14     
    129000   64500          599.7883       20675.418      18087.013      6689.7441      6470.2472      219.4969       2249.7654      3679.5073     -1844.405       23.24198      -102.88717     -3785.7257      37798.156      33.560122      33.560122      33.560122      1.6483052      19005.228      20519.175      22501.85     
    130000   65000          603.79549      21720.314      18729.621      6811.9016      6513.4749      298.42669      2339.8972      3527.9229     -1835.7618      21.1867       -41.309108     -3713.5092      37622.805      33.508145      33.508145      33.508145      1.6559876      20242.356      23790.932      21127.654    
    131000   65500          613.49526      22179.093      19050.408      6886.6335      6618.1118      268.52173      2215.2317      3621.0146     -1841.5337      21.99157      -58.876639     -3689.3058      37605.269      33.502938      33.502938      33.502938      1.6567598      21795.331      22031.109      22710.839    
    132000   66000          610.37117      19953.968      18207.863      7214.6225      6584.4104      630.21204      2499.9183      3631.675      -1834.5329      22.033405      3.1671133     -3692.0488      37776.399      33.553682      33.553682      33.553682      1.6492545      19808.315      19185.776      20867.814    
    133000   66500          618.69337      21135.766      18422.221      6827.6179      6674.1866      153.4313       2324.21        3670.7828     -1859.8443      21.272091     -55.419537     -3947.5698      37615.081      33.505852      33.505852      33.505852      1.6563276      19857.707      20518.067      23031.525    
    134000   67000          609.63093      22558.951      19274.293      6969.3294      6576.4251      392.90429      2338.9296      3614.6464     -1825.8052      22.981284      36.415717     -3794.2635      37401.2        33.442226      33.442226      33.442226      1.6657995      22046.11       21851.656      23779.088    
    135000   67500          611.49931      21997.014      18895.88       6843.7565      6596.5803      247.17621      2345.5515      3577.8195     -1843.3854      21.570964     -62.602346     -3791.778       37568.506      33.492018      33.492018      33.492018      1.658381       21641.513      23111.357      21238.173    
    136000   68000          615.78132      22486.653      19156.091      6824.6615      6642.7728      181.88877      2280.155       3635.8215     -1866.2559      22.537169     -56.912453     -3833.4564      37602.153      33.502013      33.502013      33.502013      1.6568971      20407.274      21924.598      25128.088    
    137000   68500          603.24735      21902.575      18585.186      6678.8633      6507.5619      171.30138      2369.5256      3539.0973     -1839.6848      21.89449      -5.5736379     -3913.9576      37274.05       33.404286      33.404286      33.404286      1.6714818      22451.194      19934.75       23321.78     
    138000   69000          619.1215       20849.752      18353.806      6935.6665      6678.8051      256.86136      2261.1252      3579.5203     -1846.2855      22.509274     -37.417385     -3722.5905      37550.745      33.486739      33.486739      33.486739      1.6591654      23057.514      19346.564      20145.179    
    139000   69500          613.23509      21989.045      18940.433      6990.906       6615.3051      375.60086      2359.0054      3674.3913     -1856.771       23.398659     -47.610512     -3776.813       37262.196      33.400745      33.400745      33.400745      1.6720136      21776.002      19784.625      24406.508    
    140000   70000          606.4414       23545.077      19899.044      7080.2324      6542.0178      538.21455      2374.9323      3745.0578     -1865.7974      22.289841      39.506794     -3777.7748      37331.185      33.421345      33.421345      33.421345      1.6689237      25335.654      23908.716      21390.862    
    141000   70500          614.66448      23422.883      19853.672      7076.8623      6630.7247      446.13755      2360.5147      3646.5954     -1791.1793      20.562489      93.299969     -3883.6557      37402.978      33.442756      33.442756      33.442756      1.6657203      23801.819      22011.308      24455.521    
    142000   71000          610.74365      25215.014      20283.479      6605.2657      6588.4286      16.837048      2249.1462      3609.498      -1861.9939      21.219805      29.297847     -4030.3309      37195.83       33.380903      33.380903      33.380903      1.6749969      22873.556      25967.899      26803.588    
    143000   71500          619.0587       22716.914      19358.033      6993.9655      6678.1276      315.83785      2282.5873      3646.6122     -1811.5725      20.772939      7.9215441     -3830.4835      37319.527      33.417866      33.417866      33.417866      1.669445       21153.757      23896.638      23100.347    
    144000   72000          613.10873      23151.004      19597.888      7077.8393      6613.9421      463.89727      2419.8829      3573.7844     -1791.2946      21.261305      7.9293755     -3767.6661      37081.756      33.346744      33.346744      33.346744      1.6801496      23959.507      20981.799      24511.705    
    145000   72500          616.13108      26522.213      21287.66       6940.9537      6646.5458      294.40793      2331.46        3526.5669     -1827.7063      21.436496      110.17809     -3867.5273      37090.831      33.349464      33.349464      33.349464      1.6797385      28279.102      23469.871      27817.667    
    146000   73000          605.84036      23196.823      19388.342      6752.3289      6535.5341      216.7947       2307.034       3605.2556     -1800.7782      21.707699      54.224285     -3970.6486      37351.295      33.427345      33.427345      33.427345      1.6680251      21654.623      24855.518      23080.33     
    147000   73500          603.52133      23539.318      19485.174      6786.9769      6510.5175      276.45943      2394.3893      3626.873      -1863.4798      21.12002       22.369273     -3924.8124      36988.976      33.318909      33.318909      33.318909      1.684364       23930.328      22137.348      24550.279    
    148000   74000          610.16478      23772.922      19670.787      6836.4824      6582.1841      254.29834      2211.3354      3623.8558     -1832.0549      21.676481      71.163225     -3841.6776      37018.08       33.327645      33.327645      33.327645      1.6830397      24972.656      20016.596      26329.514    
    149000   74500          610.17621      24435.76       20058.295      6900.4904      6582.3073      318.18306      2265.3006      3628.0731     -1825.9047      21.885438      71.30795      -3842.4794      36921.7        33.298696      33.298696      33.298696      1.6874331      22306.283      24392.821      26608.175    
    150000   75000          615.592        25317.346      20612.411      6920.7368      6640.7304      280.00635      2357.2246      3577.0819     -1822.6927      20.614466      127.07682     -3979.2987      37081.943      33.3468        33.3468        33.3468        1.6801411      26206.195      24096.777      25649.067    
    151000   75500          608.06099      24725.871      20109.464      6871.729       6559.4893      312.23967      2255.992       3622.4176     -1815.6487      23.084957      142.6068      -3916.2129      36710.151      33.234978      33.234978      33.234978      1.6971572      22396.39       25389.355      26391.869    
    152000   76000          599.44888      25943.416      20659.943      6734.4502      6466.5857      267.86456      2317.036       3516.8973     -1826.2546      19.968378      117.8574      -3877.6399      36805.059      33.263594      33.263594      33.263594      1.6927808      26646.408      26526.028      24657.813    
    153000   76500          598.38928      23684.02       19609.649      6771.9067      6455.1552      316.7515       2373.1433      3565.0753     -1839.5051      22.341425     -33.450746     -3770.8525      37166.985      33.372272      33.372272      33.372272      1.6762968      23433.294      22034.213      25584.555    
    154000   77000          600.85641      24360.963      20023.805      6958.29        6481.7695      476.52044      2384.49        3592.3494     -1834.4948      21.471484      77.066697     -3764.3623      36775.297      33.254626      33.254626      33.254626      1.6941508      25652.649      24380.743      23049.497    
    155000   77500          601.8452       25194.214      20602.168      7027.4937      6492.4361      535.05758      2400.1003      3661.9061     -1825.7413      21.499514      59.049722     -3781.7567      36944.747      33.305623      33.305623      33.305623      1.6863804      23742.049      25374.001      26466.592    
    156000   78000          607.7947       25658.619      20515.305      6776.4973      6556.6167      219.88065      2249.7471      3535.8101     -1848.5686      19.6635        75.226733     -3811.9981      36714.69       33.236347      33.236347      33.236347      1.6969474      24180.609      24275.385      28519.864    
    157000   78500          631.80596      30095.603      23228.148      7145.8466      6815.6394      330.20723      2272.5795      3593.0414     -1842.7435      20.566555      162.45045     -3875.6871      36641.164      33.214146      33.214146      33.214146      1.7003526      31150.589      30428.223      28707.998    
    158000   79000          614.59959      29036.112      22628.837      7165.3708      6630.0248      535.34607      2265.4798      3618.1934     -1827.0128      19.163475      225.63392     -3766.1118      36516.782      33.17652       33.17652       33.17652       1.7061443      27749.727      30337.598      29021.011    
    159000   79500          606.03843      25901.925      20851.716      7001.7754      6537.6708      464.10457      2309.0589      3676.07       -1835.0749      21.586121      84.677588     -3792.2132      36664.011      33.221048      33.221048      33.221048      1.699293       25573.22       25233.241      26899.313    
    160000   80000          615.6945       25390.688      20583.122      7002.3236      6641.8361      360.48742      2380.3638      3647.9256     -1827.2955      21.936696      78.65262      -3941.0958      36675.408      33.224489      33.224489      33.224489      1.698765       24204.301      27823.329      24144.435    
    161000   80500          608.81853      27808.949      21804.137      6915.4352      6567.6613      347.77395      2287.445       3513.3765     -1793.8743      21.063714      163.81602     -3844.0529      36711.014      33.235238      33.235238      33.235238      1.6971173      29924.255      25855.988      27646.604    
    162000   81000          615.61933      27532.349      21428.223      6909.5355      6641.0253      268.51016      2301.3486      3673.2083     -1862.9145      22.041295      194.41183     -4059.5854      36158.317      33.067605      33.067605      33.067605      1.7230586      27130.263      29925.819      25540.967    
    163000   81500          617.76966      26350.51       21000.182      6863.2161      6664.2221      198.994        2343.0609      3559.5402     -1831.4356      21.12768       110.09927     -4003.3984      36786.74       33.258075      33.258075      33.258075      1.6936238      27063.169      23814.933      28173.428    
    164000   82000          605.41305      24870.951      20032.013      6801.0117      6530.9245      270.08724      2281.809       3585.57       -1788.6096      20.863831      135.4625      -3965.0085      36477.446      33.164603      33.164603      33.164603      1.7079841      24903.189      23911.321      25798.343    
    165000   82500          584.94489      27087.686      21192.845      6790.446       6310.1231      480.3229       2287.5115      3619.2364     -1823.2579      20.874988      196.98742     -3821.0294      36457.512      33.158561      33.158561      33.158561      1.708918       26185.738      29122.684      25954.636    
    166000   83000          619.25159      26864.37       21387.135      7024.1944      6680.2085      343.98593      2319.1445      3584.7831     -1786.6111      20.070803      113.31144     -3906.7128      36659.862      33.219794      33.219794      33.219794      1.6994854      29564.689      25091.822      25936.6      
    167000   83500          602.01274      27890.464      21634.822      6854.8914      6494.2435      360.64791      2292.1694      3646.4408     -1857.5136      20.894099      221.39471     -3962.7374      36336.306      33.121774      33.121774      33.121774      1.7146184      28243.04       26581.081      28847.269    
    168000   84000          604.9124       25752.069      20671.289      6992.8451      6525.5238      467.32132      2391.7158      3602.9006     -1823.6991      20.246449      233.12557     -3956.968       36420.732      33.147407      33.147407      33.147407      1.7106438      27027.025      26910.508      23318.675    
    169000   84500          610.13101      29036.933      22250.302      6879.5422      6581.8197      297.72243      2194.9069      3642.3187     -1798.4447      20.58956       222.3867      -3984.0347      36296.83       33.109775      33.109775      33.109775      1.7164832      28792.415      30291.852      28026.531    
    170000   85000          604.65545      25422.407      20382.913      6889.2093      6522.7518      366.45751      2207.1058      3549.6571     -1815.083       20.6037        218.21076     -3814.0368      36394.74       33.139519      33.139519      33.139519      1.7118655      25010.555      24173.894      27082.771    
    171000   85500          602.70353      27408.318      21488.108      6985.1932      6501.6954      483.49779      2283.4494      3668.1605     -1809.1752      20.944246      238.07776     -3917.959       36282.486      33.105413      33.105413      33.105413      1.7171618      28103.845      29062.827      25058.281    
    172000   86000          613.27965      31019.754      23594.076      7175.9041      6615.7859      560.11824      2345.6174      3604.5789     -1822.708       20.551547      254.73007     -3842.6516      36291.971      33.108298      33.108298      33.108298      1.716713       33648.622      28571.353      30839.287    
    173000   86500          620.6334       30420.395      23166.714      7121.2435      6695.1148      426.12869      2249.0147      3582.1594     -1819.5331      22.156812      241.14479     -3848.8139      36166.936      33.070232      33.070232      33.070232      1.7226479      31201.655      28450.607      31608.924    
    174000   87000          605.81241      30048.376      22639.04       6767.6825      6535.2326      232.44985      2251.2233      3607.881      -1822.8325      23.281153      213.13616     -4040.2393      36217.393      33.085604      33.085604      33.085604      1.720248       27469.165      31726.431      30949.531    
    175000   87500          598.19245      29290.749      22353.605      6862.2017      6453.0319      409.16976      2290.8578      3477.5225     -1820.3271      20.310115      274.91811     -3834.1116      36264.726      33.100011      33.100011      33.100011      1.7180027      30248.154      30100.463      27523.631    
    176000   88000          603.05618      29979.199      22719.375      6895.802       6505.4996      390.30237      2271.6023      3578.1397     -1802.7209      20.394314      269.01941     -3946.1325      36191.671      33.077769      33.077769      33.077769      1.7214706      30776.585      30237.8        28923.212    
    177000   88500          599.4918       27306.309      21370.777      6931.1325      6467.0487      464.08379      2359.5847      3639.3363     -1808.9531      22.247828      271.06041     -4019.1923      36259.149      33.098314      33.098314      33.098314      1.7182669      29895.016      28254.663      23769.247    
    178000   89000          614.61722      28851.779      22305.358      7143.057       6630.215       512.84204      2388.2873      3564.9522     -1814.6375      21.080904      331.01683     -3977.8577      36034.344      33.029769      33.029769      33.029769      1.7289866      29542.989      28884.35       28127.997    
    179000   89500          608.92674      32559.1        24332.134      7318.3879      6568.8286      749.55932      2338.2466      3762.012      -1810.2752      23.057754      424.23579     -3987.7177      35830.401      32.967339      32.967339      32.967339      1.7388278      32409.71       32455.416      32812.174    
    180000   90000          606.96082      24698.359      20196.481      7169.033       6547.6211      621.41184      2423.2196      3669.0283     -1819.4725      19.948447      219.33471     -3890.6467      36167.24       33.070324      33.070324      33.070324      1.7226335      22514.685      23020.301      28560.09     
    181000   90500          618.35274      32117.656      24246.837      7334.5156      6670.5121      664.00353      2254.5731      3630.559      -1831.0397      21.452581      262.62323     -3674.1647      36106.342      33.051753      33.051753      33.051753      1.7255389      30287.089      32382.175      33683.703    
    182000   91000          604.64421      29868.608      22584.587      6908.4606      6522.6306      385.82998      2253.4619      3581.4204     -1843.6359      20.944108      249.86147     -3876.222       35987.185      33.015354      33.015354      33.015354      1.7312523      32082.975      29425.861      28096.988    
    183000   91500          602.50803      29310.954      22387.743      7031.8734      6499.5864      532.287        2318.2515      3608.5388     -1826.61        21.671663      326.28409     -3915.849       35922.666      32.995612      32.995612      32.995612      1.7343617      30712.621      30290.294      26929.947    
    184000   92000          614.62258      31181.791      23598.926      7251.2563      6630.2728      620.98352      2398.9528      3468.8356     -1809.2937      19.903729      311.64463     -3769.0596      35948.346      33.003472      33.003472      33.003472      1.7331228      29610.872      33245.546      30688.956    
    185000   92500          612.9023       29096.017      22360.397      7098.0265      6611.7152      486.31132      2233.0193      3725.0613     -1819.6607      19.64002       238.23455     -3909.9832      35967.692      33.009392      33.009392      33.009392      1.7321906      29892.064      28415.616      28980.373    
    186000   93000          620.53138      30636.153      23090.647      6996.0081      6694.0142      301.9939       2271.1945      3578.3451     -1831.8211      20.971539      189.55274     -3926.2489      36022.273      33.026081      33.026081      33.026081      1.729566       34211.674      28748.828      28947.956    
    187000   93500          596.19215      31047.895      23202.428      6966.528       6431.4535      535.07444      2250.4951      3629.1598     -1824.0625      21.469904      318.66258     -3860.6505      35856.534      32.975352      32.975352      32.975352      1.7375605      33685.335      30682.809      28775.541    
    188000   94000          622.9401       30372.39       23389.395      7476.3214      6719.9984      756.32297      2372.9034      3709.5769     -1831.9463      21.826907      364.8928      -3880.9307      35925.202      32.996388      32.996388      32.996388      1.7342393      28649.461      30242.311      32225.398    
    189000   94500          604.40073      34121.177      25009.743      7152.9106      6520.004       632.90657      2290.8961      3598.7619     -1831.4992      20.476288      421.76996     -3867.4985      35884.305      32.983863      32.983863      32.983863      1.7362158      33160.963      37317.641      31884.927    
[...]
    249000   124500         611.55597      42828.674      29226.333      7622.9945      6597.1916      1025.803       2251.3485      3709.9709     -1826.3637      20.158429      728.29037     -3857.6016      34586.798      32.581428      32.581428      32.581428      1.8013491      44277.579      43558.502      40649.94     
    250000   125000         611.12496      41393.508      28397.487      7481.3215      6592.542       888.77945      2297.5278      3601.7704     -1833.338       21.013236      739.41043     -3937.6044      34647.663      32.600529      32.600529      32.600529      1.7981847      41388.373      40095.82       42696.331    
    251000   125500         608.09115      43293.802      29158.868      7459.1205      6559.8147      899.30583      2117.4022      3606.6721     -1805.1107      19.884854      882.14194     -3921.6846      34367.906      32.512549      32.512549      32.512549      1.8128221      43119.827      44191.44       42570.138    
    252000   126000         608.02419      44433.836      29824.553      7546.3993      6559.0924      987.30692      2180.0567      3621.5647     -1816.4364      19.985348      913.57036     -3931.4339      34378.703      32.515954      32.515954      32.515954      1.8122527      46767.129      44830.396      41703.985    
    253000   126500         607.34345      43535.898      29602.948      7759.4672      6551.7488      1207.7183      2356.4088      3669.7231     -1804.7167      20.67032       838.25103     -3872.6182      34403.169      32.523665      32.523665      32.523665      1.8109639      46281.184      43830.437      40496.071    
    254000   127000         615.52929      41376.166      28442.887      7631.9004      6640.054       991.84635      2321.1073      3576.6013     -1811.396       20.454603      761.62791     -3876.5488      34487.884      32.550339      32.550339      32.550339      1.8065155      40927.151      42223.54       40977.806    
    255000   127500         625.75425      42906.4        29456.133      7860.4949      6750.3563      1110.1386      2383.9878      3574.2531     -1801.2863      20.246085      810.39059     -3877.4527      34511.838      32.557873      32.557873      32.557873      1.8052617      42245.232      43480.302      42993.665    
    256000   128000         603.54813      41902.951      28619.37       7518.523       6510.8066      1007.7164      2303.16        3590.2785     -1796.2704      18.612692      759.63398     -3867.6983      34528.633      32.563154      32.563154      32.563154      1.8043836      41813.048      41313.857      42581.948    
    257000   128500         610.1284       41229.276      28273.343      7557.7778      6581.7916      975.98613      2298.941       3613.8179     -1847.5908      20.413521      750.33735     -3859.933       34452.06       32.539065      32.539065      32.539065      1.808394       40543.874      43278.195      39865.757    
    258000   129000         616.03665      41755.13       28185.012      7271.0279      6645.5271      625.50078      2185.0966      3569.8284     -1811.7503      19.840304      765.8354      -4103.3496      34344.013      32.505013      32.505013      32.505013      1.8140832      42213.63       42344.541      40707.219    
    259000   129500         609.13589      44119.437      29561.526      7474.7064      6571.0849      903.62155      2311.6137      3596.7218     -1839.4503      20.046881      890.1757      -4075.4862      34326.327      32.499432      32.499432      32.499432      1.8150179      44589.364      47094.453      40674.494    
    260000   130000         603.42165      44574.39       29638.51       7320.286       6509.4421      810.84387      2300.4169      3588.4292     -1826.7266      20.316049      885.24218     -4156.8339      34331.94       32.501204      32.501204      32.501204      1.8147212      44139.956      47758.313      41824.9      
    261000   130500         605.25215      42667.93       28856.485      7506.2237      6529.1888      977.03487      2289.0979      3503.6427     -1798.3598      19.900727      865.22579     -3902.4724      34310.396      32.494404      32.494404      32.494404      1.8158606      44940.254      41862.867      41200.67     
    262000   131000         602.72711      40573.525      27807.362      7422.8824      6501.9498      920.93261      2223.0766      3643.4801     -1808.6929      21.277059      847.33816     -4005.5464      34449.349      32.538211      32.538211      32.538211      1.8085363      40994.8        43895.731      36830.043    
    263000   131500         604.48888      43174.956      29030.059      7392.9272      6520.9549      871.97228      2182.9448      3677.4659     -1826.3279      21.166434      859.48072     -4042.7576      34363.065      32.511023      32.511023      32.511023      1.8130774      42305.609      45402.647      41816.611    
    264000   132000         601.77025      43089.548      28941.044      7380.4888      6491.6276      888.86127      2194.2588      3697.4734     -1814.3747      20.814158      845.30952     -4054.6198      34309.32       32.494065      32.494065      32.494065      1.8159176      43564.158      40969.222      44735.265    
    265000   132500         614.7599       44263.293      29853.279      7711.2992      6631.7541      1079.5451      2214.9024      3642.4584     -1882.3973      21.77588       915.26796     -3832.4621      34300.215      32.49119       32.49119       32.49119       1.8163996      43785.732      45933.384      43070.764    
    266000   133000         608.19621      43843.903      29507.814      7602.9321      6560.948       1041.9841      2260.793       3553.7757     -1832.9952      21.348923      938.14656     -3899.0848      34257.512      32.477701      32.477701      32.477701      1.8186638      43547.142      43455.631      44528.935    
    267000   133500         606.99904      42534.904      28808.218      7546.2815      6548.0335      998.24809      2191.9098      3610.7045     -1810.0681      21.947137      920.30026     -3936.5455      34275.316      32.483326      32.483326      32.483326      1.8177192      44479.878      42267.057      40857.778    
    268000   134000         607.20191      44829.79       30217.809      7841.2167      6550.2219      1290.9948      2285.6956      3699.2249     -1824.9033      20.930325      957.1843      -3847.1371      34225.623      32.46762       32.46762       32.46762       1.8203583      44211.357      47024.129      43253.882    
    269000   134500         620.34194      46750.057      31045.135      7816.2971      6691.9707      1124.3264      2206.9477      3712.8091     -1839.1574      22.092347      986.08961     -3964.455       34069.79       32.418269      32.418269      32.418269      1.8286845      45641.103      47563.803      47045.263    
    270000   135000         614.87247      46684.856      30941.313      7715.2393      6632.9685      1082.2708      2219.7389      3663.983      -1854.3998      21.389214      988.25771     -3956.6982      34113.312      32.432067      32.432067      32.432067      1.8263515      46828.644      46922.487      46303.437    
    271000   135500         606.09178      45315.296      30003.296      7460.4393      6538.2463      922.19298      2262.4788      3649.2656     -1828.1258      21.000473      901.78611     -4084.2123      34110.512      32.43118       32.43118       32.43118       1.8265014      45932.795      46840.909      43172.183    
    272000   136000         615.23633      47167.561      30969.159      7472.4966      6636.8936      835.60296      2214.6371      3550.6385     -1821.3905      19.991181      881.64473     -4009.9181      34157.562      32.446084      32.446084      32.446084      1.8239855      45412.376      49096.788      46993.518    
    273000   136500         602.79519      45018.889      29967.865      7642.2153      6502.6842      1139.531       2157.6727      3633.8949     -1802.5702      19.281562      983.0715      -3851.8194      34004.269      32.397474      32.397474      32.397474      1.8322081      44415.014      46047.026      44594.625    
    274000   137000         608.00808      45147.94       30031.611      7552.9554      6558.9185      994.03692      2214.1167      3670.3955     -1851.9133      20.807228      999.31966     -4058.6888      34139.449      32.440348      32.440348      32.440348      1.8249532      44786.491      46121.946      44535.382    
    275000   137500         613.95263      44994.532      29939.809      7531.807       6623.0456      908.7614       2201.3744      3569.1816     -1827.3703      19.083468      935.05919     -3988.5669      34148.176      32.443112      32.443112      32.443112      1.8244869      43696.485      47040.722      44246.39     
    276000   138000         598.61032      45960.273      30299.051      7395.2323      6457.5397      937.69261      2245.483       3598.344      -1855.4295      21.064677      930.97644     -4002.746       34170.349      32.450132      32.450132      32.450132      1.823303       45072.667      48069.951      44738.2      
    277000   138500         606.05764      43000.509      28955.478      7558.2864      6537.878       1020.4084      2202.8435      3661.205      -1858.1598      21.59167       948.45242     -3955.5243      34119.864      32.434143      32.434143      32.434143      1.8260008      42738.611      41292.782      44970.134    
    278000   139000         611.28305      45097.307      30093.492      7629.4081      6594.2475      1035.1606      2223.2123      3626.0805     -1849.7087      21.44582       942.21006     -3928.0794      34155.623      32.44547       32.44547       32.44547       1.824089       42242.477      46601.601      46447.844    
    279000   139500         621.49569      44817.06       30069.416      7714.1895      6704.4168      1009.7727      2199.7325      3693.0864     -1829.1185      21.781589      849.89121     -3925.6006      34202.655      32.460356      32.460356      32.460356      1.8215808      45259.716      42808.52       46382.946    
    280000   140000         605.78557      45211.28       30125.406      7704.9354      6534.9431      1169.9923      2238.4858      3583.2517     -1827.5817      20.865449      1063.0586     -3908.0876      34003.376      32.39719       32.39719       32.39719       1.8322562      44095.667      47030.26       44507.912    
    281000   140500         604.20414      48716.404      31569.583      7443.7967      6517.8833      925.91343      2201.6975      3535.3382     -1815.5705      20.309957      1084.6072     -4100.469       33957.083      32.382481      32.382481      32.382481      1.8347541      46911.921      53764.685      45472.605    
    282000   141000         615.14753      47845.327      31300.954      7569.0984      6635.9357      933.16274      2139.9627      3501.3581     -1809.1738      20.025313      954.84115     -3873.8507      34010.756      32.399534      32.399534      32.399534      1.8318587      46792.222      48634.995      48108.764    
    283000   141500         615.25389      46353.274      30655.981      7639.1067      6637.0831      1002.0237      2239.6431      3600.2524     -1826.6804      19.148596      978.1406      -4008.4807      34047.878      32.411317      32.411317      32.411317      1.8298614      46640.573      46458.625      45960.624    
    284000   142000         615.59683      44024.483      29517.628      7595.3953      6640.7826      954.6127       2194.8268      3562.4606     -1830.572       20.580355      978.02895     -3970.712       34144.018      32.441795      32.441795      32.441795      1.824709       42278.411      44855.724      44939.314    
    285000   142500         600.40468      46802.363      30641.632      7450.8074      6476.8964      973.91095      2239.7284      3637.7554     -1869.4606      18.860885      1006.9822     -4059.9553      33976.021      32.3885        32.3885        32.3885        1.8337314      45831.302      49070.316      45505.471    
    286000   143000         608.1575       48586.034      31653.791      7680.2512      6560.5304      1119.7208      2237.8363      3581.6178     -1837.8536      20.55374       1099.3125     -3981.7459      33833.336      32.343097      32.343097      32.343097      1.8414648      46045.272      52556.374      47156.456    
    287000   143500         618.92567      49071.481      31945.642      7768.3296      6676.6925      1091.6371      2279.1749      3576.7623     -1839.0569      19.879386      1109.9768     -4055.0994      33783.369      32.327168      32.327168      32.327168      1.8441884      47225.013      48358.204      51631.227    
    288000   144000         606.48696      48528.745      31794.004      7812.7026      6542.5093      1270.1933      2370.2802      3619.2709     -1807.2459      20.762772      1001.4519     -3934.3265      33884.244      32.359311      32.359311      32.359311      1.8386982      47727.73       47545.438      50313.067    
    289000   144500         589.28857      49526.063      31888.615      7512.0493      6356.9809      1155.0685      2318.209       3570.3517     -1811.0425      18.985987      1149.4821     -4090.9179      33749.149      32.316249      32.316249      32.316249      1.8460584      51441.885      49341.798      47794.506    
    290000   145000         607.2898       48665.443      31688.132      7593.6159      6551.17        1042.4458      2212.1004      3666.0054     -1858.4951      21.77587       979.54866     -3978.4895      33948.582      32.379779      32.379779      32.379779      1.8352136      48431.242      51533.287      46031.801    
    291000   145500         613.48728      49435.62       31996.092      7513.5868      6618.0257      895.56113      2206.7421      3632.3039     -1850.6779      21.237735      970.71428     -4084.759       33957.834      32.38272       32.38272       32.38272       1.8347136      51431.897      50500.321      46374.643    
    292000   146000         600.55039      48888.787      31816.725      7699.4787      6478.4683      1221.0104      2278.8651      3644.1173     -1786.2325      20.677502      1098.1328     -4034.5498      33825.37       32.340559      32.340559      32.340559      1.8418985      48721.966      48077.742      49866.654    
    293000   146500         609.45327      47454.137      31437.024      7978.0389      6574.5086      1403.5302      2422.6744      3694.6411     -1850.757       21.249564      1017.555      -3901.8329      33896.843      32.363321      32.363321      32.363321      1.8380148      49566.829      49542.403      43253.18     
    294000   147000         618.65728      49095.651      32159.519      7935.2363      6673.7973      1261.439       2222.7917      3604.9661     -1792.2635      19.15777       1156.5953     -3949.8084      33832.339      32.342779      32.342779      32.342779      1.8415191      49970.091      48790.83       48526.032    
    295000   147500         610.12778      50605.54       32497.848      7634.529       6581.7849      1052.7441      2247.142       3511.6778     -1811.1862      19.631959      1175.1543     -4089.6757      33688.769      32.296965      32.296965      32.296965      1.849367       50659.169      52790.891      48366.561    
    296000   148000         611.97247      50362.989      32389.634      7626.5458      6601.6846      1024.8612      2137.8671      3563.2071     -1812.6372      20.011412      1134.906      -4018.4933      33714.554      32.305203      32.305203      32.305203      1.8479526      51574.44       50044.353      49470.173    
    297000   148500         603.383        51928.17       33533.185      8058.1009      6509.0252      1549.0757      2265.6186      3746.6137     -1859.4065      19.643305      1168.7535     -3792.1469      33638.507      32.280895      32.280895      32.280895      1.8521303      52227.525      53443.972      50113.012    
    298000   149000         625.79487      49917.252      32459.447      7988.5416      6750.7945      1237.7471      2321.4336      3672.3307     -1835.0013      21.049113      1125.6275     -4067.6925      33614.255      32.273135      32.273135      32.273135      1.8534666      47048.572      51541.344      51161.841    
    299000   149500         616.14727      49201.206      32083.948      7926.9614      6646.7205      1280.2409      2341.3136      3562.6123     -1821.5677      19.40798       1197.0592     -4018.5845      33665.969      32.289678      32.289678      32.289678      1.8506195      46053.743      52107.787      49442.089    
    300000   150000         593.39429      54290.951      34078.61       7535.8742      6401.2715      1134.6027      2241.9326      3533.6244     -1831.6864      19.583725      1230.4737     -4059.3253      33522.958      32.243891      32.243891      32.243891      1.8585143      53207.867      57271.405      52393.582    
Loop time of 229.027 on 1 procs for 300000 steps with 3620 atoms

Performance: 56.587 ns/day, 0.424 hours/ns, 1309.888 timesteps/s, 4.742 Matom-step/s
99.9% CPU use with 1 MPI tasks x 1 OpenMP threads

MPI task timing breakdown:
Section |  min time  |  avg time  |  max time  |%varavg| %total
---------------------------------------------------------------
Pair    | 39.873     | 39.873     | 39.873     |   0.0 | 17.41
Bond    | 70.105     | 70.105     | 70.105     |   0.0 | 30.61
Neigh   | 36.691     | 36.691     | 36.691     |   0.0 | 16.02
Comm    | 6.95       | 6.95       | 6.95       |   0.0 |  3.03
Output  | 1.1197     | 1.1197     | 1.1197     |   0.0 |  0.49
Modify  | 63.714     | 63.714     | 63.714     |   0.0 | 27.82
Other   |            | 10.57      |            |       |  4.62

Nlocal:           3620 ave        3620 max        3620 min
Histogram: 1 0 0 0 0 0 0 0 0 0
Nghost:          14538 ave       14538 max       14538 min
Histogram: 1 0 0 0 0 0 0 0 0 0
Neighs:              0 ave           0 max           0 min
Histogram: 1 0 0 0 0 0 0 0 0 0
FullNghs:  2.46655e+06 ave 2.46655e+06 max 2.46655e+06 min
Histogram: 1 0 0 0 0 0 0 0 0 0

Total # of neighbors = 2466546
Ave neighs/atom = 681.3663
Ave special neighs/atom = 5.9723757
Neighbor list builds = 6507
Dangerous builds = 0

unfix npt_comp

undump dump_comp

write_dump all custom npt_compress_last.dump id type mol x y z xu yu zu vx vy vz modify sort id
write_data /home/alexzhao/PolyJarvis/data/PVC2/lammps/equil/npt_compress/npt_compress_out.data
System init for write_data ...
Generated 6 of 6 mixed pair_coeff terms from sixthpower/sixthpower mixing rule

print "STAGE COMPLETE: NPT compression P=1.0->50000.0atm density target reached"
STAGE COMPLETE: NPT compression P=1.0->50000.0atm density target reached
quit
691     | 36.691     | 36.691     |   0.0 | 16.02
Comm    | 6.95       | 6.95       | 6.95       |   0.0 |  3.03
Output  | 1.1197     | 1.1197     | 1.1197     |   0.0 |  0.49
Modify  | 63.714     | 63.714     | 63.714     |   0.0 | 27.82
Other   |            | 10.57      |            |       |  4.62

Nlocal:           3620 ave        3620 max        3620 min
Histogram: 1 0 0 0 0 0 0 0 0 0
Nghost:          14538 ave       14538 max       14538 min
Histogram: 1 0 0 0 0 0 0 0 0 0
Neighs:              0 ave           0 max           0 min
Histogram: 1 0 0 0 0 0 0 0 0 0
FullNghs:  2.46655e+06 ave 2.46655e+06 max 2.46655e+06 min
Histogram: 1 0 0 0 0 0 0 0 0 0

Total # of neighbors = 2466546
Ave neighs/atom = 681.3663
Ave special neighs/atom = 5.9723757
Neighbor list builds = 6507
Dangerous builds = 0
System init for write_data ...
Generated 6 of 6 mixed pair_coeff terms from sixthpower/sixthpower mixing rule
STAGE COMPLETE: NPT compression P=1.0->50000.0atm density target reached
