units real
atom_style full
boundary p p p

# --- Force Field Styles ---
pair_style lj/class2/coul/long 9.5 9.5
kspace_style pppm 1e-6
dielectric 1.000000
bond_style class2
angle_style class2
dihedral_style class2
improper_style class2
special_bonds lj/coul 0 0 1
pair_modify mix sixthpower tail yes
neighbor 2.0 bin
neigh_modify delay 0 every 1 check yes
neigh_modify one 4000
# KOKKOS: package loaded via -pk kokkos on the command line

read_data /home/arz2/PolyJarvis/data/PMMA3/lammps/equil/npt_prod300/npt_prod300_out.data
Reading data file ...
  orthogonal box = (4.8584321 4.8584321 4.8584321) to (46.892566 46.892566 46.892566)
  1 by 1 by 1 MPI processor grid
  reading atoms ...
  7520 atoms
  reading velocities ...
  7520 velocities
  scanning bonds ...
  4 = max bonds/atom
  scanning angles ...
  17 = max angles/atom
  scanning dihedrals ...
  40 = max dihedrals/atom
  scanning impropers ...
  14 = max impropers/atom
  orthogonal box = (4.8584321 4.8584321 4.8584321) to (46.892566 46.892566 46.892566)
  1 by 1 by 1 MPI processor grid
  reading bonds ...
  7510 bonds
  reading angles ...
  14000 angles
  reading dihedrals ...
  18910 dihedrals
  reading impropers ...
  8500 impropers
Finding 1-2 1-3 1-4 neighbors ...
  special bond factors lj:    0        0        1       
  special bond factors coul:  0        0        1       
     4 = max # of 1-2 neighbors
    11 = max # of 1-3 neighbors
    15 = max # of special neighbors
  special bonds CPU = 0.004 seconds
  read_data CPU = 0.494 seconds


# --- Thermo Output ---
thermo_style custom step time temp press enthalpy etotal ke pe ebond eangle edihed eimp evdwl ecoul elong etail vol lx ly lz density pxx pyy pzz
thermo_modify flush yes
thermo 100

# --- Trajectory ---
dump dump_npt all custom 1000 /home/arz2/PolyJarvis/data/PMMA3/lammps/bm_P-500/bm_P-500.dump id type mol x y z ix iy iz vx vy vz

# --- Restart Checkpointing ---
restart 10000 npt_1.rst npt_2.rst

# --- Initial Velocities (optional) ---
# Velocities read from data file

# --- SHAKE Constraints ---
fix shake_fix all shake 1e-4 1000 0 m 1.008
Finding SHAKE clusters ...
      10 = # of size 2 clusters
     490 = # of size 3 clusters
    1010 = # of size 4 clusters
       0 = # of frozen angles
  find clusters CPU = 0.002 seconds

# --- NPT Thermostat + Barostat (Nose-Hoover) ---
# T_damp = 100.0 fs  (heat bath coupling)
# P_damp = 1000.0 fs  (pressure bath coupling, ~10x T_damp typical)
# Ramp: T=300.0->300.0K  P=-500.0->-500.0atm
timestep 1.0
fix npt_fix all npt temp 300.0 300.0 100.0 iso -500.0 -500.0 1000.0

run 500000
PPPM Kokkos initialization ...
  using 12-bit tables for long-range coulomb
  G vector (1/distance) = 0.33292532
  grid = 45 45 45
  stencil order = 5
  estimated absolute RMS force accuracy = 0.00029006286
  estimated relative force accuracy = 8.735157e-07
  using double precision cuFFT
  3d grid and FFT values/proc = 140608 91125
Generated 15 of 15 mixed pair_coeff terms from sixthpower/sixthpower mixing rule
Neighbor list info ...
  update: every = 1 steps, delay = 0 steps, check = yes
  max neighbors/atom: 4000, page size: 100000
  master list distance cutoff = 11.5
  ghost atom cutoff = 11.5
  binsize = 11.5, bins = 4 4 4
  1 neighbor lists, perpetual/occasional/extra = 1 0 0
  (1) pair lj/class2/coul/long/kk, perpetual
      attributes: full, newton off, kokkos_device
      pair build: full/bin/kk/device
      stencil: full/bin/3d
      bin: kk/device
Per MPI rank memory allocation (min/avg/max) = 64.5 | 64.5 | 64.5 Mbytes
   Step          Time           Temp          Press         Enthalpy        TotEng         KinEng         PotEng         E_bond        E_angle        E_dihed        E_impro         E_vdwl         E_coul         E_long         E_tail         Volume           Lx             Ly             Lz          Density          Pxx            Pyy            Pzz      
         0   0              367.35305      32.719236      25941.427      25905.988      6766.0646      19139.923      2415.6059      6548.5072     -1932.2737      190.78453     -313.60555      43010.865     -30779.96      -528.47546      74268.783      42.034134      42.034134      42.034134      1.1196986      383.5959       1529.9436     -1815.3818    
       100   100            299.78114     -1059.1616      23594.986      24745.149      5521.4966      19223.653      2475.8059      6625.2874     -1891.6528      198.22469     -413.46974      43012.757     -30783.3       -527.12039      74459.706      42.070122      42.070122      42.070122      1.1168275     -1767.7961     -572.33763     -837.3511     
       200   200            296.12425     -395.36822      24219.218      24650.155      5454.1424      19196.013      2476.8288      6531.5178     -1931.377       210.66316     -370.88813      43053.351     -30774.083     -525.1636       74737.148      42.122309      42.122309      42.122309      1.1126816     -65.143056     -841.60606     -279.35553    
       300   300            295.59676     -159.87739      24380.422      24555.333      5444.4269      19110.906      2414.8107      6477.4378     -1958.3915      209.4537      -295.42694      43046.363     -30783.341     -523.21154      75015.985      42.174629      42.174629      42.174629      1.1085457     -67.172242     -1061.8221      649.36222    
       400   400            294.73924     -20.946034      24623.568      24646.553      5428.6327      19217.92       2441.8348      6522.5152     -1908.2116      199.34397     -280.58896      43027.766     -30784.739     -521.63788      75242.29       42.216997      42.216997      42.216997      1.1052116     -696.52133      1406.9847     -773.30145    
       500   500            299.92565     -513.42365      24212.893      24776.516      5524.1582      19252.358      2527.9369      6492.0306     -1923.1242      203.54151     -306.4736       43038.187     -30779.741     -521.42838      75272.522      42.22265       42.22265       42.22265       1.1047677     -1445.9753      251.29055     -345.58619    
       600   600            300.60879     -926.37547      23783.712      24798.931      5536.7405      19262.191      2479.9338      6547.9594     -1865.3157      199.88297     -350.74571      43033.088     -30782.611     -522.31686      75144.481      42.198696      42.198696      42.198696      1.1066501     -1202.9872      592.18918     -2168.3284    
       700   700            299.19993     -1709.6195      22907.911      24780.053      5510.7916      19269.262      2502.6331      6660.643      -1912.4525      204.60287     -431.8703       43026.265     -30780.56      -522.71826      75086.777      42.187892      42.187892      42.187892      1.1075006     -1459.0262     -2452.9812     -1216.851     
       800   800            295.96353     -41.316521      24692.92       24738.083      5451.1822      19286.901      2489.7455      6596.4884     -1930.0874      204.38587     -329.19283      43039.172     -30783.611     -523.66715      74950.718      42.162394      42.162394      42.162394      1.1095111      765.21023      301.46611     -1190.6259    
       900   900            299.18947     -750.3816       23844.376      24663.945      5510.5989      19153.346      2474.5808      6545.5572     -1956.1149      190.40847     -342.72147      43024.905     -30783.269     -524.08717      74890.651      42.151128      42.151128      42.151128      1.110401      -1633.9736      373.61346     -990.78462    
      1000   1000           295.03335     -1239.1709      23305.388      24659.315      5434.0497      19225.265      2533.128       6543.5827     -1898.3711      200.906       -398.44864      43032.374     -30787.906     -523.8937       74918.307      42.156316      42.156316      42.156316      1.109991      -2179.9972     -1100.9233     -436.59223    
      1100   1100           305.47932      558.55785      25391.635      24781.231      5626.448       19154.783      2402.0866      6573.2025     -1937.2879      192.23742     -310.5783       43017.622     -30782.5       -523.79036      74933.088      42.159088      42.159088      42.159088      1.1097721      41.396154      1150.0328      484.24462    
      1200   1200           302.62587     -242.09198      24580.008      24844.888      5573.892       19270.996      2590.8316      6549.0237     -1972.1026      220.26215     -367.36999      43030.358     -30780.007     -523.16534      75022.611      42.175871      42.175871      42.175871      1.1084478     -674.21048      180.70063     -232.7661     
      1300   1300           303.29591     -323.03181      24458.338      24812.093      5586.233       19225.86       2428.2097      6542.9153     -1913.1518      215.83188     -307.95801      43043.252     -30783.238     -522.69647      75089.906      42.188478      42.188478      42.188478      1.1074544     -378.7539       435.32015     -1025.6617    
      1400   1400           297.90071     -893.97102      23703.698      24684.694      5486.8619      19197.832      2493.847       6545.9077     -1954.6837      218.27721     -350.61166      43030.884     -30785.788     -521.63094      75243.293      42.217184      42.217184      42.217184      1.1051969     -766.77392     -853.15166     -1061.9875    
      1500   1500           297.72777     -318.56107      24256.106      24605.948      5483.6768      19122.271      2419.0645      6535.3837     -1981.179       208.20881     -325.18469      43045.557     -30779.579     -521.22719      75301.577      42.228082      42.228082      42.228082      1.1043414     -952.49003     -126.87135      123.67817    
      1600   1600           294.1185      -687.89769      23894.943      24650.559      5417.1997      19233.359      2468.7379      6561.9787     -1928.5792      202.08887     -328.82726      43046.135     -30788.174     -521.11078      75318.399      42.231226      42.231226      42.231226      1.1040948     -1423.6383     -92.771448     -547.2833     
      1700   1700           296.72015     -775.75067      23877.849      24728.048      5465.1179      19262.93       2506.1805      6640.9721     -1994.4287      207.63836     -332.98178      43021.474     -30785.925     -522.28632      75148.875      42.199518      42.199518      42.199518      1.1065854     -1308.4169      435.7728      -1454.6079    
      1800   1800           301.5891       632.8484       25488.506      24796.513      5554.7962      19241.717      2405.258       6534.0874     -1905.9856      214.56036     -279.03241      43051.204     -30778.375     -523.48611      74976.639      42.167254      42.167254      42.167254      1.1091275      176.23834      416.03474      1306.2721    
      1900   1900           301.25381      19.390902      24869.253      24848.025      5548.6208      19299.404      2507.7522      6585.9132     -1937.101       203.11092     -306.28449      43033.685     -30787.672     -522.85914      75066.544      42.184102      42.184102      42.184102      1.1077991     -653.30024     -578.60333      1290.0763    
      2000   2000           302.09513     -902.27487      23873.716      24862.783      5564.1167      19298.667      2563.725       6583.0575     -1976.1176      216.30761     -335.24664      43028.8       -30781.859     -522.17989      75164.191      42.202385      42.202385      42.202385      1.1063599     -897.95597     -425.58756     -1383.2811    
      2100   2100           298.96352      886.85504      25712.437      24741.066      5506.4373      19234.628      2441.2944      6525.2062     -1942.7602      217.02787     -250.58908      43031.932     -30787.483     -522.60604      75102.9        42.190911      42.190911      42.190911      1.1072628      110.60953      1129.6215      1420.334     
      2200   2200           298.15218     -853.19333      23722.637      24658.327      5491.4937      19166.833      2495.4812      6564.1282     -1953.1314      213.06166     -414.18192      43045.179     -30783.703     -521.94244      75198.386      42.208784      42.208784      42.208784      1.1058569     -1669.4664     -360.03837     -530.07523    
      2300   2300           300.04521     -1080.3713      23510.117      24695.21       5526.3602      19168.85       2448.4483      6497.9154     -1923.1078      195.36893     -332.27843      43059.506     -30777.003     -521.82821      75214.848      42.211864      42.211864      42.211864      1.1056148     -1016.8158     -1947.3847     -276.91344    
      2400   2400           301.54695     -1885.2359      22743.242      24814.465      5554.0199      19260.445      2499.8341      6599.2605     -1893.3035      202.50057     -405.91988      43036.628     -30778.554     -521.00979      75332.998      42.233955      42.233955      42.233955      1.1038808     -2029.4108     -1638.2239     -1988.073     
      2500   2500           299.18547     -101.49841      24736.761      24848.306      5510.5252      19337.781      2474.7799      6606.6339     -1899.3967      200.97441     -290.34776      43029.683     -30784.546     -520.8532       75355.646      42.238187      42.238187      42.238187      1.103549       872.25512      254.86617     -1431.6165    
      2600   2600           303.41492     -561.86008      24197.715      24815.185      5588.425       19226.76       2389.825       6563.5341     -1896.2505      202.98003     -296.07905      43040.309     -30777.559     -520.85858      75354.868      42.238041      42.238041      42.238041      1.1035604     -1567.3578      430.73388     -548.95637    
      2700   2700           298.11614     -1280.7907      23346.046      24753          5490.8298      19262.171      2480.2457      6540.9287     -1886.3049      206.71503     -334.51039      43034.138     -30779.042     -521.08097      75322.708      42.232032      42.232032      42.232032      1.1040316     -1793.7749     -1945.5098     -103.0875     
      2800   2800           300.67096     -1035.282       23610.157      24746.096      5537.8856      19208.21       2463.803       6527.5956     -1898.8656      193.29602     -327.25716      43035.211     -30785.573     -521.68793      75235.072      42.215647      42.215647      42.215647      1.1053176     -214.15781     -945.15033     -1946.5379    
      2900   2900           298.60833     -486.27379      24226.66       24759.003      5499.8951      19259.108      2490.9833      6604.6631     -1924.076       222.20195     -369.51306      43017.901     -30783.052     -522.87359      75064.471      42.183713      42.183713      42.183713      1.1078297     -777.9315       40.057179     -720.94706    
      3000   3000           300.41351     -1154.5402      23520.417      24781.862      5533.1437      19248.718      2524.0238      6578.3755     -1923.8882      201.09542     -350.74281      43003.759     -30783.904     -523.89933      74917.502      42.156165      42.156165      42.156165      1.110003      -653.19        -473.68829     -2336.7422    
      3100   3100           303.79694     -996.1783       23718.69       24807.977      5595.4613      19212.516      2458.9784      6589.2046     -1900.3788      206.86386     -378.6709       43016.983     -30780.464     -523.48208      74977.217      42.167363      42.167363      42.167363      1.1091189     -2456.7713     -225.9748      -305.78876    
      3200   3200           305.17751     -1286.2167      23512.263      24918.982      5620.8891      19298.093      2545.722       6576.5105     -1942.3365      193.53044     -334.70059      43040.511     -30781.144     -523.37601      74992.412      42.170211      42.170211      42.170211      1.1088942     -1733.1571     -1429.6894     -695.80355    
      3300   3300           306.74478      268.10982      25231.414      24938.386      5649.7558      19288.63       2477.6861      6533.3697     -1904.1694      208.24603     -289.18162      43044.881     -30782.202     -523.73454      74941.075      42.160586      42.160586      42.160586      1.1096538      1517.7326      308.30421     -1021.7073    
      3400   3400           302.67091      532.41267      25384.832      24802.214      5574.7216      19227.492      2428.5618      6511.2358     -1926.1396      206.02888     -253.59299      43047.114     -30785.716     -523.08423      75034.243      42.17805       42.17805       42.17805       1.108276      -70.768498      418.34082      1249.6657    
      3500   3500           293.48023     -1104.0895      23517.501      24729.563      5405.4436      19324.119      2506.4276      6552.164      -1869.4516      190.88066     -287.43632      43022.432     -30790.897     -521.41862      75273.931      42.222914      42.222914      42.222914      1.104747      -297.94857     -2542.4168     -471.90295    
      3600   3600           299.51082     -1044.8578      23603.792      24754.032      5516.5177      19237.514      2482.0504      6628.1979     -1968.3205      198.46503     -348.59838      43025.991     -30780.271     -519.96689      75484.093      42.262172      42.262172      42.262172      1.1016712     -2048.8321      374.27621     -1460.0175    
      3700   3700           303.47351     -810.10354      23904.66       24796.836      5589.5042      19207.332      2406.0148      6548.4886     -1882.9389      210.60105     -330.82472      43036.664     -30780.673     -519.75332      75515.11       42.26796       42.26796       42.26796       1.1012187      201.88703     -1437.7687     -1194.429     
      3800   3800           303.38017     -415.26728      24423.542      24881.376      5587.785       19293.591      2485.0652      6537.1097     -1910.1215      213.09988     -300.63053      43043.937     -30774.869     -519.19068      75596.945      42.283223      42.283223      42.283223      1.1000266     -1139.4522     -450.32244      343.97281    
      3900   3900           305.47843     -955.94687      23927.697      24982.345      5626.4316      19355.914      2523.4562      6604.384      -1920.6723      213.70997     -307.76832      43027.713     -30784.909     -518.83977      75648.074      42.292753      42.292753      42.292753      1.0992831      365.88185     -1455.9095     -1777.8129    
      4000   4000           305.41705     -576.2171       24285.722      24919.695      5625.3011      19294.394      2468.8199      6546.353      -1910.3232      204.69641     -277.89155      43039.588     -30776.848     -520.26184      75441.3        42.254184      42.254184      42.254184      1.1022961     -235.9559       27.474559     -1520.1699    
      4100   4100           301.92133      670.84092      25509.016      24773.163      5560.9154      19212.248      2409.87        6579.43       -1990.8643      198.80992     -265.90682      43059.778     -30778.869     -521.8382       75213.408      42.211594      42.211594      42.211594      1.105636       1141.2158      28.463896      842.84312    
      4200   4200           300.80454      105.10062      24865.305      24750.199      5540.346       19209.853      2431.0015      6603.1496     -1939.4851      191.87248     -363.14471      43065.457     -30778.998     -522.65417      75095.984      42.189616      42.189616      42.189616      1.1073648     -1152.0264      900.0582       567.2701     
      4300   4300           302.09141     -866.63963      23811.379      24759.195      5564.0481      19195.147      2490.2715      6452.8159     -1931.3056      202.15019     -289.47892      43052.311     -30781.617     -523.38515      74991.102      42.169966      42.169966      42.169966      1.1089136     -634.56156     -936.71814     -1028.6392    
      4400   4400           303.25937     -594.36804      24141.378      24791.48       5585.5601      19205.92       2442.7399      6566.3637     -1962.1263      203.71171     -322.70665      43054.737     -30776.799     -523.33621      74998.115      42.17128       42.17128       42.17128       1.1088099      185.23541     -1565.8602     -402.47937    
      4500   4500           302.52281     -330.42489      24452.971      24814.129      5571.9937      19242.135      2380.7799      6609.3311     -1893.4298      202.68755     -333.42136      43053.044     -30776.856     -523.70103      74945.87       42.161485      42.161485      42.161485      1.1095828      102.62405      571.44703     -1665.3458    
      4600   4600           297.105       -402.11739      24305.563      24744.674      5472.2062      19272.468      2490.7687      6589.0068     -1950.3942      209.04992     -325.20852      43041.742     -30782.497     -524.18633      74876.484      42.14847       42.14847       42.14847       1.1106111     -509.17246     -385.42506     -311.75466    
      4700   4700           296.13695      130.53975      24815.935      24673.448      5454.3764      19219.071      2413.7985      6546.3588     -1920.3582      203.34027     -261.87449      43021.793     -30783.987     -524.41382      74844.002      42.142374      42.142374      42.142374      1.1110931      217.11527      443.62985     -269.12588    
      4800   4800           299.00105     -491.28424      24171.018      24708.015      5507.1286      19200.886      2401.7633      6593.1084     -1925.5514      201.62705     -319.71573      43031.654     -30781.999     -523.68253      74948.517      42.161982      42.161982      42.161982      1.1095436      409.99143     -586.28306     -1297.5611    
      4900   4900           302.3114      -51.081528      24793.464      24849.371      5568.0999      19281.271      2508.0773      6588.5202     -1932.1037      201.45738     -326.63411      43025.97      -30784.016     -523.00112      75046.167      42.180285      42.180285      42.180285      1.1080999     -1311.2732      1659.0087     -500.98007    
      5000   5000           302.75819     -484.14409      24328.502      24859.127      5576.329       19282.798      2456.2131      6565.7838     -1878.9137      211.46297     -352.77458      43058.814     -30777.788     -522.26898      75151.37       42.199985      42.199985      42.199985      1.1065487     -747.87024     -918.31944      213.75741    
      5100   5100           301.07878     -1576.1743      23080.515      24809.917      5545.3971      19264.52       2506.6235      6547.1854     -1940.8417      208.81717     -314.59298      43040.154     -30782.825     -521.69321      75234.311      42.215504      42.215504      42.215504      1.1053288     -562.78673     -2035.985      -2129.7511    
      5200   5200           302.52853     -416.4023       24306.407      24763.275      5572.0992      19191.176      2447.0895      6647.4609     -1980.3019      207.67793     -382.78541      43032.893     -30780.858     -521.70999      75231.892      42.215052      42.215052      42.215052      1.1053643     -628.28807      143.27684     -764.19569    
      5300   5300           297.12893      171.66621      24930.797      24742.66       5472.6471      19270.013      2419.419       6549.0494     -1904.0398      211.81988     -253.42007      43032.202     -30785.018     -522.29724      75147.304      42.199224      42.199224      42.199224      1.1066086     -356.81969     -317.33619      1189.1545    
      5400   5400           300.88658     -1148.4776      23482.382      24741.597      5541.8569      19199.74       2564.4739      6471.0265     -1918.2996      195.28039     -362.51355      43036.844     -30787.071     -522.07127      75179.829      42.205312      42.205312      42.205312      1.1061298     -1336.4105     -1029.1224     -1079.9       
      5500   5500           299.75793     -267.50192      24479.628      24773.097      5521.0691      19252.028      2400.4848      6560.8843     -1889.5947      204.37821     -281.27239      43042.473     -30785.326     -521.76219      75224.364      42.213644      42.213644      42.213644      1.105475      -1292.9729     -689.45817      1179.9253    
      5600   5600           303.04492     -15.370233      24842.404      24859.265      5581.6102      19277.655      2466.8592      6573.9925     -1908.8344      187.86162     -278.67162      43028.601     -30792.153     -521.80394      75218.346      42.212518      42.212518      42.212518      1.1055634     -1420.331       236.14824      1138.0721    
      5700   5700           304.15587     -821.05312      24049.561      24949.411      5602.0722      19347.339      2572.4074      6543.3267     -1884.0332      197.34085     -327.68805      43031.471     -30785.486     -522.28557      75148.983      42.199539      42.199539      42.199539      1.1065838     -1475.8835     -602.65706     -384.61877    
      5800   5800           297.86694     -3.8887696      24849.474      24853.725      5486.24        19367.485      2432.9508      6704.1        -1925.964       207.63285     -302.8233       43034.026     -30782.437     -523.67103      74950.163      42.16229       42.16229       42.16229       1.1095193     -557.49618      611.71614     -65.886269    
      5900   5900           300.254        211.84747      24947.646      24716.643      5530.2058      19186.437      2380.9518      6518.0751     -1939.586       199.75143     -226.06569      43034.902     -30781.591     -524.94267      74768.602      42.128218      42.128218      42.128218      1.1122135      1021.815       408.98498     -795.25761    
      6000   6000           293.8247      -927.88965      23688.028      24700.983      5411.7884      19289.195      2550.2495      6504.023      -1948.8838      205.82292     -296.79422      43060.955     -30786.177     -524.34011      74854.524      42.144349      42.144349      42.144349      1.1109369     -829.16033     -855.54937     -1098.9593    
      6100   6100           301.30257      1009.8873      25880.641      24776.141      5549.5189      19226.622      2455.5279      6498.6379     -1928.9193      197.78128     -268.93651      43056.923     -30784.392     -523.37665      74992.32       42.170194      42.170194      42.170194      1.1088956      572.88803      2029.6376      427.13632    
      6200   6200           302.10051      112.15568      24987.794      24864.478      5564.2157      19300.262      2494.1065      6538.6259     -1900.0733      210.25362     -318.06538      43055.938     -30780.524     -520.60555      75391.493      42.244883      42.244883      42.244883      1.1030243      247.59437      48.829232      40.043448    
      6300   6300           298.4352      -1718.7227      23010.28       24906.943      5496.7064      19410.237      2565.0526      6595.5861     -1920.3959      188.51709     -288.2029       43051.806     -30782.126     -518.70751      75667.363      42.296347      42.296347      42.296347      1.0990029     -2782.6129     -1459.0936     -914.46171    
      6400   6400           301.12221     -361.355        24441.112      24840.184      5546.1969      19293.987      2487.1849      6580.7555     -1920.7929      199.88194     -315.26129      43046.903     -30784.684     -518.31076      75725.284      42.307137      42.307137      42.307137      1.0981623      371.80235     -1522.925       67.057676    
      6500   6500           297.31479      1046.4912      25857.625      24701.78       5476.0702      19225.71       2410.8061      6496.0886     -1938.4411      200.4193      -208.44717      43046.493     -30781.208     -518.25451      75733.502      42.308667      42.308667      42.308667      1.0980431      956.54912      1466.4617      716.46266    
      6600   6600           296.86004     -2467.3567      21983.925      24709.637      5467.6945      19241.942      2583.1542      6552.3488     -1942.5796      190.16029     -377.70389      43017.82      -30781.258     -518.1542       75748.164      42.311398      42.311398      42.311398      1.0978306     -2689.087      -1231.6627     -3481.3203    
      6700   6700           300.39235     -1784.0298      22845.387      24810.188      5532.754       19277.434      2518.1556      6504.9196     -1873.4774      188.31356     -291.72103      43015.737     -30784.493     -519.74527      75516.279      42.268178      42.268178      42.268178      1.1012016     -1778.1052     -1602.1619     -1971.8223    
      6800   6800           302.63233     -427.98156      24384.861      24854.9        5574.011       19280.889      2432.0978      6605.53       -1901.9712      211.17364     -322.49975      43039.851     -30783.293     -521.19349      75306.446      42.228992      42.228992      42.228992      1.10427       -2202.3845      609.37104      309.06875    
      6900   6900           299.20076      925.32635      25820.92       24808.349      5510.8069      19297.542      2495.472       6583.1023     -1934.1868      193.8854      -272.34567      43019.401     -30787.787     -523.08997      75033.419      42.177896      42.177896      42.177896      1.1082882      1387.6224      1248.3427      140.01401    
      7000   7000           298.51469     -1019.819       23533.624      24648.337      5498.1704      19150.166      2438.534       6531.7662     -1915.45        198.75235     -346.00971      43025.964     -30783.39      -523.68128      74948.696      42.162015      42.162015      42.162015      1.109541      -1740.0789     -597.14709     -722.23102    
      7100   7100           294.50783     -320.85817      24233.339      24583.888      5424.3705      19159.518      2482.2208      6542.6445     -1951.5602      197.15902     -357.95323      43029.833     -30782.827     -523.92797      74913.406      42.155397      42.155397      42.155397      1.1100637      22.816124     -1175.9467      190.55606    
      7200   7200           299.5316       690.79029      25417.683      24662.885      5516.9003      19145.985      2465.8877      6542.8451     -1958.8155      192.23739     -364.584        43051.213     -30782.799     -523.8694       74921.783      42.156968      42.156968      42.156968      1.1099396     -362.90794      1382.4816      1052.7972    
      7300   7300           297.88963     -528.82736      24171.179      24749.775      5486.6579      19263.117      2412.9663      6640.1046     -1900.3372      191.00661     -353.94746      43055.761     -30782.437     -523.1739       75021.382      42.175641      42.175641      42.175641      1.108466      -232.42906     -1100.7806     -253.27241    
      7400   7400           300.1761      -1440.1525      23225.133      24804.791      5528.771       19276.02       2456.6855      6580.2903     -1929.1424      199.68845     -266.69703      43015.412     -30780.217     -521.85806      75210.545      42.211059      42.211059      42.211059      1.1056781     -604.01535     -1047.2058     -2669.2365    
      7500   7500           299.46673     -766.05097      23972.788      24816.906      5515.7055      19301.2        2448.445       6620.2569     -1950.33        199.58936     -251.78735      43014.63      -30779.604     -519.47125      75556.114      42.275609      42.275609      42.275609      1.1006211     -2458.7884     -439.52855      600.16408    
      7600   7600           304.0333      -350.87037      24472.555      24861.112      5599.8147      19261.298      2486.8347      6555.2264     -1980.6502      193.94536     -251.53614      43041.37      -30783.892     -516.89109      75933.267      42.345834      42.345834      42.345834      1.0951544     -323.50325     -350.94045     -378.16741    
      7700   7700           303.84646     -1256.4614      23561.012      24957.235      5596.3734      19360.861      2552.5396      6567.2943     -1896.0194      193.40196     -323.49048      43045.516     -30778.381     -515.11176      76195.561      42.394536      42.394536      42.394536      1.0913845     -1715.8093     -1030.4782     -1023.0967    
      7800   7800           302.51875     -379.63688      24543.992      24965.316      5571.9189      19393.397      2536.3653      6547.5267     -1918.204       203.49294     -257.06341      43056.908     -30775.629     -515.77446      76097.66       42.376372      42.376372      42.376372      1.0927885     -1181.1871      417.31269     -375.03626    
      7900   7900           299.67132     -550.5224       24233.535      24842.458      5519.4738      19322.984      2512.4492      6553.8207     -1913.7904      199.32025     -284.54154      43031.656     -30775.931     -517.51125      75842.273      42.328913      42.328913      42.328913      1.0964683     -761.70172     -68.448619     -821.41687    
      8000   8000           298.2824      -181.92657      24553.911      24754.221      5493.8921      19260.329      2468.1624      6478.5741     -1948.305       190.357       -181.79033      43033.284     -30779.954     -519.87643      75497.228      42.264623      42.264623      42.264623      1.1014795      679.70653      37.5547       -1263.0409    
      8100   8100           298.3172      -1326.4992      23276.454      24733.1        5494.5332      19238.567      2453.0873      6553.5261     -1912.1779      192.63219     -321.6683       43041.398     -30768.231     -521.26668      75295.872      42.227016      42.227016      42.227016      1.1044251     -1656.8284     -2269.0308     -53.638342    
      8200   8200           297.32928      225.88524      25011.083      24763.528      5476.3371      19287.191      2425.6087      6630.9821     -1962.762       204.82621     -282.88426      43047.117     -30775.697     -522.30365      75146.382      42.199052      42.199052      42.199052      1.1066222     -356.65988      939.4772       94.838393    
      8300   8300           303.47248     -1128.5929      23653.763      24890.853      5589.4853      19301.368      2487.5168      6596.7373     -1905.9502      208.93458     -345.97175      43035.774     -30775.673     -522.20746      75160.223      42.201642      42.201642      42.201642      1.1064184     -141.5192      -1490.349      -1753.9106    
      8400   8400           302.74903     -309.83196      24620.028      24959.846      5576.1605      19383.685      2556.2657      6624.0978     -1938.0754      211.6796      -319.93244      43033.946     -30784.296     -521.89969      75204.545      42.209936      42.209936      42.209936      1.1057663     -1849.4518      759.05035      160.90557    
      8500   8500           300.56973      415.72095      25339.226      24882.776      5536.0211      19346.755      2544.7715      6567.5714     -1928.3464      184.68718     -283.23368      43042.312     -30781.007     -521.33381      75286.176      42.225203      42.225203      42.225203      1.1045673      827.52573     -397.21495      816.85206    
      8600   8600           303.189        604.41479      25452.316      24787.764      5584.264       19203.5        2418.1111      6567.8912     -1980.7865      207.7083      -295.46275      43064.528     -30778.489     -520.61074      75390.741      42.244743      42.244743      42.244743      1.1030353      909.34415      899.59816      4.3020592    
      8700   8700           296.799       -1486.1743      23117.649      24753.345      5466.5702      19286.775      2462.0644      6527.4356     -1890.2185      219.54263     -297.60268      43041.629     -30776.076     -520.08474      75466.989      42.25898       42.25898       42.25898       1.1019209     -1821.0205     -128.45587     -2509.0465    
      8800   8800           294.24315     -716.87823      23947.574      24736.945      5419.4955      19317.449      2446.0815      6612.2804     -1866.8594      186.48325     -305.73171      43028.359     -30783.164     -519.84172      75502.269      42.265564      42.265564      42.265564      1.101406      -2234.8826     -81.741833      165.98972    
      8900   8900           299.16797     -335.91955      24433.412      24802.9        5510.2028      19292.697      2492.787       6607.9706     -1941.4165      211.41835     -324.52862      43036.999     -30790.533     -520.40635      75420.35       42.250273      42.250273      42.250273      1.1026023     -13.536573     -948.70396     -45.518131    
      9000   9000           304.93821     -1000.7521      23801.81       24900.396      5616.4816      19283.914      2507.0512      6612.4841     -1963.8666      211.26779     -345.12732      43049.991     -30787.886     -521.43438      75271.656      42.222488      42.222488      42.222488      1.1047804     -660.03587     -282.34103     -2059.8794    
      9100   9100           300.03822     -226.95042      24641.105      24889.933      5526.2315      19363.701      2528.0717      6573.5494     -1886.0761      204.13773     -309.57634      43036.055     -30782.461     -522.08402      75177.994      42.204968      42.204968      42.204968      1.1061568     -281.8609       996.08559     -1395.076     
      9200   9200           301.0671      -4.4717776      24709.92       24714.823      5545.1818      19169.641      2465.7829      6523.663      -1953.039       196.01267     -303.11924      43024.547     -30784.206     -522.08782      75177.446      42.204866      42.204866      42.204866      1.1061649     -212.97455      384.29637     -184.73715    
      9300   9300           299.39802     -922.53229      23669.067      24681.847      5514.4401      19167.407      2459.4725      6542.1134     -1959.4417      195.82134     -327.04564      43036.655     -30780.168     -521.40286      75276.206      42.223339      42.223339      42.223339      1.1047136     -204.88394     -1776.2818     -786.43115    
      9400   9400           298.58842     -1659.7196      22906.253      24731.071      5499.5286      19231.542      2500.3396      6593.0771     -1942.9365      215.43329     -391.93037      43039.5       -30781.941     -520.62165      75389.161      42.244448      42.244448      42.244448      1.1030584     -2537.8497     -929.0067      -1512.3023    
      9500   9500           300.29319      95.275653      24946.443      24841.983      5530.9276      19311.056      2485.9809      6546.3336     -1920.2293      206.68089     -284.85596      43053.377     -30776.232     -522.08314      75178.121      42.204992      42.204992      42.204992      1.106155      -1773.0268      938.98391      1119.8699    
      9600   9600           296.29105      795.13283      25725.377      24854.448      5457.2145      19397.234      2460.7964      6626.2221     -1934.3782      206.81678     -234.52036      43055.746     -30783.449     -522.59373      75104.67       42.191242      42.191242      42.191242      1.1072368      1723.826       752.93967     -91.36717     
      9700   9700           299.24626     -1429.3091      23251.175      24821.503      5511.6449      19309.858      2560.8548      6660.2214     -1935.5346      202.72488     -431.93211      43033.85      -30780.326     -521.0061       75333.531      42.234054      42.234054      42.234054      1.103873      -2338.5263     -668.867       -1280.5338    
      9800   9800           304.08856      885.23955      25759.266      24786.221      5600.8325      19185.389      2448.5385      6502.7558     -1970.0489      207.6179      -239.0128       43026.587     -30791.049     -520.75665      75369.617      42.240797      42.240797      42.240797      1.1033445      1466.6742     -355.12203      1544.1665    
      9900   9900           299.035       -908.12007      23764.972      24765.007      5507.7539      19257.253      2540.4476      6594.2635     -1967.5456      193.22333     -344.30484      43024.816     -30783.647     -519.79837      75508.566      42.266739      42.266739      42.266739      1.1013141     -1228.9486     -547.87954     -947.53208    
     10000   10000          299.18829     -1530.7178      23072.144      24757.212      5510.5773      19246.634      2511.9935      6547.2153     -1912.5576      197.28201     -344.1851       43027.135     -30780.249     -519.97775      75482.517      42.261878      42.261878      42.261878      1.1016942     -1136.234      -2703.6231     -752.29619    
     10100   10100          300.13348     -207.59409      24551.32       24779.373      5527.9861      19251.387      2454.4822      6525.2005     -1941.7588      223.18563     -268.6947       43037.082     -30778.109     -521.05705      75326.165      42.232678      42.232678      42.232678      1.1039809     -1357.0851      788.83735     -54.534539    
     10200   10200          301.78605     -66.304419      24763.691      24836.447      5558.4237      19278.023      2497.2242      6587.2184     -1957.7346      203.21036     -329.29503      43056.141     -30778.741     -521.65707      75239.523      42.216479      42.216479      42.216479      1.1052522     -1588.3571      572.52381      816.92005    
     10300   10300          300.23641      229.43517      25169.699      24918.102      5529.8818      19388.22       2486.6476      6637.8885     -1951.8089      220.69815     -263.01073      43036.464     -30778.658     -521.98898      75191.682      42.20753       42.20753       42.20753       1.1059554      600.31098     -259.954        347.94853    
     10400   10400          302.33344     -3.458419       24877          24880.801      5568.5058      19312.295      2492.649       6553.9499     -1916.8433      208.05972     -291.90243      43044.32      -30777.937     -520.86448      75354.015      42.237882      42.237882      42.237882      1.1035729      11.10251      -16.285492     -5.1922747    
     10500   10500          299.45327     -138.7985       24599.684      24752.677      5515.4577      19237.22       2530.4498      6527.981      -1992.1986      207.94115     -285.17154      43028.685     -30780.467     -519.29925      75581.139      42.280276      42.280276      42.280276      1.1002566      38.412939      260.51776     -715.32621    
     10600   10600          298.52404     -391.46849      24301.479      24734.096      5498.3427      19235.754      2486.3106      6520.0365     -1912.2079      209.2179      -316.26714      43033.691     -30785.028     -517.96495      75775.84       42.31655       42.31655       42.31655       1.0974296     -777.17106      443.89377     -841.12818    
     10700   10700          298.43129     -373.51567      24378.221      24791.293      5496.6345      19294.659      2523.0418      6501.5012     -1911.2515      215.91667     -291.5049       43035.513     -30778.558     -517.59416      75830.124      42.326652      42.326652      42.326652      1.096644       1548.8335     -1047.5061     -1621.8744    
     10800   10800          304.96118     -609.92873      24189.778      24863.603      5616.9047      19246.698      2445.8449      6590.8346     -1899.4174      201.23848     -360.09785      43058.898     -30790.602     -518.13017      75751.676      42.312052      42.312052      42.312052      1.0977797     -1902.5257      503.33314     -430.59365    
     10900   10900          301.82435     -1124.8674      23677.253      24913.432      5559.1293      19354.303      2634.3318      6529.9229     -1927.3716      195.22214     -320.98481      43030.908     -30787.726     -520.86705      75353.643      42.237812      42.237812      42.237812      1.1035784     -1304.2933     -1608.8534     -461.45559    
     11000   11000          302.81601      35.584608      24963.088      24924.211      5577.3941      19346.817      2502.4116      6579.7986     -1923.1385      201.47416     -270.04265      43043.184     -30786.87      -523.93516      74912.379      42.155204      42.155204      42.155204      1.1100789      1231.5108     -776.37315     -348.38385    
     11100   11100          302.61865      490.12595      25321.526      24787.608      5573.7589      19213.849      2469.669       6512.2502     -1898.4104      199.82738     -329.49412      43046.883     -30786.876     -525.46051      74694.917      42.114374      42.114374      42.114374      1.1133107      736.56161      269.05691      464.75935    
     11200   11200          302.65841     -1012.1301      23585.702      24687.381      5574.4913      19112.889      2453.93        6503.412      -1917.532       206.53218     -374.7876       43033.101     -30791.767     -525.88206      74635.041      42.103118      42.103118      42.103118      1.1142039     -1802.635      -822.64651     -411.10873    
     11300   11300          295.84279      499.02813      25212.98       24669.489      5448.9583      19220.53       2423.0326      6615.9365     -1994.4334      198.71402     -273.49304      43037.594     -30786.82      -525.58089      74677.809      42.111158      42.111158      42.111158      1.1135658      657.36823      928.3336      -88.61744     
     11400   11400          300.7947      -1183.2432      23450.247      24744.914      5540.1646      19204.75       2481.2193      6625.6082     -1945.3866      202.37725     -414.17713      43038.248     -30783.139     -523.14587      75025.402      42.176394      42.176394      42.176394      1.1084066     -561.04984     -2391.7137     -596.96599    
     11500   11500          298.60954     -497.24883      24317.68       24863.876      5499.9175      19363.958      2490.7074      6648.2587     -1916.3591      202.4453      -343.38843      43062.512     -30780.217     -521.11392      75317.944      42.231141      42.231141      42.231141      1.1041014     -659.42485      322.99473     -1155.3164    
     11600   11600          306.82148     -714.51644      24075.431      24861.535      5651.1685      19210.367      2467.6005      6548.7713     -1954.0377      190.294       -308.15199      43049.698     -30783.807     -520.28247      75438.307      42.253625      42.253625      42.253625      1.1023398     -1690.5734     -215.83204     -237.14383    
     11700   11700          299.42791     -639.75935      24092.648      24796.965      5514.9907      19281.974      2527.4451      6614.3164     -1974.6094      205.96319     -343.80323      43037.262     -30784.6       -519.94335      75487.51       42.26281       42.26281       42.26281       1.1016213      251.11863     -868.99371     -1301.403     
     11800   11800          300.84184     -380.75688      24309.698      24728.279      5541.033       19187.246      2401.0763      6567.8332     -1940.5424      197.46545     -303.54932      43049.864     -30784.901     -520.68555      75379.909      42.24272       42.24272       42.24272       1.1031938      648.41353     -950.10516     -840.579      
     11900   11900          296.06517      153.97663      24886.369      24717.533      5453.0543      19264.479      2467.6747      6518.3911     -1927.9585      217.73679     -298.53126      43067.193     -30780.027     -522.03121      75185.6        42.206391      42.206391      42.206391      1.1060449     -251.22937      1299.724      -586.56479    
     12000   12000          301.74817     -795.34852      23894.019      24765.027      5557.7262      19207.301      2459.3244      6516.7475     -1889.1537      218.91924     -332.10379      43021.044     -30787.477     -522.68778      75091.156      42.188712      42.188712      42.188712      1.107436      -1446.1044      442.28647     -1382.2276    
     12100   12100          305.96061      61.877406      24891.098      24823.323      5635.3126      19188.01       2458.358       6523.6572     -1955.0009      192.10175     -276.80134      43032.645     -30786.949     -522.59576      75104.377      42.191188      42.191188      42.191188      1.1072411      492.12315     -840.3576       533.86667    
     12200   12200          302.4068      -1323.2         23368.051      24819.816      5569.857       19249.959      2525.8678      6614.0561     -1906.1822      192.13178     -415.41426      43022.869     -30783.369     -521.71841      75230.677      42.214825      42.214825      42.214825      1.1053822     -2959.241      -1147.6266      137.26754    
     12300   12300          300.16839      510.84953      25244.056      24683.157      5528.6291      19154.528      2393.221       6481.5547     -1946.6517      205.24229     -243.29406      43050.348     -30785.893     -521.33267      75286.341      42.225234      42.225234      42.225234      1.1045649      286.62992      238.511        1007.4077    
     12400   12400          295.18253     -596.59815      23967.223      24623.456      5436.7974      19186.658      2486.97        6542.5393     -1940.1975      190.18053     -341.22445      43033.528     -30785.137     -520.39261      75422.342      42.250645      42.250645      42.250645      1.1025732     -35.337397     -549.4286      -1205.0285    
     12500   12500          298.00571     -1646.7467      22917.751      24728.634      5488.7959      19239.839      2515.1537      6540.6021     -1962.3859      222.1825      -334.64271      43043.62      -30784.691     -520.52698      75402.872      42.247009      42.247009      42.247009      1.1028579     -1964.9818     -1524.1643     -1451.0939    
     12600   12600          302.29043     -141.46535      24637.827      24792.991      5567.7138      19225.278      2391.08        6508.8467     -1927.648       202.59746     -219.80349      43048.024     -30777.819     -521.87431      75208.204      42.210621      42.210621      42.210621      1.1057125     -1119.0547      1082.0232     -387.36458    
     12700   12700          301.39011     -541.63874      24231.694      24826.411      5551.1311      19275.28       2495.9981      6531.7938     -1906.1472      189.95506     -282.34782      43030.525     -30784.498     -521.32262      75287.792      42.225505      42.225505      42.225505      1.1045436     -327.91514     -382.55768     -914.4434     
     12800   12800          299.45375     -321.28814      24447.922      24800.728      5515.4665      19285.262      2493.6277      6568.4358     -1902.838       194.82222     -328.87659      43049.944     -30789.854     -521.27331      75294.914      42.226837      42.226837      42.226837      1.1044391     -398.44885     -763.22783      197.81226    
     12900   12900          300.28577     -1179.8785      23413.571      24706.861      5530.7909      19176.07       2469.3641      6568.7183     -1924.2739      185.60879     -373.94422      43034.277     -30783.681     -522.21379      75159.313      42.201472      42.201472      42.201472      1.1064318     -1187.7025     -1316.219      -1035.7139    
     13000   13000          296.31695     -426.74385      24146.682      24612.992      5457.6917      19155.301      2408.3289      6527.9093     -1922.2087      201.23677     -310.3533       43032.951     -30782.564     -523.84135      74925.795      42.15772       42.15772       42.15772       1.1098801      14.802867     -1117.5803     -177.45408    
     13100   13100          294.5982      -505.42003      24115.927      24667.061      5426.035       19241.026      2478.7295      6591.8922     -1922.9842      204.91393     -365.39904      43036.556     -30782.682     -524.93059      74770.321      42.128541      42.128541      42.128541      1.112188      -1006.5823      562.76192     -1072.4397    
     13200   13200          299.02731     -310.4147       24446.129      24784.52       5507.6122      19276.908      2522.7856      6513.3869     -1940.0228      211.62614     -269.52685      43022.497     -30783.838     -525.08566      74748.241      42.124393      42.124393      42.124393      1.1125165     -807.11887     -419.96013      295.83489    
     13300   13300          302.95173      1194.7167      26104.814      24799.336      5579.8939      19219.442      2401.4148      6549.654      -1932.4966      217.055       -261.66308      43027.652     -30782.175     -523.84427      74925.376      42.157642      42.157642      42.157642      1.1098863      1947.2462      1232.0098      404.89389    
     13400   13400          301.08132     -1009.8163      23647.128      24755.229      5545.4438      19209.785      2450.2112      6562.8001     -1902.8253      202.6813      -367.97721      43044.502     -30779.608     -521.63907      75242.12       42.216965      42.216965      42.216965      1.1052141     -311.01194     -1998.3667     -720.0704     
     13500   13500          297.98127     -805.28376      23854.191      24739.06       5488.3458      19250.714      2483.4449      6563.8749     -1968.8033      199.07036     -280.55752      43036.286     -30782.601     -520.92689      75344.986      42.236195      42.236195      42.236195      1.1037052     -2213.864      -487.11414      285.1269     
     13600   13600          302.68689     -409.78321      24394.054      24844.528      5575.0158      19269.512      2488.5933      6530.0027     -1911.6086      198.03848     -281.2612       43033.005     -30787.258     -520.70499      75377.095      42.242194      42.242194      42.242194      1.103235      -871.90147     -583.53984      226.09169    
     13700   13700          301.69596     -227.0677       24698.193      24948.141      5556.7644      19391.377      2502.1456      6624.2788     -1899.7589      209.71679     -307.11638      43042.58      -30780.469     -520.01077      75477.724      42.260983      42.260983      42.260983      1.1017642      115.49438     -147.57851     -649.11896    
     13800   13800          299.71579     -755.0664       24066.947      24898.49       5520.2929      19378.197      2520.7996      6587.6655     -1906.0107      216.49666     -288.16717      43028.73      -30781.317     -519.76569      75513.312      42.267624      42.267624      42.267624      1.1012449      137.56328     -1133.9596     -1268.8029    
     13900   13900          302.38687     -334.29222      24409.207      24777.413      5569.4899      19207.924      2430.1837      6473.6044     -1921.9704      218.05739     -249.16486      43040         -30782.787     -519.6864       75524.834      42.269774      42.269774      42.269774      1.1010769     -587.29772      151.01666     -566.59561    
     14000   14000          303.40031     -630.8251       24058.941      24754.3        5588.156       19166.144      2439.449       6532.8836     -1956.2814      201.74084     -302.41502      43036.514     -30785.747     -519.28633      75583.02       42.280627      42.280627      42.280627      1.1002293     -559.1323      -278.18268     -1055.1603    
     14100   14100          301.11676     -1567.8443      23053.009      24777.153      5546.0966      19231.057      2466.7242      6560.0448     -1908.9063      196.05397     -319.19162      43024.126     -30787.795     -520.5186       75404.086      42.247235      42.247235      42.247235      1.1028401     -1661.3839     -1690.7492     -1351.3997    
     14200   14200          304.50281      391.23598      25254.688      24825.738      5608.4623      19217.276      2382.1214      6549.665      -1917.3212      203.22782     -270.53646      43052.53      -30782.41      -522.08267      75178.188      42.205005      42.205005      42.205005      1.106154      -40.207476      1136.7652      77.150238    
     14300   14300          299.70133     -79.985252      24781.867      24869.563      5520.0265      19349.536      2478.8961      6652.9422     -1936.8971      214.02106     -325.41241      43044.655     -30778.668     -522.07844      75178.798      42.205119      42.205119      42.205119      1.106145      -451.68024      219.25315     -7.5286667    
     14400   14400          302.90334     -183.04443      24669.544      24870.278      5579.0025      19291.276      2498.8719      6535.6698     -1906.1827      199.76342     -301.09996      43043.22      -30778.967     -521.96655      75194.913      42.208134      42.208134      42.208134      1.1059079     -444.88535     -599.48593      495.238      
     14500   14500          298.46035     -221.74726      24497.519      24741.187      5497.1696      19244.018      2489.6522      6577.7759     -1977.4366      207.86323     -295.39773      43027.723     -30786.162     -520.91454      75346.772      42.236529      42.236529      42.236529      1.103679      -911.77762      618.48056     -371.94473    
     14600   14600          297.75375     -582.37899      24033.807      24674.297      5484.1552      19190.142      2472.7333      6533.6068     -1962.0746      192.70645     -291.54083      43029.748     -30785.037     -520.47563      75410.311      42.248398      42.248398      42.248398      1.1027491     -29.630629     -271.12504     -1446.3813    
     14700   14700          300.56038     -480.45855      24178.547      24706.42       5535.8488      19170.571      2390.7094      6519.145      -1953.7707      203.29274     -262.6662       43055.377     -30781.516     -520.99493      75335.147      42.234356      42.234356      42.234356      1.1038493     -133.30996     -1566.3654      258.29969    
     14800   14800          300.37468     -1138.1659      23579.22       24828.791      5532.4287      19296.362      2508.6382      6557.2948     -1920.4468      220.76492     -313.82569      43028.718     -30784.781     -521.37688      75279.957      42.22404       42.22404       42.22404       1.1046586     -1739.329      -268.94527     -1406.2234    
     14900   14900          304.40089     -1462.3021      23311.39       24916.461      5606.585       19309.876      2514.2601      6591.2147     -1905.7184      208.14642     -345.69418      43030.115     -30782.448     -521.49465      75262.957      42.220862      42.220862      42.220862      1.1049081     -1324.8779     -1744.8243     -1317.2041    
     15000   15000          305.52347      878.87287      25832.959      24869.792      5627.2611      19242.531      2353.2311      6604.1668     -1945.5619      200.94219     -257.40337      43067.334     -30780.178     -522.31379      75144.922      42.198778      42.198778      42.198778      1.1066437      820.87749      1330.1143      485.62686    
     15100   15100          300.47075     -503.95011      24201.797      24754.498      5534.1981      19220.3        2458.346       6537.8653     -1890.885       201.62458     -339.05299      43035.1       -30782.698     -521.9204       75201.562      42.209378      42.209378      42.209378      1.1058102     -257.39851     -1484.2409      229.7891     
     15200   15200          299.58733      213.98995      24932.101      24697.339      5517.9269      19179.412      2471.2496      6522.2718     -1952.2869      193.5556      -303.02783      43031.453     -30783.803     -521.76104      75224.53       42.213675      42.213675      42.213675      1.1054725      39.458708     -112.07946      714.59061    
     15300   15300          296.89796      461.57627      25226.6        24720.159      5468.3928      19251.766      2379.338       6550.1277     -1926.446       193.1597      -214.40416      43050.116     -30780.126     -521.70055      75233.253      42.215306      42.215306      42.215306      1.1053444     -695.21555      1727.33        352.61439    
     15400   15400          301.15749     -863.17403      23885.996      24834.786      5546.8468      19287.939      2442.1023      6520.1093     -1851.6736      212.08184     -318.23128      43063.604     -30780.053     -520.75697      75369.571      42.240788      42.240788      42.240788      1.1033451     -366.71246     -1870.1708     -352.63886    
     15500   15500          301.90239     -46.116801      24861.979      24912.845      5560.5666      19352.278      2440.6953      6600.0443     -1910.6494      220.82547     -281.44644      43065.726     -30782.917     -518.96757      75629.445      42.289281      42.289281      42.289281      1.0995539      112.32234     -520.57537      269.90263    
     15600   15600          299.94194     -837.88494      23965.054      24891.717      5524.4582      19367.259      2452.434       6621.9035     -1878.0809      194.36094     -300.4753       43052.949     -30775.833     -517.57039      75833.606      42.3273        42.3273        42.3273        1.0965936     -205.50305     -850.49023     -1457.6615    
     15700   15700          304.43466     -1666.0016      23000.91       24842.09       5607.207       19234.883      2503.3438      6481.3503     -1930.0927      200.47689     -293.0601       43052.802     -30779.937     -517.9482       75778.291      42.317006      42.317006      42.317006      1.0973941     -2289.1925     -1147.6724     -1561.1398    
     15800   15800          300.87079     -924.33208      23753.249      24773.315      5541.5661      19231.749      2485.4065      6550.5202     -1896.8003      210.25593     -373.21907      43031.603     -30776.017     -518.6888       75670.091      42.296856      42.296856      42.296856      1.0989633     -1167.6474     -855.02436     -750.32447    
     15900   15900          297.16378      424.53724      25173.569      24706.643      5473.2888      19233.354      2428.3227      6488.4191     -1897.8162      217.91629     -246.93446      43028.032     -30784.585     -520.4443       75414.851      42.249246      42.249246      42.249246      1.1026827      1081.5835     -29.364186      221.39244    
     16000   16000          300.2329      -57.49366       24628.841      24691.873      5529.8173      19162.055      2470.746       6543.0867     -1978.3546      202.0785      -362.23716      43059.677     -30772.941     -522.11465      75173.583      42.204143      42.204143      42.204143      1.1062217      261.74094     -1030.9396      596.71767    
     16100   16100          301.20594     -559.82232      24165.974      24777.924      5547.739       19230.185      2450.4199      6528.9082     -1930.254       209.12007     -290.67297      43040.158     -30777.493     -523.64954      74953.239      42.162867      42.162867      42.162867      1.1094737     -235.48432      246.56162     -1690.5443    
     16200   16200          303.75735     -202.31119      24653.978      24874.79       5594.7321      19280.058      2512.0896      6598.1501     -1933.0768      199.96611     -365.93447      43048.857     -30779.994     -524.45043      74838.778      42.141394      42.141394      42.141394      1.1111706     -303.78805     -1003.8389      700.69335    
     16300   16300          303.85783      248.67532      25114.848      24843.571      5596.5828      19246.988      2509.6982      6546.9497     -1933.5249      193.87532     -353.90473      43056.924     -30773.03      -524.71797      74800.619      42.13423       42.13423       42.13423       1.1117375     -220.828        155.82038      811.03357    
     16400   16400          299.86082     -1752.3248      22825.864      24739.652      5522.9642      19216.688      2481.7948      6568.056      -1950.8458      199.46953     -334.52582      43033.951     -30781.212     -524.11646      74886.466      42.150343      42.150343      42.150343      1.110463      -2076.91       -1230.3915     -1949.6729    
     16500   16500          302.82877     -488.99214      24122.564      24658.372      5577.6291      19080.743      2442.6156      6491.4554     -2015.2788      190.5717      -290.92767      43048.713     -30786.407     -522.3955       75133.169      42.196578      42.196578      42.196578      1.1068168     -981.53212      799.5085      -1284.9528    
     16600   16600          298.62361      219.98269      24941.093      24699.304      5500.1766      19199.128      2458.6482      6592.0729     -2011.4669      186.70642     -305.26011      43057.253     -30778.826     -520.78637      75365.315      42.239993      42.239993      42.239993      1.1034075      1339.9681     -1737.796       1057.776     
     16700   16700          301.53085     -966.56404      23681.004      24745.399      5553.7234      19191.675      2442.9218      6511.1451     -1921.1172      198.45897     -314.30085      43054.321     -30779.754     -519.79843      75508.557      42.266737      42.266737      42.266737      1.1013143     -1408.6382     -369.6182      -1121.4357    
     16800   16800          300.64868     -569.93423      24162.25       24790.076      5537.4753      19252.601      2446.2879      6502.8509     -1937.8321      186.55255     -224.59814      43061.456     -30782.116     -519.62772      75533.363      42.271365      42.271365      42.271365      1.1009526     -582.80021     -395.37164     -731.63082    
     16900   16900          301.85211     -330.62613      24497.901      24862.074      5559.6405      19302.433      2498.8966      6559.3177     -1896.004       194.56236     -319.6369       43043.868     -30778.57      -519.68099      75525.62       42.269921      42.269921      42.269921      1.1010654     -253.76788     -1819.6504      1081.5399    
     17000   17000          305.12866      342.32148      25356.582      24979.812      5619.9895      19359.823      2425.5346      6650.5266     -1924.3698      200.64431     -272.79045      43060.083     -30779.806     -520.07449      75468.476      42.259257      42.259257      42.259257      1.1018992      969.12158     -267.858        325.70087    
     17100   17100          307.64816     -937.90912      24039.392      25070.947      5666.3947      19404.553      2515.9143      6578.9471     -1854.6831      206.75438     -290.67678      43028.814     -30780.517     -520.44517      75414.725      42.249222      42.249222      42.249222      1.1026845     -1750.4321      223.8808      -1287.1761    
     17200   17200          305.06865     -798.84263      24037.782      24914.271      5618.8841      19295.387      2493.9246      6503.956      -1915.8252      214.66688     -234.86943      43018.877     -30785.343     -521.70144      75233.124      42.215282      42.215282      42.215282      1.1053462     -570.48322      74.914607     -1900.9593    
     17300   17300          297.54475      131.7008       24960.903      24816.517      5480.3057      19336.211      2459.2249      6557.6575     -1916.9007      221.07353     -247.41994      43047.059     -30784.484     -522.11918      75172.932      42.204021      42.204021      42.204021      1.1062313     -41.231109     -208.36438      644.69788    
     17400   17400          304.71283     -889.60836      23791.592      24766.645      5612.3306      19154.315      2463.9698      6555.3971     -1937.2096      190.1225      -366.10006      43031.001     -30782.866     -522.24895      75154.251      42.200525      42.200525      42.200525      1.1065063     -1243.9285      133.11087     -1558.0074    
     17500   17500          296.21985     -1037.7611      23592.683      24729.582      5455.9031      19273.679      2440.4279      6633.5847     -1921.146       190.32839     -302.53313      43017.592     -30784.575     -522.49506      75118.852      42.193898      42.193898      42.193898      1.1070277     -1417.3951     -949.74644     -746.1417     
     17600   17600          296.48661     -593.79199      24087.93       24738.635      5460.8164      19277.819      2414.3995      6649.6241     -1917.8047      204.98761     -330.56396      43041.001     -30783.825     -522.34456      75140.495      42.19795       42.19795       42.19795       1.1067088      783.82103     -1461.6469     -1103.5502    
     17700   17700          305.18483     -583.74991      24199.683      24838.931      5621.0239      19217.907      2470.2969      6689.4929     -1978.8018      195.48107     -413.37523      43035.451     -30780.638     -522.7142       75087.359      42.188001      42.188001      42.188001      1.107492      -1732.0903      306.74696     -325.90637    
     17800   17800          299.57106      715.50474      25671.819      24889.477      5517.6271      19371.849      2483.0762      6578.7514     -1934.3378      194.46044     -204.55349      43037.229     -30782.776     -523.50723      74973.614      42.166687      42.166687      42.166687      1.1091722      514.61083      1651.9569     -20.053516    
     17900   17900          299.7849      -1248.6147      23446.237      24813.057      5521.5658      19291.491      2547.6458      6516.3081     -1890.472       196.65627     -331.4846       43029.846     -30777.009     -522.90651      75059.744      42.182828      42.182828      42.182828      1.1078995     -299.98664     -369.08083     -3076.7766    
     18000   18000          296.78141      235.4726       24935.025      24677.393      5466.2463      19211.147      2495.7702      6511.8943     -1907.7921      197.85182     -358.40515      43048.386     -30776.558     -523.17618      75021.056      42.175579      42.175579      42.175579      1.1084708      1083.7454     -908.89104      531.56342    
     18100   18100          302.59323     -433.667        24214.74       24688.94       5573.2909      19115.649      2396.0325      6523.6913     -1919.0306      196.46729     -361.57924      43061.269     -30781.201     -523.48242      74977.167      42.167353      42.167353      42.167353      1.1091197     -1084.8715     -170.51455     -45.614926    
     18200   18200          298.59098     -1633.0297      22973.083      24759.673      5499.5756      19260.098      2507.6013      6544.9115     -1925.1941      196.78346     -337.38143      43043.222     -30769.845     -523.21012      75016.189      42.174667      42.174667      42.174667      1.1085427     -1585.773      -2485.6097     -827.70645    
     18300   18300          300.99765     -1241.2653      23446.76       24806.067      5543.9027      19262.164      2502.7955      6547.8509     -1911.8732      204.77742     -336.95259      43034.03      -30778.464     -522.702        75089.112      42.188329      42.188329      42.188329      1.1074662     -1285.248      -1045.7867     -1392.7613    
     18400   18400          299.9078      -107.32661      24671.788      24789.369      5523.8294      19265.54       2481.9631      6506.732      -1879.4433      198.38192     -310.41383      43047.803     -30779.483     -522.48777      75119.9        42.194094      42.194094      42.194094      1.1070123      290.38837      334.15546     -946.52367    
     18500   18500          301.65477     -1349.1628      23317.433      24794.651      5556.0059      19238.645      2433.4787      6470.3555     -1877.2713      189.95352     -252.09509      43050.761     -30776.538     -522.78953      75076.541      42.185974      42.185974      42.185974      1.1076516     -1228.0394     -2010.507      -808.94185    
     18600   18600          298.52782     -745.09271      23976.278      24793.626      5498.4124      19295.213      2486.9258      6621.7419     -1914.6076      195.87236     -372.97577      43050.685     -30772.428     -521.80753      75217.829      42.212421      42.212421      42.212421      1.105571       99.259746     -1810.4813     -524.05658    
     18700   18700          302.15448      107.42944      24918.163      24800.12       5565.2097      19234.91       2489.2079      6530.2536     -1898.0622      195.03758     -361.19044      43055.14      -30775.477     -520.94368      75342.558      42.235741      42.235741      42.235741      1.1037407      857.4488       274.0467      -809.20717    
     18800   18800          296.1297      -144.28038      24633.114      24791.682      5454.2428      19337.439      2468.1289      6594.7474     -1890.8234      190.50312     -300.80182      43054.686     -30779.001     -520.83244      75358.649      42.238748      42.238748      42.238748      1.1035051      89.090496     -1006.9332      485.00155    
     18900   18900          300.05219     -48.993698      24770.474      24824.28       5526.4888      19297.791      2461.5091      6619.0171     -1992.3723      202.73432     -270.57455      43056.555     -30779.077     -521.21246      75303.704      42.22848       42.22848       42.22848       1.1043102      434.03628      62.311205     -643.32858    
     19000   19000          305.84982      148.76594      25097.61       24934.483      5633.2721      19301.211      2418.0657      6636.4705     -1938.4227      198.2942      -288.04688      43052.209     -30777.359     -522.01827      75187.463      42.20674       42.20674       42.20674       1.1060175     -433.38294     -403.33172      1283.0125    
     19100   19100          299.80009      129.4668       25048.831      24907.112      5521.8455      19385.266      2400.6686      6659.4507     -1934.5346      202.69434     -222.74955      43056.141     -30776.404     -522.9225       75057.45       42.182398      42.182398      42.182398      1.1079333      956.96243      1714.069      -2282.631     
     19200   19200          299.7207      -1944.3491      22652.833      24782.096      5520.3833      19261.713      2524.6911      6576.459      -1916.4494      209.34876     -390.23702      43033.477     -30775.576     -522.69938      75089.489      42.1884        42.1884        42.1884        1.1074606     -2095.4996     -2035.2774     -1702.2704    
     19300   19300          298.96756     -259.82989      24437.501      24721.679      5506.5116      19215.168      2417.0561      6595.0341     -1956.3215      194.07155     -295.1948       43040.102     -30779.58      -523.36635      74993.795      42.17047       42.17047       42.17047       1.1088737     -510.16028      451.39399     -720.7234     
     19400   19400          303.6498      -938.62739      23700.971      24727.971      5592.7511      19135.22       2476.7935      6464.056      -1902.0007      205.11172     -346.65165      43024.975     -30787.064     -523.15394      75024.244      42.176177      42.176177      42.176177      1.1084237     -426.32787     -2178.2324     -211.32192    
     19500   19500          301.2325      -614.25687      24140.643      24813.826      5548.2282      19265.597      2444.9132      6606.1172     -1921.4404      202.63082     -318.86578      43040.14      -30787.898     -522.30506      75146.179      42.199014      42.199014      42.199014      1.1066251     -190.63926      94.436046     -1746.5674    
     19600   19600          304.1         -346.31013      24565.636      24946.29       5601.0431      19345.247      2536.9541      6564.3597     -1910.5782      200.57427     -303.0999       43039.641     -30782.604     -520.7646       75368.467      42.240582      42.240582      42.240582      1.1033613     -247.50858     -648.16523     -143.25659    
     19700   19700          308.9477       759.49273      25745.045      24908.515      5690.3302      19218.185      2404.4298      6535.438      -1961.8207      201.20521     -234.48623      43054.249     -30780.83      -519.69581      75523.466      42.269519      42.269519      42.269519      1.1010968      1168.2794      656.41773      453.78103    
     19800   19800          301.14874     -1174.8693      23523.029      24820.145      5546.6856      19273.459      2488.2295      6549.178      -1909.3188      206.88655     -309.67882      43032.157     -30783.994     -518.46309      75703.034      42.302993      42.302993      42.302993      1.098485       387.8078      -1489.0568     -2423.359     
     19900   19900          300.8156      -684.57988      24032.158      24787.96       5540.5496      19247.41       2447.3592      6566.9087     -1940.0928      186.33526     -306.89797      43072.333     -30778.535     -518.46937      75702.118      42.302822      42.302822      42.302822      1.0984983     -1495.9923      163.15721     -720.90452    
     20000   20000          294.794       -863.21282      23823.116      24777.149      5429.6413      19347.507      2520.1644      6596.4601     -1932.2869      196.6066      -296.03601      43046.164     -30783.565     -517.91853      75782.631      42.317814      42.317814      42.317814      1.0973313      141.34433     -1555.2683     -1175.7145    
     20100   20100          301.53393      32.942879      24890.409      24854.025      5553.7801      19300.245      2494.4836      6548.4604     -1940.7639      194.45275     -276.0508       43055.229     -30775.566     -518.27332      75730.755      42.308156      42.308156      42.308156      1.098083      -369.17738      85.576656      382.42936    
     20200   20200          305.71983     -385.70203      24537.09       24961.698      5630.8779      19330.82       2466.1829      6546.1328     -1888.1804      212.07496     -261.70667      43033.75      -30777.433     -519.96055      75485.014      42.262344      42.262344      42.262344      1.1016577     -74.112767     -533.59066     -549.40268    
     20300   20300          302.80118     -1124.3528      23664.385      24898.652      5577.1209      19321.531      2509.6262      6580.476      -1925.091       200.0779      -296.75512      43038.896     -30785.699     -521.43519      75271.539      42.222466      42.222466      42.222466      1.1047821     -1511.2238     -621.44868     -1240.3861    
     20400   20400          302.82848     -45.72796       24758.19       24808.274      5577.6238      19230.65       2471.8471      6610.1546     -1998.4491      212.5264      -298.92082      43019.255     -30785.763     -522.62719      75099.861      42.190342      42.190342      42.190342      1.1073076     -1331.8728      370.80577      823.88314    
     20500   20500          304.21619      81.659127      24858.676      24769.322      5603.1833      19166.138      2388.8709      6514.2067     -1922.2852      209.62002     -292.96647      43048.266     -30779.574     -523.11212      75030.242      42.177301      42.177301      42.177301      1.1083351      966.93223     -723.04689      1.0920379    
     20600   20600          295.67675     -645.17715      24012.523      24718.964      5445.9002      19273.063      2481.0596      6523.6354     -1896.5785      225.46823     -318.91448      43043.794     -30785.401     -522.76976      75079.379      42.186506      42.186506      42.186506      1.1076097     -544.86388     -1059.9725     -330.69507    
     20700   20700          299.6563       903.09475      25654.703      24666.298      5519.1973      19147.1        2408.1626      6512.7728     -1948.061       198.99065     -292.46316      43051.784     -30784.085     -523.00417      75045.729      42.180202      42.180202      42.180202      1.1081064      410.06895      1309.3965      989.81885    
     20800   20800          295.76168     -235.14648      24391.752      24649.097      5447.4643      19201.633      2402.4057      6624.1015     -1967.3982      198.49668     -323.1802       43051.522     -30784.314     -523.03407      75041.439      42.179399      42.179399      42.179399      1.1081697      641.72808     -461.06506     -886.10245    
     20900   20900          301.52154     -1504.7653      23133.023      24780.432      5553.552       19226.881      2513.9562      6553.0201     -1904.3587      200.05192     -384.9221       43029.835     -30780.702     -522.84654      75068.354      42.184441      42.184441      42.184441      1.1077724     -717.06649     -1729.5778     -2067.6516    
     21000   21000          302.80372      689.32127      25609.095      24854.547      5577.1677      19277.379      2441.2366      6527.9063     -1900.7453      206.71856     -281.78539      43060.407     -30776.358     -522.92802      75056.658      42.18225       42.18225       42.18225       1.107945       687.93345      499.29235      880.738      
     21100   21100          300.88878     -1151.6344      23600.317      24863.221      5541.8975      19321.323      2539.3997      6625.8712     -1944.9051      223.6792      -369.343        43020.242     -30773.621     -521.97723      75193.375      42.207846      42.207846      42.207846      1.1059306     -1412.0462     -1354.165      -688.69199    
     21200   21200          304.58693     -732.91237      23973.893      24777.854      5610.0116      19167.843      2447.6347      6494.8496     -1929.2308      216.27865     -329.57105      43047.965     -30780.084     -521.82366      75215.504      42.211986      42.211986      42.211986      1.1056052     -882.24605      44.769007     -1361.2601    
[...]
    495200   495200         299.37186     -524.88686      24218.343      24796.353      5513.9583      19282.394      2479.0514      6596.4011     -1957.6952      210.61388     -293.80093      43028.084     -30780.26      -519.80126      75508.146      42.26666       42.26666       42.26666       1.1013203      904.29748     -1389.3366     -1089.6215    
    495300   495300         302.65656     -937.11145      23814.874      24849.346      5574.4572      19274.889      2543.3805      6530.8007     -1966.2094      212.66839     -310.77523      43041.977     -30776.953     -518.53668      75692.29       42.300992      42.300992      42.300992      1.098641      -2164.2125     -1065.0008      417.87892    
    495400   495400         305.17538     -416.88105      24430.248      24891.159      5620.8499      19270.309      2467.9534      6578.3438     -1938.6995      206.66059     -305.92389      43042.223     -30780.248     -517.7284       75810.462      42.322994      42.322994      42.322994      1.0969284     -747.00338     -102.49434     -401.14543    
    495500   495500         296.70116     -992.70978      23742.684      24839.419      5464.7681      19374.651      2477.8385      6628.5996     -1873.8976      194.45245     -319.73834      43045.745     -30778.348     -518.11658      75753.664      42.312422      42.312422      42.312422      1.0977509     -665.16915     -895.83646     -1417.1237    
    495600   495600         298.39685     -1219.1324      23382.841      24727.994      5496           19231.994      2513.2489      6553.3195     -1930.0081      194.60746     -377.28531      43049.277     -30771.166     -518.78389      75656.222      42.294272      42.294272      42.294272      1.0991647     -606.42492     -2074.9934     -975.97896    
    495700   495700         297.9041      -914.24625      23676.076      24681.677      5486.9245      19194.752      2457.7551      6453.2442     -1887.8462      174.16291     -290.90665      43060.06      -30771.718     -520.40898      75419.969      42.250201      42.250201      42.250201      1.1026079      222.85477     -902.1788      -2063.4147    
    495800   495800         298.69127     -644.53543      24038.095      24745.154      5501.4228      19243.732      2450.1335      6523.5551     -1891.042       203.54367     -282.56436      43018.965     -30778.859     -521.79292      75219.934      42.212815      42.212815      42.212815      1.1055401     -385.85914     -1137.5335     -410.21366    
    495900   495900         299.44855      51.445415      24962.23       24905.975      5515.3708      19390.604      2536.9553      6569.9089     -1881.3621      193.85422     -280.09762      43027.178     -30775.833     -523.46853      74979.157      42.167726      42.167726      42.167726      1.1090902     -1134.1638      1253.131       35.369053    
    496000   496000         304.08244     -1361.5788      23419.553      24907.869      5600.7196      19307.149      2498.9875      6649.9683     -1915.4663      202.17165     -354.53044      43007.119     -30781.101     -523.66624      74950.848      42.162419      42.162419      42.162419      1.1095091     -1183.7526     -2158.4857     -742.49806    
    496100   496100         303.95424     -1046.0189      23671.285      24816.234      5598.3584      19217.875      2446.4277      6658.6231     -1920.8478      202.60649     -433.06872      43040.506     -30776.372     -522.95061      75053.415      42.181642      42.181642      42.181642      1.1079929     -568.31629     -1406.612      -1163.1283    
    496200   496200         302.26925      203.89758      24954.304      24730.686      5567.3235      19163.362      2454.3598      6545.8971     -1985.7556      211.85525     -305.29405      43030.206     -30787.906     -521.9283       75200.423      42.209165      42.209165      42.209165      1.1058269      214.74335      584.06282     -187.11342    
    496300   496300         300.79892     -395.32157      24297.158      24731.341      5540.2425      19191.099      2490.1487      6388.7276     -1897.0719      216.55787     -273.99226      43052.084     -30785.356     -521.17651      75308.899      42.229451      42.229451      42.229451      1.1042341     -1499.0553      461.83699     -148.7464     
    496400   496400         299.99754     -1033.0176      23673.461      24807.199      5525.4822      19281.717      2534.5688      6506.6055     -1930.1822      210.8679      -298.99359      43037.951     -30779.1       -521.55725      75253.923      42.219172      42.219172      42.219172      1.1050407     -718.36819     -2041.1424     -339.54221    
    496500   496500         305.9864      -10.460735      24900.262      24911.712      5635.7877      19275.925      2461.5144      6604.1085     -1918.9887      199.85221     -323.32025      43031.145     -30778.387     -522.95556      75052.705      42.181509      42.181509      42.181509      1.1080034      1212.211      -93.617163     -1149.9761    
    496600   496600         306.36712      111.56414      25112.876      24991.062      5642.7999      19348.263      2523.8059      6593.8665     -1937.0262      199.37762     -281.352        43033.115     -30783.525     -524.24681      74867.846      42.146849      42.146849      42.146849      1.1107392      215.98066     -206.03267      324.74442    
    496700   496700         304.07794     -111.61993      24816.31       24938.06       5600.6369      19337.423      2483.9364      6577.7395     -1875.6429      211.56293     -311.09584      43033.646     -30782.723     -524.78384      74791.231      42.132467      42.132467      42.132467      1.111877      -1506.2249      1220.0244     -48.659261    
    496800   496800         300.36644     -586.75606      24145.504      24787.426      5532.2768      19255.149      2449.7135      6658.8774     -1944.617       186.08523     -337.16146      43024.177     -30781.925     -523.21733      75015.155      42.174474      42.174474      42.174474      1.108558      -1394.4351     -686.46763      320.6346     
    496900   496900         297.32015     -949.01796      23681.99       24725.313      5476.169       19249.144      2500.5445      6528.9543     -1914.4536      219.32379     -343.75181      43039.06      -30780.533     -520.66997      75382.164      42.243141      42.243141      42.243141      1.1031608     -81.833234     -875.14076     -1890.0799    
    497000   497000         299.15684     -618.20427      24027.959      24709.337      5509.998       19199.339      2487.5042      6447.0778     -1933.1468      209.06269     -284.99102      43047.042     -30773.21      -519.33965      75575.26       42.279179      42.279179      42.279179      1.1003422     -1679.3303      119.78535     -295.0679     
    497100   497100         297.27999     -178.72402      24535.697      24732.713      5475.4293      19257.284      2425.9821      6528.3279     -1917.1377      209.63699     -253.14957      43043.897     -30780.272     -519.26248      75586.492      42.281274      42.281274      42.281274      1.1001787     -569.05341      458.85531     -425.97394    
    497200   497200         303.78699     -504.11342      24304.01       24858.722      5595.278       19263.444      2493.618       6569.8658     -1964.6596      194.82436     -290.84103      43040.496     -30779.86      -520.19649      75450.777      42.255954      42.255954      42.255954      1.1021576     -158.8129      -371.90578     -981.62156    
    497300   497300         303.98794     -839.14326      23983.662      24904.722      5598.9792      19305.743      2500.8406      6603.9168     -1910.5516      205.27399     -343.59687      43033.959     -30784.099     -521.50109      75262.027      42.220688      42.220688      42.220688      1.1049217      312.06157     -833.86365     -1995.6277    
    497400   497400         296.68138     -134.70574      24700.208      24847.837      5464.4038      19383.433      2480.3242      6581.0572     -1874.6903      202.45173     -254.78146      43031.482     -30782.41      -522.30121      75146.732      42.199117      42.199117      42.199117      1.106617       330.38987     -143.74584     -590.76125    
    497500   497500         301.00463     -1124.6807      23492.2        24725.715      5544.0313      19181.684      2481.7921      6502.0004     -1881.9         216.86901     -383.51101      43027.312     -30780.879     -521.90548      75203.711      42.20978       42.20978       42.20978       1.1057785     -1546.6581     -557.67541     -1269.7085    
    497600   497600         298.32081     -1123.2898      23403.397      24635.492      5494.5995      19140.893      2449.6754      6525.5747     -1918.9928      192.90275     -366.41933      43040.09      -30781.939     -521.8608       75210.15       42.210985      42.210985      42.210985      1.1056839     -1951.5963     -1625.3916      207.11849    
    497700   497700         295.41771     -210.70032      24464.249      24694.966      5441.129       19253.837      2469.4312      6533.2158     -1919.6121      196.82457     -273.95493      43027.932     -30779.999     -522.74775      75082.541      42.187098      42.187098      42.187098      1.1075631      529.06221     -86.207557     -1074.9556    
    497800   497800         302.20004      224.91379      25035.551      24789.451      5566.0489      19223.402      2450.9581      6500.9595     -1888.0399      193.46665     -277.32437      43024.965     -30781.583     -523.13383      75027.129      42.176717      42.176717      42.176717      1.1083811     -321.34822      342.17265      653.91695    
    497900   497900         304.4963      -443.00698      24347.059      24831.655      5608.3423      19223.313      2535.196       6533.0597     -1921.6879      201.1324      -379.10862      43034.696     -30779.975     -523.28388      75005.616      42.172686      42.172686      42.172686      1.108699      -687.55259     -347.13873     -294.32962    
    498000   498000         298.63107     -191.87421      24583.327      24792.704      5500.314       19292.39       2519.1435      6551.8496     -1949.1173      207.88736     -277.81273      43023.477     -30783.038     -524.55941      74823.229      42.138475      42.138475      42.138475      1.1114015      329.77786     -1411.6929      506.29238    
    498100   498100         298.39159     -463.10906      24141.676      24646.414      5495.9032      19150.511      2445.0739      6553.1281     -1953.3805      199.89761     -351.05443      43041.055     -30784.209     -525.19929      74732.069      42.121355      42.121355      42.121355      1.1127572     -1209.9435      1573.3375     -1752.7212    
    498200   498200         298.01615      183.84919      24801.082      24600.598      5488.9882      19111.61       2420.3669      6541.7891     -1880.958       204.06378     -423.48137      43031.712     -30781.883     -524.91404      74772.68       42.128984      42.128984      42.128984      1.1121529      525.78346      164.72788     -138.96378    
    498300   498300         295.07395     -251.51321      24399.986      24674.358      5434.7976      19239.56       2449.7297      6476.6502     -1905.6924      213.91575     -269.19252      43050.033     -30775.883     -524.72168      74800.091      42.134131      42.134131      42.134131      1.1117453      429.37257     -312.10131     -871.8109     
    498400   498400         301.02643     -1432.1842      23183.109      24748.288      5544.4329      19203.855      2514.9782      6496.7535     -1909.3795      208.01349     -365.52251      43038.52      -30779.509     -523.77162      74935.769      42.159591      42.159591      42.159591      1.1097324     -1682.5876     -1732.7272     -881.23772    
    498500   498500         300.723        596.03797      25428.892      24777.693      5538.8441      19238.849      2420.1003      6541.0548     -1944.1229      198.7142      -286.47878      43084.467     -30774.886     -523.92248      74914.191      42.155544      42.155544      42.155544      1.110052       325.72027      346.08995      1116.3037    
    498600   498600         303.27035     -1251.5605      23429.022      24797.927      5585.7623      19212.165      2501.3725      6505.2586     -1855.4491      197.65331     -393.69662      43035.083     -30778.057     -523.34183      74997.31       42.171129      42.171129      42.171129      1.1088218     -1434.0538     -426.30869     -1894.3192    
    498700   498700         299.89752     -252.98162      24491.534      24768.213      5523.6402      19244.573      2479.3426      6603.3649     -1906.6794      190.25313     -375.45919      43035.803     -30782.052     -523.38311      74991.394      42.17002       42.17002       42.17002       1.1089093     -1376.51        760.72691     -143.16176    
    498800   498800         301.23249     -649.94876      23955.735      24666.093      5548.2281      19117.865      2471.5176      6469.875      -1904.7821      202.39965     -386.54922      43045.979     -30780.575     -523.73195      74941.446      42.160656      42.160656      42.160656      1.1096483     -172.40579     -1441.703      -335.7375     
    498900   498900         297.28798     -76.166061      24521.731      24604.889      5475.5764      19129.312      2393.8449      6486.8057     -1897.8198      209.73924     -335.14766      43050.208     -30778.318     -524.28241      74862.762      42.145895      42.145895      42.145895      1.1108146     -797.86822      424.72256      144.64747    
    499000   499000         295.83149     -1565.8519      22999.789      24709.407      5448.7502      19260.656      2548.3646      6596.7232     -1913.9877      193.32561     -407.24172      43021.391     -30777.919     -524.27435      74863.913      42.146111      42.146111      42.146111      1.1107975     -1132.2371     -1924.6792     -1640.6393    
    499100   499100         303.22136     -795.76013      23933.191      24802.423      5584.86        19217.563      2566.6194      6482.303      -1924.4812      192.67847     -358.50821      43041.317     -30782.366     -524.02683      74899.274      42.152746      42.152746      42.152746      1.1102731      197.11031     -1244.543      -1339.8477    
    499200   499200         304.69132      0.37669481     24799.459      24799.047      5611.9343      19187.113      2457.6484      6539.4356     -1976.6551      200.90257     -290.96821      43034.767     -30778.017     -523.37393      74992.709      42.170267      42.170267      42.170267      1.1088898     -622.67809      155.19345      468.61472    
    499300   499300         297.3669      -989.27282      23647.994      24733.259      5477.0301      19256.229      2428.5425      6625.6601     -1929.4017      202.1328      -343.7285       43053.086     -30780.062     -521.77975      75221.833      42.21317       42.21317       42.21317       1.1055122     -1067.702      -158.96571     -1741.1508    
    499400   499400         298.33406     -318.99509      24312.146      24663.113      5494.8436      19168.269      2538.7244      6501.1218     -1947.7913      187.54234     -368.7862       43036.234     -30778.776     -520.26617      75440.671      42.254067      42.254067      42.254067      1.1023053     -105.71413     -982.33575      131.06463    
    499500   499500         293.56298     -786.12109      23703.861      24570.2        5406.9678      19163.233      2489.7812      6516.8522     -1923.0019      201.81584     -383.63376      43046.283     -30784.864     -519.40801      75565.313      42.277325      42.277325      42.277325      1.1004871     -1588.0055     -134.33343     -636.02433    
    499600   499600         293.4953      -692.28791      23889.764      24652.771      5405.7213      19247.049      2444.876       6611.5366     -1937.5745      201.7893      -336.72227      43038.524     -30775.379     -519.35641      75572.821      42.278725      42.278725      42.278725      1.1003777     -1554.2413     -12.211977     -510.4104     
    499700   499700         304.16429     -745.57987      23975.237      24794.332      5602.2272      19192.105      2415.3236      6586.891      -1945.6529      202.72605     -339.6248       43052.983     -30780.541     -521.0349       75329.368      42.233276      42.233276      42.233276      1.103934      -141.833       -1047.2019     -1047.7047    
    499800   499800         297.67131      73.422137      24912.572      24832.299      5482.6367      19349.662      2438.0034      6608.8807     -1937.7692      202.99138     -251.77886      43070.8       -30781.465     -523.56177      74965.804      42.165223      42.165223      42.165223      1.1092878     -1539.6065      401.50024      1358.3726    
    499900   499900         302.28638     -1103.181       23625.419      24828.065      5567.639       19260.426      2497.5228      6654.2894     -1893.3856      188.12837     -445.43054      43040.574     -30781.273     -525.06859      74750.67       42.12485       42.12485       42.12485       1.1124803     -1928.3894     -1626.3645      245.21094    
    500000   500000         296.02664      277.6485       25023.383      24721.733      5452.3445      19269.389      2467.1687      6522.7168     -1921.7555      199.29036     -251.40529      43030.238     -30776.865     -526.86514      74495.78       42.076915      42.076915      42.076915      1.1162867     -103.16186      1179.8431     -243.73578    
Loop time of 5450.86 on 1 procs for 500000 steps with 7520 atoms

Performance: 7.925 ns/day, 3.028 hours/ns, 91.729 timesteps/s, 689.800 katom-step/s
99.9% CPU use with 1 MPI tasks x 1 OpenMP threads

MPI task timing breakdown:
Section |  min time  |  avg time  |  max time  |%varavg| %total
---------------------------------------------------------------
Pair    | 1248       | 1248       | 1248       |   0.0 | 22.90
Bond    | 675.04     | 675.04     | 675.04     |   0.0 | 12.38
Kspace  | 2122.7     | 2122.7     | 2122.7     |   0.0 | 38.94
Neigh   | 290.78     | 290.78     | 290.78     |   0.0 |  5.33
Comm    | 33.68      | 33.68      | 33.68      |   0.0 |  0.62
Output  | 11.641     | 11.641     | 11.641     |   0.0 |  0.21
Modify  | 896.21     | 896.21     | 896.21     |   0.0 | 16.44
Other   |            | 172.7      |            |       |  3.17

Nlocal:           7520 ave        7520 max        7520 min
Histogram: 1 0 0 0 0 0 0 0 0 0
Nghost:          20128 ave       20128 max       20128 min
Histogram: 1 0 0 0 0 0 0 0 0 0
Neighs:              0 ave           0 max           0 min
Histogram: 1 0 0 0 0 0 0 0 0 0
FullNghs:  4.83115e+06 ave 4.83115e+06 max 4.83115e+06 min
Histogram: 1 0 0 0 0 0 0 0 0 0

Total # of neighbors = 4831146
Ave neighs/atom = 642.43963
Ave special neighs/atom = 5.7207447
Neighbor list builds = 17720
Dangerous builds = 0

# --- Cleanup ---
unfix npt_fix
unfix shake_fix
undump dump_npt

# --- Write Output ---
write_dump all custom /home/arz2/PolyJarvis/data/PMMA3/lammps/bm_P-500/bm_P-500_last.dump id type mol x y z xu yu zu vx vy vz modify sort id
write_data /home/arz2/PolyJarvis/data/PMMA3/lammps/bm_P-500/bm_P-500_out.data
System init for write_data ...
PPPM Kokkos initialization ...
  using 12-bit tables for long-range coulomb
  G vector (1/distance) = 0.33285047
  grid = 45 45 45
  stencil order = 5
  estimated absolute RMS force accuracy = 0.00029093504
  estimated relative force accuracy = 8.7614223e-07
  using double precision cuFFT
  3d grid and FFT values/proc = 140608 91125
Generated 15 of 15 mixed pair_coeff terms from sixthpower/sixthpower mixing rule

print "STAGE COMPLETE: NPT T=300.0->300.0K P=-500.0->-500.0atm steps=500000"
STAGE COMPLETE: NPT T=300.0->300.0K P=-500.0->-500.0atm steps=500000
quit
