LAMMPS data file via write_data, version 22 Jul 2025, timestep = 500000, units = real

4520 atoms
7 atom types
4510 bonds
10 bond types
8000 angles
18 angle types
9970 dihedrals
23 dihedral types
4500 impropers
11 improper types

3.797717714173178 41.83540571582458 xlo xhi
3.797717714173178 41.83540571582458 ylo yhi
3.797717714173178 41.83540571582458 zlo zhi

Masses

1 12.01115
2 12.01115
3 12.01115
4 1.00797
5 1.008
6 15.9994
7 15.9994

Pair Coeffs # lj/class2/coul/long/gpu

1 0.054 4.01
2 0.054 4.01
3 0.12 3.81
4 0.02 2.995
5 0.013 1.11
6 0.267 3.3
7 0.24 3.42

Bond Coeffs # class2

1 1.53 299.67 -501.77 679.81
2 1.53 299.67 -501.77 679.81
3 1.5202 253.707 -423.037 396.9
4 1.101 345 -691.89 844.6
5 1.5202 253.707 -423.037 396.9
6 1.101 345 -691.89 844.6
7 1.43 326.727 -608.531 689.033
8 1.202 851.14 -1918.49 2160.77
9 1.3683 367.148 -794.791 1055.23
10 0.952 534.299 -1287.19 1889.14

Angle Coeffs # class2

1 108.53 51.9747 -9.4851 -10.9985
2 110.77 41.453 -10.604 5.129
3 108.53 51.9747 -9.4851 -10.9985
4 110.77 41.453 -10.604 5.129
5 107.41 63.3907 -13.4513 1.665
6 123.145 55.5431 -17.2123 0.1348
7 100.318 38.8631 -3.8323 -7.9802
8 110.77 41.453 -10.604 5.129
9 123.145 55.5431 -17.2123 0.1348
10 100.318 38.8631 -3.8323 -7.9802
11 113.288 61.2868 -28.9786 7.9929
12 107.734 40.6099 -28.8121 0
13 107.734 40.6099 -28.8121 0
14 109.5 60 0 0
15 112.874 53.2512 -14.9979 2.464
16 107.66 39.641 -12.921 -2.4318
17 107.688 65.4801 -10.3498 5.8866
18 120.797 95.3446 -32.2869 6.3778

BondBond Coeffs

1 5.4199 1.53 1.5202
2 3.3872 1.53 1.101
3 5.4199 1.53 1.5202
4 3.3872 1.53 1.101
5 23.2647 1.53 1.43
6 46.0685 1.5202 1.202
7 19.1069 1.5202 1.3683
8 3.3872 1.53 1.101
9 46.0685 1.5202 1.202
10 19.1069 1.5202 1.3683
11 45.4503 1.43 1.3683
12 0.7115 1.5202 1.101
13 0.7115 1.5202 1.101
14 0 1.5202 1.43
15 9.5671 1.3683 0.952
16 5.3316 1.101 1.101
17 5.6454 1.101 1.43
18 121.488 1.202 1.3683

BondAngle Coeffs

1 18.1678 15.8758 1.53 1.5202
2 20.754 11.421 1.53 1.101
3 18.1678 15.8758 1.53 1.5202
4 20.754 11.421 1.53 1.101
5 23.392 47.9487 1.53 1.43
6 34.9982 37.1298 1.5202 1.202
7 1.3435 4.6978 1.5202 1.3683
8 20.754 11.421 1.53 1.101
9 34.9982 37.1298 1.5202 1.202
10 1.3435 4.6978 1.5202 1.3683
11 41.9116 46.4608 1.43 1.3683
12 12.4632 9.1765 1.5202 1.101
13 12.4632 9.1765 1.5202 1.101
14 0 0 1.5202 1.43
15 37.9163 21.4364 1.3683 0.952
16 18.103 18.103 1.101 1.101
17 8.6864 57.4975 1.101 1.43
18 76.2614 71.8761 1.202 1.3683

Dihedral Coeffs # class2

1 0.0442 0 0.0292 0 0.0562 0
2 1.8341 0 2.0603 0 -0.0195 0
3 0.0442 0 0.0292 0 0.0562 0
4 1.8341 0 2.0603 0 -0.0195 0
5 0 0 0 0 -0.1932 0
6 -2.5594 0 2.2013 0 0.0325 0
7 -2.5594 0 2.2013 0 0.0325 0
8 -2.9126 0 1.0199 0 -0.2077 0
9 0 0 2.2089 0 0 0
10 -0.0228 0 0.028 0 -0.1863 0
11 -0.0228 0 0.028 0 -0.1863 0
12 0 0 0 0 -0.1932 0
13 0 0 0 0 -0.1932 0
14 -0.1432 0 0.0617 0 -0.1083 0
15 -0.1432 0 0.0617 0 -0.1083 0
16 0 0 0 0 -0.25 0
17 -0.1804 0 0.0012 0 0.0371 0
18 -0.6359 0 1.4807 0 -0.0438 0
19 -0.1804 0 0.0012 0 0.0371 0
20 -0.6359 0 1.4807 0 -0.0438 0
21 0 0 2.2089 0 0 0
22 0 180 0 0 0 0
23 0 180 0 0 0 0

AngleAngleTorsion Coeffs

1 -8.019 108.53 123.145
2 0 108.53 100.318
3 -8.019 108.53 123.145
4 0 108.53 100.318
5 0 107.41 113.288
6 0 100.318 113.288
7 0 100.318 113.288
8 0 100.318 112.874
9 0 113.288 120.797
10 -5.3624 108.53 110.77
11 -5.3624 108.53 110.77
12 0 109.5 113.288
13 0 113.288 107.688
14 -12.564 110.77 110.77
15 -12.564 110.77 110.77
16 0 110.77 107.41
17 -15.3496 107.734 123.145
18 0 107.734 100.318
19 -15.3496 107.734 123.145
20 0 107.734 100.318
21 0 112.874 120.797
22 0 123.145 109.5
23 0 109.5 100.318

EndBondTorsion Coeffs

1 0.2654 0.0503 0.1046 -0.281 0.0816 -0.1522 1.53 1.202
2 0 0 0 0 0 0 1.53 1.3683
3 0.2654 0.0503 0.1046 -0.281 0.0816 -0.1522 1.53 1.202
4 0 0 0 0 0 0 1.53 1.3683
5 0 0 0 0 0 0 1.53 1.3683
6 0 0 0 0 0 0 1.5202 1.43
7 0 0 0 0 0 0 1.5202 1.43
8 0 0 0 0 0 0 1.5202 0.952
9 0 0 0 0 0 0 1.43 1.202
10 -0.0204 0.3628 -0.4426 -0.0097 -0.0315 -0.0755 1.5202 1.101
11 -0.0204 0.3628 -0.4426 -0.0097 -0.0315 -0.0755 1.5202 1.101
12 0 0 0 0 0 0 1.5202 1.3683
13 0 0 0 0 0 0 1.3683 1.101
14 0.213 0.312 0.0777 0.213 0.312 0.0777 1.101 1.101
15 0.213 0.312 0.0777 0.213 0.312 0.0777 1.101 1.101
16 0 0 0 0 0 0 1.101 1.43
17 1.2143 0.2831 0.3916 -0.2298 0.0354 0.3853 1.101 1.202
18 0 0 0 0 0 0 1.101 1.3683
19 1.2143 0.2831 0.3916 -0.2298 0.0354 0.3853 1.101 1.202
20 0 0 0 0 0 0 1.101 1.3683
21 0 0 0 0 0 0 0.952 1.202
22 0 0 0 0 0 0 1.202 1.43
23 0 0 0 0 0 0 1.43 1.3683

MiddleBondTorsion Coeffs

1 0.3388 -0.1096 0.1219 1.5202
2 -17.328 -5.79 -3.2114 1.5202
3 0.3388 -0.1096 0.1219 1.5202
4 -17.328 -5.79 -3.2114 1.5202
5 -5.435 0 0 1.43
6 1.3445 3.5515 -4.9202 1.3683
7 1.3445 3.5515 -4.9202 1.3683
8 2.1452 0.5482 -2.3693 1.3683
9 4.26 0 0 1.3683
10 -3.5039 1.2458 -0.761 1.53
11 -3.5039 1.2458 -0.761 1.53
12 0 0 0 1.43
13 0 0 0 1.43
14 -14.261 -0.5322 -0.4864 1.53
15 -14.261 -0.5322 -0.4864 1.53
16 0 0 0 1.53
17 0.2359 0.9139 0.9594 1.5202
18 -13.7686 -2.5959 1.1934 1.5202
19 0.2359 0.9139 0.9594 1.5202
20 -13.7686 -2.5959 1.1934 1.5202
21 4.26 0 0 1.3683
22 0 0 0 1.5202
23 0 0 0 1.5202

BondBond13 Coeffs

1 0 1.53 1.202
2 0 1.53 1.3683
3 0 1.53 1.202
4 0 1.53 1.3683
5 0 1.53 1.3683
6 0 1.5202 1.43
7 0 1.5202 1.43
8 0 1.5202 0.952
9 0 1.43 1.202
10 0 1.5202 1.101
11 0 1.5202 1.101
12 0 1.5202 1.3683
13 0 1.3683 1.101
14 0 1.101 1.101
15 0 1.101 1.101
16 0 1.101 1.43
17 0 1.101 1.202
18 0 1.101 1.3683
19 0 1.101 1.202
20 0 1.101 1.3683
21 0 0.952 1.202
22 0 1.202 1.43
23 0 1.43 1.3683

AngleTorsion Coeffs

1 0.0885 -1.3703 -0.5452 0.675 0.5965 0.6725 108.53 123.145
2 0 0 0 0 0 0 108.53 100.318
3 0.0885 -1.3703 -0.5452 0.675 0.5965 0.6725 108.53 123.145
4 0 0 0 0 0 0 108.53 100.318
5 0 0 0 0 0 0 107.41 113.288
6 0 0 0 0 0 0 100.318 113.288
7 0 0 0 0 0 0 100.318 113.288
8 0 0 0 0 0 0 100.318 112.874
9 0 0 0 0 0 0 113.288 120.797
10 -0.7466 -0.9448 -0.6321 0.0162 1.4211 -1.4092 108.53 110.77
11 -0.7466 -0.9448 -0.6321 0.0162 1.4211 -1.4092 108.53 110.77
12 0 0 0 0 0 0 109.5 113.288
13 0 0 0 0 0 0 113.288 107.688
14 -0.8085 0.5569 -0.2466 -0.8085 0.5569 -0.2466 110.77 110.77
15 -0.8085 0.5569 -0.2466 -0.8085 0.5569 -0.2466 110.77 110.77
16 0 0 0 0 0 0 110.77 107.41
17 9.1299 -0.4847 0.3582 -1.4946 0.7308 -0.2083 107.734 123.145
18 0 0 0 0 0 0 107.734 100.318
19 9.1299 -0.4847 0.3582 -1.4946 0.7308 -0.2083 107.734 123.145
20 0 0 0 0 0 0 107.734 100.318
21 0 0 0 0 0 0 112.874 120.797
22 0 0 0 0 0 0 123.145 109.5
23 0 0 0 0 0 0 109.5 100.318

Improper Coeffs # class2

1 0 0
2 0 0
3 0 0
4 0 0
5 0 0
6 0 0
7 0 0
8 0 0
9 0 0
10 46.9264 0
11 46.9264 0

AngleAngle Coeffs

1 1.0827 -1.8202 2.0403 110.77 108.53 107.734
2 0.2738 -0.4825 0.2738 110.77 110.77 107.66
3 0.2738 -0.4825 0.2738 110.77 110.77 107.66
4 -3.3867 -3.4976 -3.3867 107.734 107.734 107.66
5 -0.3157 -0.3157 -0.3157 107.66 107.66 107.66
6 1.0827 -1.8202 2.0403 110.77 108.53 107.734
7 0 0 0 110.77 107.41 107.688
8 0 0 0 107.41 108.53 109.5
9 0 0 0 107.734 109.5 107.688
10 0 0 0 100.318 123.145 120.797
11 0 0 0 100.318 123.145 120.797

Atoms # full

631 2 6 -0.531 6.469210144321521 8.750872666445806 7.520991005942434 0 1 0
630 2 3 0.702 6.2110430989269325 7.663571464334086 7.8590382301132236 0 1 0
624 2 2 0.172 7.175952084189156 6.572576336864884 8.371499105869056 0 1 0
625 2 4 0.053 8.012614251126955 6.914611214838142 7.647950108607516 0 1 0
1656 4 1 -0.159 7.028693503095582 7.9657339465325565 4.1786658942707495 0 0 0
1658 4 4 0.053 7.2244580824102425 7.544537281838731 5.144338388962666 0 0 0
1000 3 4 0.053 36.79424820273478 21.2475609849179 20.68896330072559 -1 0 0
626 2 1 -0.159 6.648402699158861 5.2201720028368275 8.020069262896472 0 1 0
632 2 7 -0.396 4.946495457453388 7.1440168947708464 7.886434843538696 0 1 0
633 2 2 0.172 41.80579858350279 7.776765300158004 7.3474078141776396 -1 1 0
628 2 4 0.053 6.026930809956289 5.005363759338891 9.015900919748834 0 1 0
1239 3 4 0.053 26.98181291922429 21.538343297555876 21.609929747408987 -1 0 0
1757 4 4 0.053 10.038786979249412 4.445360640393703 7.551135103409978 0 0 0
627 2 4 0.053 6.084183937282495 5.157350621471479 7.107257673951441 0 1 0
945 3 4 0.053 31.249902409450705 13.160544930463935 21.12767649187838 -1 0 0
1094 3 2 0.172 22.71686400565774 9.730636026593551 3.8267793831589496 -1 0 1
1643 4 6 -0.531 10.13540841370841 9.237342206189897 6.126346242919207 0 0 0
1627 4 2 0.172 13.653833647500177 7.469883402697269 9.6738705185951 0 0 0
1634 4 6 -0.531 12.6314804983606 6.381867201635863 7.820642577281367 0 0 0
1633 4 3 0.702 12.87065579994881 7.406702969832455 8.365624318221315 0 0 0
1628 4 4 0.053 13.667155055917892 6.293719334979739 9.994846739691212 0 0 0
1635 4 7 -0.396 12.711772543946843 8.640701931654625 7.755406766751781 0 0 0
1637 4 4 0.053 12.123704303294462 7.815577052171733 5.845392803442264 0 0 0
1636 4 2 0.172 12.437316428036693 8.763913822364179 6.203710993373511 0 0 0
1624 4 3 0.702 12.035970685266316 8.443504514149707 11.110331452589707 0 0 0
1742 4 6 -0.531 15.007607047676382 5.996646973831011 6.183433754611799 0 0 0
1625 4 6 -0.531 11.32336926969922 7.521733138807698 11.049695524734716 0 0 0
1626 4 7 -0.396 13.340077868767393 8.472446553554857 10.686790510840476 0 0 0
1629 4 1 -0.159 15.074080658134706 7.755069960320859 9.24224299433301 0 0 0
1741 4 3 0.702 14.758265116079334 5.179579155830565 5.294019991309055 0 0 0
1730 4 4 0.053 9.741003258393954 5.39295697726263 4.530753918844423 0 0 0
2103 5 3 0.702 40.99244784069893 4.137373676230051 12.69419931221132 -1 2 0
3791 9 4 0.053 17.513418849616237 22.31209536346247 6.660127562237897 1 0 1
1631 4 4 0.053 15.581210614514278 6.837345969167859 8.935136240542597 0 0 0
25 1 3 0.702 18.58546116087995 5.516081873985126 5.313523797164493 0 1 0
19 1 2 0.172 18.611526711715733 6.419054858433123 6.653589558215845 0 1 0
20 1 4 0.053 17.941517108570665 5.910928966889922 7.393113281685661 0 1 0
18 1 7 -0.396 18.171745554897083 7.825499880862714 6.373512981691869 0 1 0
26 1 6 -0.531 17.54882439632309 5.141423425249394 4.850134352923476 0 1 0
27 1 7 -0.396 19.827284504588324 5.528589646346042 4.706655208054601 0 1 0
21 1 1 -0.159 20.109407399403086 6.434920844133554 7.0760322645133495 0 1 0
23 1 4 0.053 20.70961007352641 7.241085143601126 6.698839059958626 0 1 0
22 1 4 0.053 20.705016288648334 5.523916852092278 7.003648783853285 0 1 0
24 1 4 0.053 20.011404633749635 6.683368030223033 8.167851621243823 0 1 0
17 1 6 -0.531 18.356077921763127 8.452554514591116 8.522978306091787 0 1 0
361 1 2 0.172 25.930471044068877 5.622675391538494 7.66861019921181 0 1 -1
2527 6 4 0.053 25.502663403991654 9.739952865942616 8.445893465547929 0 0 0
362 1 4 0.053 26.61473117442118 6.427152206221015 7.876699093642312 0 1 -1
2525 6 4 0.053 25.351274100075635 8.962345026353 10.024458105403188 0 0 0
2524 6 1 -0.159 25.232561240325214 9.916678687666153 9.47241660020433 0 0 0
605 2 7 -0.396 8.815146669015947 3.899939253863586 15.983018033575753 0 1 0
176 1 4 0.053 4.317850964169082 17.204948166201163 22.141568405681298 0 1 -1
3066 7 1 -0.159 31.333761826052434 4.567982151272622 5.0562696785464265 -1 0 1
2381 6 4 0.053 11.554199874288422 22.59369762269229 11.242086822027186 0 0 0
2541 6 4 0.053 30.21756560354954 7.1457742303477385 7.884218873739945 0 0 0
2546 6 3 0.702 31.40631965551313 8.732482865764453 7.003612989975673 0 0 0
2540 6 2 0.172 30.954486460346487 7.923466962521746 8.324397306989471 0 0 0
2547 6 6 -0.531 30.7361320348024 8.827250993263792 5.978254926376922 0 0 0
368 1 6 -0.531 27.90294126692602 4.721209668138218 6.663508854602984 0 1 -1
367 1 3 0.702 26.96791413871484 4.523694031697501 7.471212272500416 0 1 -1
2526 6 4 0.053 24.16743481554184 10.151633508581558 9.358297210514657 0 0 0
2762 7 4 0.053 29.529956280616734 18.28962648763749 21.926962703558235 0 0 0
2539 6 7 -0.396 30.37531976784099 8.74502978490252 9.468713193003929 0 0 0
691 2 4 0.053 3.843072936651083 21.323000314883966 19.070496493333557 0 1 0
3067 7 4 0.053 30.661427630416405 4.578590587981942 5.946541218760235 -1 0 1
629 2 4 0.053 7.437696821079425 4.5197942760962695 8.098110652368977 0 1 0
1640 4 4 0.053 14.552572830315693 8.32235932102997 6.287428640830467 0 0 0
2542 6 1 -0.159 32.151771094759596 7.264708798846386 8.851008929606987 0 0 0
2544 6 4 0.053 32.66538704470328 6.911592220918557 7.974618232159128 0 0 0
2558 6 2 0.172 36.80693051460176 9.272198884342966 6.3603669086802865 0 0 0
2564 6 3 0.702 36.9457474301428 7.699847355881671 6.256878902187939 0 0 0
2566 6 7 -0.396 36.84852021431426 6.964346738492377 7.447761804176791 0 0 0
2567 6 2 0.172 36.79468606368415 5.563287361142438 7.38216644087089 0 0 0
2559 6 4 0.053 37.13957348982463 9.5964139723505 5.428611241447347 0 0 0
2565 6 6 -0.531 37.24395819667926 7.159650154892389 5.19622596189271 0 0 0
2578 6 1 -0.159 40.95301870232716 3.8101930390006045 8.623660328389807 0 0 0
2562 6 4 0.053 37.252944902293834 9.459386096391725 8.429725278174306 0 0 0
2568 6 4 0.053 36.46920121761924 5.205522833551335 6.342867595432779 0 0 0
2569 6 1 -0.159 35.705455985052666 4.975074754343071 8.332218795789604 0 0 0
2570 6 4 0.053 34.80579640213948 5.532800908942526 8.592671024718186 0 0 0
2573 6 3 0.702 38.27920401094764 5.033180252848848 7.417363175337306 0 0 0
805 2 4 0.053 33.43011347625871 17.5891184883522 6.149791073376873 -1 1 0
2572 6 4 0.053 35.29818371368614 4.06887342102949 7.884570269520232 0 0 0
636 2 4 0.053 4.5715222486575655 8.238643375514085 5.392444941926938 0 1 0
2563 6 4 0.053 38.70787484094559 9.492529285259055 7.2456251923127475 0 0 0
635 2 1 -0.159 3.8537460157608336 7.620633735126628 5.785243359088224 0 1 0
637 2 4 0.053 40.92415755700827 7.579282599495218 5.222767359600306 -1 1 0
638 2 4 0.053 4.192623505977682 6.625407458922817 5.65778189108868 0 1 0
634 2 4 0.053 40.919256768278416 7.421399002889693 7.900974060545563 -1 1 0
998 3 4 0.053 36.1480021437724 21.64334171408699 19.0841906693782 -1 0 0
2436 6 4 0.053 17.45054993245138 21.93307035178787 11.742301252862823 0 0 0
754 2 4 0.053 31.180193533639738 22.568208784700555 17.47330879789405 -1 1 0
3312 8 4 0.053 13.492468418140819 19.216740633027438 22.451977269193993 1 0 0
312 1 4 0.053 14.558793580302824 3.9402161713924406 21.667825785269972 0 1 -1
2575 6 7 -0.396 38.508591267157186 4.136876604034125 8.476315861684089 0 0 0
2581 6 4 0.053 41.01005178866333 4.770899697961217 8.147193168620358 0 0 0
2574 6 6 -0.531 39.232652790688036 5.463528438769502 6.793643140990061 0 0 0
1655 4 4 0.053 5.741019608088957 9.871317928075523 4.265052688750284 0 0 0
639 2 3 0.702 41.612984445384114 9.360048334879906 7.639384959358006 -1 1 0
640 2 6 -0.531 41.482842196517595 9.789036255328382 8.747765467608842 -1 1 0
641 2 7 -0.396 41.55311878792109 10.279146551407774 6.624421037027986 -1 1 0
1653 4 7 -0.396 7.912246364768557 10.056149262082155 4.420160719644672 0 0 0
646 2 4 0.053 5.766683148195906 11.26740819014098 7.908399500847769 0 1 0
647 2 4 0.053 5.8829912117794185 10.91157512558458 6.256157114131177 0 1 0
645 2 4 0.053 5.9905213561154875 12.578558161108715 6.724639288875884 0 1 0
644 2 1 -0.159 5.4550366292030095 11.646998523992274 6.901968164490267 0 1 0
3425 8 7 -0.396 4.929296445285026 15.068462972689355 4.686395923937514 1 0 1
3427 8 4 0.053 4.481738427902455 15.065556923661992 6.695575126032734 1 0 1
2409 6 4 0.053 9.30800499546393 14.780717822302444 7.67924468649605 0 0 0
1649 4 4 0.053 8.90391576494157 11.698060047648779 6.2632632027862964 0 0 0
643 2 4 0.053 41.74372310441311 12.222982659130217 5.848495082769533 -1 1 0
642 2 2 0.172 3.933698167201015 11.626234527397465 6.692323602089487 0 1 0
650 2 7 -0.396 3.8025774599186235 12.887424618266921 8.78729181390701 0 1 0
1642 4 3 0.702 11.200402137417559 9.599135068830192 5.799174722198687 0 0 0
3062 7 6 -0.531 33.89661397580427 5.688830045071711 3.8573162253231503 -1 0 1
1648 4 4 0.053 8.972080934561294 12.982341837871733 5.3773082371855505 0 0 0
1644 4 7 -0.396 11.365591323035456 10.627173694177241 4.9068164081063905 0 0 0
1650 4 4 0.053 10.424237454602693 12.64662255376482 6.239049968248571 0 0 0
1647 4 1 -0.159 9.671520053194977 12.12797644977811 5.545295214512161 0 0 0
3 1 1 -0.159 14.29624879995106 13.099158843136351 8.370366433210553 0 1 0
4 1 4 0.053 13.510074022635145 13.021249409337779 7.557738153976254 0 1 0
6 1 4 0.053 13.80436073418742 13.805439376560853 9.125935404957714 0 1 0
3476 8 4 0.053 31.270952487150502 21.377330790681302 4.211752455023936 0 0 1
1645 4 2 0.172 10.068200568620071 11.197836785392322 4.327457630169905 0 0 0
1638 4 1 -0.159 13.830326521115152 8.894427023301398 5.620450870889589 0 0 0
1 1 1 -0.106 14.907788981973281 11.725631454416838 8.932755825849771 0 1 0
2408 6 4 0.053 11.011586698260881 14.567061511206012 6.948804102179759 0 0 0
5 1 4 0.053 15.140714871575215 13.759867705864046 8.054116068546696 0 1 0
451 1 4 0.053 15.060628901861556 11.712871071813765 9.975823135891122 0 1 0
2406 6 4 0.053 10.666456444557442 15.116847968197675 9.547922595849354 0 0 0
815 2 1 -0.159 37.939581698356946 16.443965698902097 5.607017467051504 -1 1 0
3789 9 4 0.053 19.18440981770096 22.212801904368117 4.0993741100837795 1 0 1
1108 3 4 0.053 21.098224407281844 9.673797130676222 7.854948919661862 -1 0 1
7 1 3 0.702 16.257432056877423 11.362450256724085 8.640093755226296 0 1 0
16 1 3 0.702 18.05677140321298 8.701961612796328 7.411277181577219 0 1 0
2386 6 7 -0.396 9.227195734551554 22.600599818141635 9.782668841774994 0 0 0
13 1 4 0.053 16.45866665442885 10.571509166540103 5.193969146336778 0 1 0
14 1 4 0.053 17.978124559244442 9.659868872225125 4.876136039488493 0 1 0
12 1 1 -0.159 17.560469686037415 10.529790829516738 5.5340929642498216 0 1 0
15 1 4 0.053 17.907609280018093 11.451341335755775 5.18144149652299 0 1 0
9 1 7 -0.396 16.38790762378911 10.833993417132397 7.475986150487547 0 1 0
10 1 2 0.172 17.6984963171175 10.314116914884577 7.0022544437666925 0 1 0
1104 3 4 0.053 20.335194763478622 12.043398450508974 6.549106638628247 -1 0 1
11 1 4 0.053 18.444700236504268 11.00811921315459 7.466519124155497 0 1 0
8 1 6 -0.531 17.13524034353516 11.463028453870136 9.427986213880358 0 1 0
2508 6 4 0.053 20.917314845699064 13.026562159862426 10.526681834472498 0 0 0
1106 3 4 0.053 20.681947997108956 11.054718818384714 8.852263596666793 -1 0 1
999 3 4 0.053 35.398640959594886 22.333657586562488 20.421815676702852 -1 0 0
816 2 4 0.053 38.09707981157325 16.855931812867787 6.520894204204806 -1 1 0
1107 3 4 0.053 22.324919205465086 10.767766872493024 8.541690777665611 -1 0 1
1102 3 7 -0.396 22.062666715494355 11.024025302691463 5.81905405237859 -1 0 1
1105 3 1 -0.159 21.35864907493929 10.70352040172825 8.064892788159677 -1 0 1
1103 3 2 0.172 21.335464628404186 11.559336970256554 6.853648602344908 -1 0 1
1111 3 7 -0.396 22.667680445702345 13.203598161910483 8.370435684910595 -1 0 1
1109 3 3 0.702 21.976717245727396 13.095701949118798 7.148770182951023 -1 0 1
1114 3 1 -0.159 24.955103550137878 14.069792342081687 8.133771245506544 -1 0 1
1110 3 6 -0.531 21.760799780086145 13.871704831457242 6.2001735648008225 -1 0 1
1113 3 4 0.053 23.375711392981188 14.63821582321007 9.601891701298126 -1 0 1
1117 3 4 0.053 24.9359615053909 13.072892456478675 7.641191359094725 -1 0 1
1112 3 2 0.172 23.46923994805148 14.41264875295882 8.494227477638594 -1 0 1
2522 6 2 0.172 25.976864404577203 11.084791589045619 10.107583837747928 0 0 0
1116 3 4 0.053 25.738263776553197 14.07004339991219 8.906965403461538 -1 0 1
1115 3 4 0.053 25.317875163099337 14.571855407083941 7.246968726328181 -1 0 1
2523 6 4 0.053 25.974995736657373 11.943523891241684 9.505540412981732 0 0 0
2520 6 6 -0.531 26.173943918152382 13.226520018671375 12.196763977188061 0 0 0
1743 4 7 -0.396 15.02100569180482 3.860618941165251 5.418744698296207 0 0 0
791 2 4 0.053 28.280830799831588 14.360051690963475 10.632894106070973 -1 1 0
789 2 4 0.053 27.582288663488583 14.113228165157015 9.106720676611747 -1 1 0
790 2 4 0.053 29.160663108758698 13.747576685234906 9.200469847484683 -1 1 0
788 2 1 -0.159 28.45067288319674 14.446367371630604 9.543976106120727 -1 1 0
1751 4 6 -0.531 14.636985510059192 4.33372802436747 8.630849430002886 0 0 0
2453 6 4 0.053 14.85831623406476 22.54746929059502 14.302010037990698 0 0 0
390 1 1 -0.159 28.14315761387973 4.658494233042287 14.000218053927735 0 1 -1
3323 8 4 0.053 11.714943940665675 13.886167464098554 22.68902436967366 1 0 0
2548 6 7 -0.396 32.64235061603347 9.211649387939724 6.948666470447561 0 0 0
2550 6 4 0.053 32.65440096643073 9.764649125001823 4.95384256773658 0 0 0
2549 6 2 0.172 33.21623175541154 9.909136733502763 5.892624466493126 0 0 0
2555 6 3 0.702 34.55149611113232 9.18830267288253 5.59008842517621 0 0 0
2557 6 7 -0.396 35.47752198553678 9.64744862598172 6.468164323432463 0 0 0
2560 6 1 -0.159 37.6602904584077 9.777001672710469 7.472408602625421 0 0 0
2716 7 4 0.053 31.627579295173643 13.673853191981813 9.162607848836316 0 0 0
2554 6 4 0.053 32.387218769969806 11.919323523998846 6.181816922135665 0 0 0
819 2 3 0.702 36.95179007449332 13.90705350860993 5.146300330748237 -1 1 0
820 2 6 -0.531 36.34473838294032 12.98563887646017 5.6549426946191685 -1 1 0
2553 6 4 0.053 33.93000907054958 11.501577631020119 7.190385264178287 0 0 0
2551 6 1 -0.159 33.385338131466966 11.411228365583518 6.197030917290054 0 0 0
2552 6 4 0.053 34.00428809903432 11.737109158508709 5.340369530738536 0 0 0
814 2 4 0.053 37.399411906534056 14.79335240775221 6.947602328485967 -1 1 0
813 2 2 0.172 37.08474328714658 15.24378575572431 5.9509972099567445 -1 1 0
3163 7 4 0.053 32.95623860587351 10.934366577985731 9.360365507168897 0 0 0
2561 6 4 0.053 37.73337864101869 10.899411116676967 7.6266415459109815 0 0 0
648 2 3 0.702 41.14183972537485 12.543852216155868 7.700455460504234 -1 1 0
649 2 6 -0.531 40.13984583025362 13.119831450577996 7.357966839577398 -1 1 0
656 2 4 0.053 39.45497377791446 12.903785707256421 10.270100580776074 -1 1 0
3429 8 4 0.053 6.735940349045977 16.882739869240233 6.145671148142322 1 0 1
3428 8 1 -0.159 6.406703468486157 15.976938812203832 6.389986933916823 1 0 1
3426 8 2 0.172 4.9581485933591445 15.803962092664321 6.004441804213137 1 0 1
3430 8 4 0.053 6.483973228599814 15.773262537932823 7.583012385723215 1 0 1
3431 8 4 0.053 7.030797106710298 15.2639921577063 5.895178534623662 1 0 1
3440 8 4 0.053 5.064287153000802 19.82329208004063 8.560265388284929 1 0 1
3760 9 7 -0.396 9.099777321804122 20.025194633666086 4.2815492498066225 1 0 1
2400 6 4 0.053 7.111267879257348 18.378959942082304 8.372729551627572 0 0 0
3783 9 4 0.053 14.272563383181645 22.458346716337875 4.212652913833495 1 0 1
2399 6 4 0.053 6.20586334136833 17.7705693821622 9.61810119874044 0 0 0
2401 6 4 0.053 7.603686159983648 16.864200682982162 8.937541534561365 0 0 0
2398 6 1 -0.159 7.260339951822414 17.848932712633555 9.253893029115607 0 0 0
2404 6 7 -0.396 9.79637488890602 16.817013194504142 8.997372586853349 0 0 0
3434 8 7 -0.396 4.509509027939442 18.216973928809335 6.496457851329941 1 0 1
3437 8 1 -0.159 4.487422153577949 20.31617192631692 7.733406085476563 1 0 1
685 2 6 -0.531 5.296521280781774 21.30798402742106 15.100167833081677 0 1 0
811 2 6 -0.531 34.67755145577567 16.306009408906856 4.390652233230616 -1 1 0
3756 9 4 0.053 5.22865963375416 19.915164192025415 3.9990912902120495 1 0 1
2407 6 1 -0.159 10.27063299127237 15.241986343079992 7.403915984530915 0 0 0
2417 6 4 0.053 13.851450590067573 16.129055981576144 5.6456256715532085 0 0 0
133 1 3 0.702 41.07481953381668 22.345871012334435 22.305533258159308 -1 1 -1
2410 6 4 0.053 10.04871426012318 15.961571163223878 6.594156435164516 0 0 0
3763 9 1 -0.159 9.917770985983342 17.890253112962814 4.387006669628025 1 0 1
3762 9 4 0.053 10.628463156102484 19.686390703582234 5.673905518602528 1 0 1
2422 6 7 -0.396 13.582710131907648 19.51944096476855 7.4954421647358025 0 0 0
2418 6 4 0.053 13.847735672557198 17.94344820482437 5.204231449754695 0 0 0
2416 6 1 -0.159 14.30447789721614 17.11643331951473 5.914579639673118 0 0 0
3761 9 2 0.172 10.380058035582508 19.385979755330418 4.614516465960318 1 0 1
2420 6 3 0.702 14.273370651628483 18.574581762659875 8.169291850212385 0 0 0
2414 6 2 0.172 14.018753200255654 17.171222193000084 7.484237778195983 0 0 0
2413 6 7 -0.396 12.617416186310848 16.703579800614868 7.641994104830141 0 0 0
592 2 4 0.053 8.615498719712608 3.929390007592745 22.17816441555664 0 1 0
2427 6 4 0.053 14.468324128299324 20.73787395047039 5.529975658764955 0 0 0
2415 6 4 0.053 14.638393215238109 16.51010137068275 7.975733834809701 0 0 0
2421 6 6 -0.531 14.566501935657861 18.730835478648103 9.330115724939674 0 0 0
2425 6 1 -0.159 15.006117904443318 20.982897739855257 6.459222783818611 0 0 0
2423 6 2 0.172 14.00821197697059 21.031324019313857 7.601694016070086 0 0 0
2405 6 2 0.172 10.750506273579383 15.844286780146305 8.70476659947842 0 0 0
2411 6 3 0.702 12.214733108547096 16.17713173028919 8.781280674616948 0 0 0
3765 9 4 0.053 8.924041297282185 17.536258001780286 4.78936839906575 1 0 1
3768 9 6 -0.531 12.163422279782168 20.99488919411212 3.862024225557606 1 0 1
2419 6 4 0.053 15.422173611883819 16.955498082697936 5.588338413087041 0 0 0
2392 6 4 0.053 7.946544676478974 21.231439426447743 6.87423101592349 0 0 0
2389 6 1 -0.159 8.66452325924057 21.703306501825846 7.498619660096377 0 0 0
2429 6 3 0.702 14.680573164573017 21.863306866829152 8.842025245439025 0 0 0
3804 9 6 -0.531 17.994888798832744 17.045794682037673 4.711810871888138 1 0 1
3801 9 4 0.053 17.73216124888574 18.039323169430943 7.812387762383463 1 0 1
3805 9 7 -0.396 20.239676275555865 16.742330693465213 4.96447567567282 1 0 1
3800 9 4 0.053 18.99297010772775 16.852620445072358 8.22150981499503 1 0 1
3799 9 1 -0.159 18.771250226725005 17.873625294968058 7.791928677830349 1 0 1
3802 9 4 0.053 19.087676728661712 18.62413097001808 8.575108183390856 1 0 1
3797 9 2 0.172 19.305035264360924 18.31181933409089 6.395150038057139 1 0 1
3796 9 7 -0.396 18.718198449633952 19.558783093483445 6.178645437396849 1 0 1
3803 9 3 0.702 19.027697121205566 17.29102991196669 5.331770051774055 1 0 1
3798 9 4 0.053 20.359407199131415 18.50099129283586 6.4847282521914735 1 0 1
2428 6 4 0.053 15.76815299534216 20.218279663540162 6.544070203216055 0 0 0
3794 9 3 0.702 18.92835603280845 20.269327717160014 5.014026412905052 1 0 1
3311 8 1 -0.159 14.590452849521741 19.140029275399193 22.465717013892487 1 0 0
2431 6 7 -0.396 16.083484747204608 21.8136059878397 8.767073096004516 0 0 0
3795 9 6 -0.531 19.753826909746337 19.91730793552244 4.2220787577501655 1 0 1
1118 3 3 0.702 22.92290195848915 15.851492908188519 7.723987856998843 -1 0 1
1119 3 6 -0.531 21.7707457448779 16.245483007734965 7.955378470858904 -1 0 1
1120 3 7 -0.396 23.7303810809919 16.465827520884908 6.853178614127528 -1 0 1
1122 3 4 0.053 22.77572645756598 17.649509903579705 5.334045187259558 -1 0 1
1121 3 2 0.172 23.379372798414636 17.754032673992874 6.300632607180111 -1 0 1
1126 3 4 0.053 23.58145561864709 19.385612575039794 7.968194413423277 -1 0 1
1123 3 1 -0.159 22.805951928212576 18.84016538877522 7.358399811735438 -1 0 1
1125 3 4 0.053 22.03872245711536 18.458704687106252 8.072712292261436 -1 0 1
1127 3 3 0.702 24.727655390722912 18.35758315691824 5.551704244397818 -1 0 1
1124 3 4 0.053 22.239198098384144 19.722107643146323 7.0312321150812735 -1 0 1
1129 3 7 -0.396 25.40856487428404 19.247468183251247 6.251660642136196 -1 0 1
780 2 4 0.053 24.638923831702826 16.394092489939858 10.843122742961356 -1 1 0
782 2 4 0.053 24.88269052157842 16.957491829370653 9.051511685733796 -1 1 0
779 2 1 -0.159 24.6702227444323 17.23031977166116 10.130064610054735 -1 1 0
1130 3 2 0.172 26.609243019824802 19.84548737356901 5.585615776750352 -1 0 1
795 2 2 0.172 29.88333962751679 15.801241610997304 5.518161356442187 -1 1 0
796 2 4 0.053 29.145431239183182 16.559017510094627 5.0098583937832375 -1 1 0
1133 3 4 0.053 27.293641554227044 20.984701805784336 7.373841139696844 -1 0 1
1135 3 4 0.053 27.622499951416494 19.179167470144378 7.216865524586032 -1 0 1
794 2 7 -0.396 29.259163384708938 15.281707786421679 6.937150879782836 -1 1 0
793 2 6 -0.531 29.2198132831357 17.553120033216395 7.463527765014744 -1 1 0
4008 9 4 0.053 31.349562666213586 18.423188935583187 8.78367190912679 1 0 1
792 2 3 0.702 29.06058962381819 16.384956199867098 7.744794473808234 -1 1 0
4006 9 1 -0.159 31.24820732976066 19.436645452676252 9.249830920007362 1 0 1
786 2 2 0.172 28.62797070538302 15.903243670475565 9.144437817311651 -1 1 0
787 2 4 0.053 29.354607338332197 16.47307866359956 9.6951799283393 -1 1 0
785 2 7 -0.396 27.271169530516865 16.476974758285184 9.325878448156839 -1 1 0
4007 9 4 0.053 31.178002164473327 19.113957378522194 10.307962055698793 1 0 1
4009 9 4 0.053 30.361291545550515 19.874553488572765 8.752055461844655 1 0 1
1132 3 1 -0.159 27.705207011522 20.118126070760407 6.71803165468144 -1 0 1
1134 3 4 0.053 28.59726640235275 20.42508532931562 6.316574537661303 -1 0 1
802 2 6 -0.531 31.254826635683024 17.682036462325758 5.528253123761491 -1 1 0
801 2 3 0.702 31.18559268010079 16.542148602865204 5.681238252999302 -1 1 0
797 2 1 -0.159 30.025097794462862 14.436874559839673 4.81960848499507 -1 1 0
804 2 2 0.172 33.45345606125156 16.43854367078592 6.555371367292334 -1 1 0
803 2 7 -0.396 32.17092213716612 15.728307298747358 6.085953012989562 -1 1 0
810 2 3 0.702 34.743887363368806 16.094510644629523 5.592528885427631 -1 1 0
663 2 4 0.053 37.41840343728042 15.793579386778031 9.025839305842954 -1 1 0
665 2 4 0.053 36.905345044575085 17.228333769670535 9.804912304925143 -1 1 0
812 2 7 -0.396 35.795728380562295 15.676959438407119 6.355276325058647 -1 1 0
4004 9 2 0.172 32.60049357517333 20.234596779911286 8.928078609974907 1 0 1
4005 9 4 0.053 33.32514035786676 19.5973994569161 8.372045781863537 1 0 1
4003 9 7 -0.396 33.294262080553516 20.40745266044942 10.177589145926003 1 0 1
4002 9 6 -0.531 33.75754332999692 18.261751135281663 10.461138575993102 1 0 1
809 2 4 0.053 32.64523825223026 16.438214541227747 8.50625794165179 -1 1 0
806 2 1 -0.159 33.5606790375097 16.133168569514908 8.092713677929346 -1 1 0