units real
atom_style full
boundary p p p

# --- Force Field Styles ---
pair_style lj/class2/coul/long 9.5 9.5
kspace_style pppm 1e-6
dielectric 1.000000
bond_style class2
angle_style class2
dihedral_style class2
improper_style class2
special_bonds lj/coul 0 0 1
pair_modify mix sixthpower tail yes
neighbor 2.0 bin
neigh_modify delay 0 every 1 check yes
neigh_modify one 4000
package gpu 1 neigh no

read_data /home/arz2/PolyJarvis/data/PLA1/lammps/equil/nvt_production/nvt_production_out.data
Reading data file ...
  orthogonal box = (3.853148 3.853148 3.853148) to (41.779975 41.779975 41.779975)
  1 by 2 by 2 MPI processor grid
  reading atoms ...
  4520 atoms
  reading velocities ...
  4520 velocities
  scanning bonds ...
  4 = max bonds/atom
  scanning angles ...
  6 = max angles/atom
  scanning dihedrals ...
  12 = max dihedrals/atom
  scanning impropers ...
  4 = max impropers/atom
  orthogonal box = (3.853148 3.853148 3.853148) to (41.779975 41.779975 41.779975)
  1 by 2 by 2 MPI processor grid
  reading bonds ...
  4510 bonds
  reading angles ...
  8000 angles
  reading dihedrals ...
  9970 dihedrals
  reading impropers ...
  4500 impropers
Finding 1-2 1-3 1-4 neighbors ...
  special bond factors lj:    0        0        1       
  special bond factors coul:  0        0        1       
     4 = max # of 1-2 neighbors
     6 = max # of 1-3 neighbors
    10 = max # of special neighbors
  special bonds CPU = 0.001 seconds
  read_data CPU = 0.220 seconds
include /home/arz2/PolyJarvis/data/PLA1/lammps/equil/emc_build.params
# LAMMPS parameters created by EMC v9.4.4, build Jul 31 2025 20:33:44

# Variables

variable	seed		index	-1
variable	ntotal		index	4520
variable	fshape		index	1
variable	output		index	emc_build
variable	field		index	pcff/pcff
variable	location1	index	/home/arz2/emc/field/
variable	nav		index	0.6022141179
variable	temperature	index	300
variable	radius		index	5
variable	nrelax		index	100
variable	weight_nonbond	index	0.0001
variable	weight_bond	index	0.0001
variable	weight_focus	index	1
variable	cutoff		index	9.5
variable	charge_cutoff	index	9.5
variable	kappa		index	4
variable	density1	index	0.63
variable	lprevious	index	0
variable	lphase		index	45.6331234262
variable	f_poly		index	10
variable	chem_repeat	index	*C(C)C(=O)O*
variable	chem_cap	index	*[H]
variable	lg_repeat	index	9
variable	lg_cap		index	1
variable	norm_poly	index	100
variable	l_poly		index	452
variable	mg_repeat	index	44.05358
variable	mg_cap		index	0
variable	m_poly		index	2202.679
variable	n_poly		index	10
variable	mtotal		index	36052.2247
variable	nphase1		index	4520
variable	mphase1		index	36052.2247
variable	vphase1		index	95025.5927105
variable	lbox		index	45.6331234262
variable	lphase1		index	45.6331234262
variable	lxx		index	45.6331234262
variable	lyy		index	45.6331234262
variable	lzz		index	45.6331234262
variable	lzy		index	0
variable	lzx		index	0
variable	lyx		index	0
variable	vtotal		index	95025.5927105
variable	nl_poly		index	10

# Types

variable	type_c		index	1
variable	type_c1		index	2
variable	type_c_1	index	3
variable	type_hc		index	4
variable	type_ho2	index	5
variable	type_o_1	index	6
variable	type_o_2	index	7

variable	type_bond_c_c	index	1
variable	type_bond_c_c1	index	2
variable	type_bond_c_c_1	index	3
variable	type_bond_c_hc	index	4
variable	type_bond_c1_c_1 index	5
variable	type_bond_c1_hc	index	6
variable	type_bond_c1_o_2 index	7
variable	type_bond_c_1_o_1 index	8
variable	type_bond_c_1_o_2 index	9
variable	type_bond_ho2_o_2 index	10

variable	type_angle_c_c_c_1 index	1
variable	type_angle_c_c_hc index	2
variable	type_angle_c_c1_c_1 index	3
variable	type_angle_c_c1_hc index	4
variable	type_angle_c_c1_o_2 index	5
variable	type_angle_c_c_1_o_1 index	6
variable	type_angle_c_c_1_o_2 index	7
variable	type_angle_c1_c_hc index	8
variable	type_angle_c1_c_1_o_1 index	9
variable	type_angle_c1_c_1_o_2 index	10
variable	type_angle_c1_o_2_c_1 index	11
variable	type_angle_c_1_c_hc index	12
variable	type_angle_c_1_c1_hc index	13
variable	type_angle_c_1_c1_o_2 index	14
variable	type_angle_c_1_o_2_ho2 index	15
variable	type_angle_hc_c_hc index	16
variable	type_angle_hc_c1_o_2 index	17
variable	type_angle_o_1_c_1_o_2 index	18

# Clusters

variable	n0_poly		index	1
variable	n1_poly		index	10
variable	nl_poly		index	10

# Flags

variable	flag_charged	index	1

# Masses

mass		1    12.01115  # c
mass		2    12.01115  # c1
mass		3    12.01115  # c_1
mass		4     1.00797  # hc
mass		5     1.00800  # ho2
mass		6    15.99940  # o_1
mass		7    15.99940  # o_2

# Potentials

pair_modify	mix sixthpower tail yes
special_bonds	lj/coul 0 0 1

# Pair Coeffs

pair_coeff	 1  1    0.05400    4.01000  # c,c
pair_coeff	 2  2    0.05400    4.01000  # c1,c1
pair_coeff	 3  3    0.12000    3.81000  # c_1,c_1
pair_coeff	 4  4    0.02000    2.99500  # hc,hc
pair_coeff	 5  5    0.01300    1.11000  # ho2,ho2
pair_coeff	 6  6    0.26700    3.30000  # o_1,o_1
pair_coeff	 7  7    0.24000    3.42000  # o_2,o_2

# Bond Coeffs

bond_coeff	 1    1.53000  299.67000 -501.77000  679.81000  # c,c
bond_coeff	 2    1.53000  299.67000 -501.77000  679.81000  # c,c1
bond_coeff	 3    1.52020  253.70670 -423.03700  396.90000  # c,c_1
bond_coeff	 4    1.10100  345.00000 -691.89000  844.60000  # c,hc
bond_coeff	 5    1.52020  253.70670 -423.03700  396.90000  # c1,c_1
bond_coeff	 6    1.10100  345.00000 -691.89000  844.60000  # c1,hc
bond_coeff	 7    1.43000  326.72730 -608.53060  689.03330  # c1,o_2
bond_coeff	 8    1.20200  851.14030 -1918.48820 2160.76590  # c_1,o_1
bond_coeff	 9    1.36830  367.14810 -794.79080 1055.23190  # c_1,o_2
bond_coeff	10    0.95200  534.29940 -1287.19370 1889.13960  # ho2,o_2

# Angle Coeffs

angle_coeff	 1  108.52950   51.97470   -9.48510  -10.99850  # c,c,c_1
angle_coeff	 2  110.77000   41.45300  -10.60400    5.12900  # c,c,hc
angle_coeff	 3  108.52950   51.97470   -9.48510  -10.99850  # c,c1,c_1
angle_coeff	 4  110.77000   41.45300  -10.60400    5.12900  # c,c1,hc
angle_coeff	 5  107.41000   63.39070  -13.45130    1.66500  # c,c1,o_2
angle_coeff	 6  123.14510   55.54310  -17.21230    0.13480  # c,c_1,o_1
angle_coeff	 7  100.31820   38.86310   -3.83230   -7.98020  # c,c_1,o_2
angle_coeff	 8  110.77000   41.45300  -10.60400    5.12900  # c1,c,hc
angle_coeff	 9  123.14510   55.54310  -17.21230    0.13480  # c1,c_1,o_1
angle_coeff	10  100.31820   38.86310   -3.83230   -7.98020  # c1,c_1,o_2
angle_coeff	11  113.28800   61.28680  -28.97860    7.99290  # c1,o_2,c_1
angle_coeff	12  107.73360   40.60990  -28.81210    0.00000  # c_1,c,hc
angle_coeff	13  107.73360   40.60990  -28.81210    0.00000  # c_1,c1,hc
angle_coeff	14  109.50000   60.00000    0.00000    0.00000  # c_1,c1,o_2
angle_coeff	15  112.87400   53.25120  -14.99790    2.46400  # c_1,o_2,ho2
angle_coeff	16  107.66000   39.64100  -12.92100   -2.43180  # hc,c,hc
angle_coeff	17  107.68800   65.48010  -10.34980    5.88660  # hc,c1,o_2
angle_coeff	18  120.79700   95.34460  -32.28690    6.37780  # o_1,c_1,o_2

# BondBond Coeffs

angle_coeff	 1 bb    5.41990    1.53000    1.52020  # c,c,c_1
angle_coeff	 2 bb    3.38720    1.53000    1.10100  # c,c,hc
angle_coeff	 3 bb    5.41990    1.53000    1.52020  # c,c1,c_1
angle_coeff	 4 bb    3.38720    1.53000    1.10100  # c,c1,hc
angle_coeff	 5 bb   23.26470    1.53000    1.43000  # c,c1,o_2
angle_coeff	 6 bb   46.06850    1.52020    1.20200  # c,c_1,o_1
angle_coeff	 7 bb   19.10690    1.52020    1.36830  # c,c_1,o_2
angle_coeff	 8 bb    3.38720    1.53000    1.10100  # c1,c,hc
angle_coeff	 9 bb   46.06850    1.52020    1.20200  # c1,c_1,o_1
angle_coeff	10 bb   19.10690    1.52020    1.36830  # c1,c_1,o_2
angle_coeff	11 bb   45.45030    1.43000    1.36830  # c1,o_2,c_1
angle_coeff	12 bb    0.71150    1.52020    1.10100  # c_1,c,hc
angle_coeff	13 bb    0.71150    1.52020    1.10100  # c_1,c1,hc
angle_coeff	14 bb    0.00000    1.52020    1.43000  # c_1,c1,o_2
angle_coeff	15 bb    9.56710    1.36830    0.95200  # c_1,o_2,ho2
angle_coeff	16 bb    5.33160    1.10100    1.10100  # hc,c,hc
angle_coeff	17 bb    5.64540    1.10100    1.43000  # hc,c1,o_2
angle_coeff	18 bb  121.48800    1.20200    1.36830  # o_1,c_1,o_2

# BondAngle Coeffs

angle_coeff	 1 ba   18.16780   15.87580    1.53000    1.52020  # c,c,c_1
angle_coeff	 2 ba   20.75400   11.42100    1.53000    1.10100  # c,c,hc
angle_coeff	 3 ba   18.16780   15.87580    1.53000    1.52020  # c,c1,c_1
angle_coeff	 4 ba   20.75400   11.42100    1.53000    1.10100  # c,c1,hc
angle_coeff	 5 ba   23.39200   47.94870    1.53000    1.43000  # c,c1,o_2
angle_coeff	 6 ba   34.99820   37.12980    1.52020    1.20200  # c,c_1,o_1
angle_coeff	 7 ba    1.34350    4.69780    1.52020    1.36830  # c,c_1,o_2
angle_coeff	 8 ba   20.75400   11.42100    1.53000    1.10100  # c1,c,hc
angle_coeff	 9 ba   34.99820   37.12980    1.52020    1.20200  # c1,c_1,o_1
angle_coeff	10 ba    1.34350    4.69780    1.52020    1.36830  # c1,c_1,o_2
angle_coeff	11 ba   41.91160   46.46080    1.43000    1.36830  # c1,o_2,c_1
angle_coeff	12 ba   12.46320    9.17650    1.52020    1.10100  # c_1,c,hc
angle_coeff	13 ba   12.46320    9.17650    1.52020    1.10100  # c_1,c1,hc
angle_coeff	14 ba    0.00000    0.00000    1.52020    1.43000  # c_1,c1,o_2
angle_coeff	15 ba   37.91630   21.43640    1.36830    0.95200  # c_1,o_2,ho2
angle_coeff	16 ba   18.10300   18.10300    1.10100    1.10100  # hc,c,hc
angle_coeff	17 ba    8.68640   57.49750    1.10100    1.43000  # hc,c1,o_2
angle_coeff	18 ba   76.26140   71.87610    1.20200    1.36830  # o_1,c_1,o_2

# Dihedral Coeffs

dihedral_coeff	 1    0.04420    0.00000    0.02920    0.00000    0.05620    0.00000  # c,c,c_1,o_1
dihedral_coeff	 2    1.83410    0.00000    2.06030    0.00000   -0.01950    0.00000  # c,c,c_1,o_2
dihedral_coeff	 3    0.04420    0.00000    0.02920    0.00000    0.05620    0.00000  # c,c1,c_1,o_1
dihedral_coeff	 4    1.83410    0.00000    2.06030    0.00000   -0.01950    0.00000  # c,c1,c_1,o_2
dihedral_coeff	 5    0.00000    0.00000    0.00000    0.00000   -0.19320    0.00000  # c,c1,o_2,c_1
dihedral_coeff	 6   -2.55940    0.00000    2.20130    0.00000    0.03250    0.00000  # c,c_1,o_2,c1
dihedral_coeff	 7   -2.55940    0.00000    2.20130    0.00000    0.03250    0.00000  # c1,c_1,o_2,c1
dihedral_coeff	 8   -2.91260    0.00000    1.01990    0.00000   -0.20770    0.00000  # c1,c_1,o_2,ho2
dihedral_coeff	 9    0.00000    0.00000    2.20890    0.00000    0.00000    0.00000  # c1,o_2,c_1,o_1
dihedral_coeff	10   -0.02280    0.00000    0.02800    0.00000   -0.18630    0.00000  # c_1,c,c,hc
dihedral_coeff	11   -0.02280    0.00000    0.02800    0.00000   -0.18630    0.00000  # c_1,c1,c,hc
dihedral_coeff	12    0.00000    0.00000    0.00000    0.00000   -0.19320    0.00000  # c_1,c1,o_2,c_1
dihedral_coeff	13    0.00000    0.00000    0.00000    0.00000   -0.19320    0.00000  # c_1,o_2,c1,hc
dihedral_coeff	14   -0.14320    0.00000    0.06170    0.00000   -0.10830    0.00000  # hc,c,c,hc
dihedral_coeff	15   -0.14320    0.00000    0.06170    0.00000   -0.10830    0.00000  # hc,c,c1,hc
dihedral_coeff	16    0.00000    0.00000    0.00000    0.00000   -0.25000    0.00000  # hc,c,c1,o_2
dihedral_coeff	17   -0.18040    0.00000    0.00120    0.00000    0.03710    0.00000  # hc,c,c_1,o_1
dihedral_coeff	18   -0.63590    0.00000    1.48070    0.00000   -0.04380    0.00000  # hc,c,c_1,o_2
dihedral_coeff	19   -0.18040    0.00000    0.00120    0.00000    0.03710    0.00000  # hc,c1,c_1,o_1
dihedral_coeff	20   -0.63590    0.00000    1.48070    0.00000   -0.04380    0.00000  # hc,c1,c_1,o_2
dihedral_coeff	21    0.00000    0.00000    2.20890    0.00000    0.00000    0.00000  # ho2,o_2,c_1,o_1
dihedral_coeff	22    0.00000  180.00000    0.00000    0.00000    0.00000    0.00000  # o_1,c_1,c1,o_2
dihedral_coeff	23    0.00000  180.00000    0.00000    0.00000    0.00000    0.00000  # o_2,c1,c_1,o_2

# MiddleBondTorsion Coeffs

dihedral_coeff	 1 mbt    0.33880   -0.10960    0.12190    1.52020  # c,c,c_1,o_1
dihedral_coeff	 2 mbt  -17.32800   -5.79000   -3.21140    1.52020  # c,c,c_1,o_2
dihedral_coeff	 3 mbt    0.33880   -0.10960    0.12190    1.52020  # c,c1,c_1,o_1
dihedral_coeff	 4 mbt  -17.32800   -5.79000   -3.21140    1.52020  # c,c1,c_1,o_2
dihedral_coeff	 5 mbt   -5.43500    0.00000    0.00000    1.43000  # c,c1,o_2,c_1
dihedral_coeff	 6 mbt    1.34450    3.55150   -4.92020    1.36830  # c,c_1,o_2,c1
dihedral_coeff	 7 mbt    1.34450    3.55150   -4.92020    1.36830  # c1,c_1,o_2,c1
dihedral_coeff	 8 mbt    2.14520    0.54820   -2.36930    1.36830  # c1,c_1,o_2,ho2
dihedral_coeff	 9 mbt    4.26000    0.00000    0.00000    1.36830  # c1,o_2,c_1,o_1
dihedral_coeff	10 mbt   -3.50390    1.24580   -0.76100    1.53000  # c_1,c,c,hc
dihedral_coeff	11 mbt   -3.50390    1.24580   -0.76100    1.53000  # c_1,c1,c,hc
dihedral_coeff	12 mbt    0.00000    0.00000    0.00000    1.43000  # c_1,c1,o_2,c_1
dihedral_coeff	13 mbt    0.00000    0.00000    0.00000    1.43000  # c_1,o_2,c1,hc
dihedral_coeff	14 mbt  -14.26100   -0.53220   -0.48640    1.53000  # hc,c,c,hc
dihedral_coeff	15 mbt  -14.26100   -0.53220   -0.48640    1.53000  # hc,c,c1,hc
dihedral_coeff	16 mbt    0.00000    0.00000    0.00000    1.53000  # hc,c,c1,o_2
dihedral_coeff	17 mbt    0.23590    0.91390    0.95940    1.52020  # hc,c,c_1,o_1
dihedral_coeff	18 mbt  -13.76860   -2.59590    1.19340    1.52020  # hc,c,c_1,o_2
dihedral_coeff	19 mbt    0.23590    0.91390    0.95940    1.52020  # hc,c1,c_1,o_1
dihedral_coeff	20 mbt  -13.76860   -2.59590    1.19340    1.52020  # hc,c1,c_1,o_2
dihedral_coeff	21 mbt    4.26000    0.00000    0.00000    1.36830  # ho2,o_2,c_1,o_1
dihedral_coeff	22 mbt    0.00000    0.00000    0.00000    1.52020  # o_1,c_1,c1,o_2
dihedral_coeff	23 mbt    0.00000    0.00000    0.00000    1.52020  # o_2,c1,c_1,o_2

# EndBondTorsion Coeffs

dihedral_coeff	 1 ebt    0.26540    0.05030    0.10460   -0.28100    0.08160   -0.15220    1.53000    1.20200  # c,c,c_1,o_1
dihedral_coeff	 2 ebt    0.00000    0.00000    0.00000    0.00000    0.00000    0.00000    1.53000    1.36830  # c,c,c_1,o_2
dihedral_coeff	 3 ebt    0.26540    0.05030    0.10460   -0.28100    0.08160   -0.15220    1.53000    1.20200  # c,c1,c_1,o_1
dihedral_coeff	 4 ebt    0.00000    0.00000    0.00000    0.00000    0.00000    0.00000    1.53000    1.36830  # c,c1,c_1,o_2
dihedral_coeff	 5 ebt    0.00000    0.00000    0.00000    0.00000    0.00000    0.00000    1.53000    1.36830  # c,c1,o_2,c_1
dihedral_coeff	 6 ebt    0.00000    0.00000    0.00000    0.00000    0.00000    0.00000    1.52020    1.43000  # c,c_1,o_2,c1
dihedral_coeff	 7 ebt    0.00000    0.00000    0.00000    0.00000    0.00000    0.00000    1.52020    1.43000  # c1,c_1,o_2,c1
dihedral_coeff	 8 ebt    0.00000    0.00000    0.00000    0.00000    0.00000    0.00000    1.52020    0.95200  # c1,c_1,o_2,ho2
dihedral_coeff	 9 ebt    0.00000    0.00000    0.00000    0.00000    0.00000    0.00000    1.43000    1.20200  # c1,o_2,c_1,o_1
dihedral_coeff	10 ebt   -0.02040    0.36280   -0.44260   -0.00970   -0.03150   -0.07550    1.52020    1.10100  # c_1,c,c,hc
dihedral_coeff	11 ebt   -0.02040    0.36280   -0.44260   -0.00970   -0.03150   -0.07550    1.52020    1.10100  # c_1,c1,c,hc
dihedral_coeff	12 ebt    0.00000    0.00000    0.00000    0.00000    0.00000    0.00000    1.52020    1.36830  # c_1,c1,o_2,c_1
dihedral_coeff	13 ebt    0.00000    0.00000    0.00000    0.00000    0.00000    0.00000    1.36830    1.10100  # c_1,o_2,c1,hc
dihedral_coeff	14 ebt    0.21300    0.31200    0.07770    0.21300    0.31200    0.07770    1.10100    1.10100  # hc,c,c,hc
dihedral_coeff	15 ebt    0.21300    0.31200    0.07770    0.21300    0.31200    0.07770    1.10100    1.10100  # hc,c,c1,hc
dihedral_coeff	16 ebt    0.00000    0.00000    0.00000    0.00000    0.00000    0.00000    1.10100    1.43000  # hc,c,c1,o_2
dihedral_coeff	17 ebt    1.21430    0.28310    0.39160   -0.22980    0.03540    0.38530    1.10100    1.20200  # hc,c,c_1,o_1
dihedral_coeff	18 ebt    0.00000    0.00000    0.00000    0.00000    0.00000    0.00000    1.10100    1.36830  # hc,c,c_1,o_2
dihedral_coeff	19 ebt    1.21430    0.28310    0.39160   -0.22980    0.03540    0.38530    1.10100    1.20200  # hc,c1,c_1,o_1
dihedral_coeff	20 ebt    0.00000    0.00000    0.00000    0.00000    0.00000    0.00000    1.10100    1.36830  # hc,c1,c_1,o_2
dihedral_coeff	21 ebt    0.00000    0.00000    0.00000    0.00000    0.00000    0.00000    0.95200    1.20200  # ho2,o_2,c_1,o_1
dihedral_coeff	22 ebt    0.00000    0.00000    0.00000    0.00000    0.00000    0.00000    1.20200    1.43000  # o_1,c_1,c1,o_2
dihedral_coeff	23 ebt    0.00000    0.00000    0.00000    0.00000    0.00000    0.00000    1.43000    1.36830  # o_2,c1,c_1,o_2

# AngleTorsion Coeffs

dihedral_coeff	 1 at    0.08850   -1.37030   -0.54520    0.67500    0.59650    0.67250  108.52950  123.14510  # c,c,c_1,o_1
dihedral_coeff	 2 at    0.00000    0.00000    0.00000    0.00000    0.00000    0.00000  108.52950  100.31820  # c,c,c_1,o_2
dihedral_coeff	 3 at    0.08850   -1.37030   -0.54520    0.67500    0.59650    0.67250  108.52950  123.14510  # c,c1,c_1,o_1
dihedral_coeff	 4 at    0.00000    0.00000    0.00000    0.00000    0.00000    0.00000  108.52950  100.31820  # c,c1,c_1,o_2
dihedral_coeff	 5 at    0.00000    0.00000    0.00000    0.00000    0.00000    0.00000  107.41000  113.28800  # c,c1,o_2,c_1
dihedral_coeff	 6 at    0.00000    0.00000    0.00000    0.00000    0.00000    0.00000  100.31820  113.28800  # c,c_1,o_2,c1
dihedral_coeff	 7 at    0.00000    0.00000    0.00000    0.00000    0.00000    0.00000  100.31820  113.28800  # c1,c_1,o_2,c1
dihedral_coeff	 8 at    0.00000    0.00000    0.00000    0.00000    0.00000    0.00000  100.31820  112.87400  # c1,c_1,o_2,ho2
dihedral_coeff	 9 at    0.00000    0.00000    0.00000    0.00000    0.00000    0.00000  113.28800  120.79700  # c1,o_2,c_1,o_1
dihedral_coeff	10 at   -0.74660   -0.94480   -0.63210    0.01620    1.42110   -1.40920  108.52950  110.77000  # c_1,c,c,hc
dihedral_coeff	11 at   -0.74660   -0.94480   -0.63210    0.01620    1.42110   -1.40920  108.52950  110.77000  # c_1,c1,c,hc
dihedral_coeff	12 at    0.00000    0.00000    0.00000    0.00000    0.00000    0.00000  109.50000  113.28800  # c_1,c1,o_2,c_1
dihedral_coeff	13 at    0.00000    0.00000    0.00000    0.00000    0.00000    0.00000  113.28800  107.68800  # c_1,o_2,c1,hc
dihedral_coeff	14 at   -0.80850    0.55690   -0.24660   -0.80850    0.55690   -0.24660  110.77000  110.77000  # hc,c,c,hc
dihedral_coeff	15 at   -0.80850    0.55690   -0.24660   -0.80850    0.55690   -0.24660  110.77000  110.77000  # hc,c,c1,hc
dihedral_coeff	16 at    0.00000    0.00000    0.00000    0.00000    0.00000    0.00000  110.77000  107.41000  # hc,c,c1,o_2
dihedral_coeff	17 at    9.12990   -0.48470    0.35820   -1.49460    0.73080   -0.20830  107.73360  123.14510  # hc,c,c_1,o_1
dihedral_coeff	18 at    0.00000    0.00000    0.00000    0.00000    0.00000    0.00000  107.73360  100.31820  # hc,c,c_1,o_2
dihedral_coeff	19 at    9.12990   -0.48470    0.35820   -1.49460    0.73080   -0.20830  107.73360  123.14510  # hc,c1,c_1,o_1
dihedral_coeff	20 at    0.00000    0.00000    0.00000    0.00000    0.00000    0.00000  107.73360  100.31820  # hc,c1,c_1,o_2
dihedral_coeff	21 at    0.00000    0.00000    0.00000    0.00000    0.00000    0.00000  112.87400  120.79700  # ho2,o_2,c_1,o_1
dihedral_coeff	22 at    0.00000    0.00000    0.00000    0.00000    0.00000    0.00000  123.14510  109.50000  # o_1,c_1,c1,o_2
dihedral_coeff	23 at    0.00000    0.00000    0.00000    0.00000    0.00000    0.00000  109.50000  100.31820  # o_2,c1,c_1,o_2

# AngleAngleTorsion Coeffs

dihedral_coeff	 1 aat   -8.01900  108.52950  123.14510  # c,c,c_1,o_1
dihedral_coeff	 2 aat    0.00000  108.52950  100.31820  # c,c,c_1,o_2
dihedral_coeff	 3 aat   -8.01900  108.52950  123.14510  # c,c1,c_1,o_1
dihedral_coeff	 4 aat    0.00000  108.52950  100.31820  # c,c1,c_1,o_2
dihedral_coeff	 5 aat    0.00000  107.41000  113.28800  # c,c1,o_2,c_1
dihedral_coeff	 6 aat    0.00000  100.31820  113.28800  # c,c_1,o_2,c1
dihedral_coeff	 7 aat    0.00000  100.31820  113.28800  # c1,c_1,o_2,c1
dihedral_coeff	 8 aat    0.00000  100.31820  112.87400  # c1,c_1,o_2,ho2
dihedral_coeff	 9 aat    0.00000  113.28800  120.79700  # c1,o_2,c_1,o_1
dihedral_coeff	10 aat   -5.36240  108.52950  110.77000  # c_1,c,c,hc
dihedral_coeff	11 aat   -5.36240  108.52950  110.77000  # c_1,c1,c,hc
dihedral_coeff	12 aat    0.00000  109.50000  113.28800  # c_1,c1,o_2,c_1
dihedral_coeff	13 aat    0.00000  113.28800  107.68800  # c_1,o_2,c1,hc
dihedral_coeff	14 aat  -12.56400  110.77000  110.77000  # hc,c,c,hc
dihedral_coeff	15 aat  -12.56400  110.77000  110.77000  # hc,c,c1,hc
dihedral_coeff	16 aat    0.00000  110.77000  107.41000  # hc,c,c1,o_2
dihedral_coeff	17 aat  -15.34960  107.73360  123.14510  # hc,c,c_1,o_1
dihedral_coeff	18 aat    0.00000  107.73360  100.31820  # hc,c,c_1,o_2
dihedral_coeff	19 aat  -15.34960  107.73360  123.14510  # hc,c1,c_1,o_1
dihedral_coeff	20 aat    0.00000  107.73360  100.31820  # hc,c1,c_1,o_2
dihedral_coeff	21 aat    0.00000  112.87400  120.79700  # ho2,o_2,c_1,o_1
dihedral_coeff	22 aat    0.00000  123.14510  109.50000  # o_1,c_1,c1,o_2
dihedral_coeff	23 aat    0.00000  109.50000  100.31820  # o_2,c1,c_1,o_2

# BondBond13 Coeffs

dihedral_coeff	 1 bb13    0.00000    1.53000    1.20200  # c,c,c_1,o_1
dihedral_coeff	 2 bb13    0.00000    1.53000    1.36830  # c,c,c_1,o_2
dihedral_coeff	 3 bb13    0.00000    1.53000    1.20200  # c,c1,c_1,o_1
dihedral_coeff	 4 bb13    0.00000    1.53000    1.36830  # c,c1,c_1,o_2
dihedral_coeff	 5 bb13    0.00000    1.53000    1.36830  # c,c1,o_2,c_1
dihedral_coeff	 6 bb13    0.00000    1.52020    1.43000  # c,c_1,o_2,c1
dihedral_coeff	 7 bb13    0.00000    1.52020    1.43000  # c1,c_1,o_2,c1
dihedral_coeff	 8 bb13    0.00000    1.52020    0.95200  # c1,c_1,o_2,ho2
dihedral_coeff	 9 bb13    0.00000    1.43000    1.20200  # c1,o_2,c_1,o_1
dihedral_coeff	10 bb13    0.00000    1.52020    1.10100  # c_1,c,c,hc
dihedral_coeff	11 bb13    0.00000    1.52020    1.10100  # c_1,c1,c,hc
dihedral_coeff	12 bb13    0.00000    1.52020    1.36830  # c_1,c1,o_2,c_1
dihedral_coeff	13 bb13    0.00000    1.36830    1.10100  # c_1,o_2,c1,hc
dihedral_coeff	14 bb13    0.00000    1.10100    1.10100  # hc,c,c,hc
dihedral_coeff	15 bb13    0.00000    1.10100    1.10100  # hc,c,c1,hc
dihedral_coeff	16 bb13    0.00000    1.10100    1.43000  # hc,c,c1,o_2
dihedral_coeff	17 bb13    0.00000    1.10100    1.20200  # hc,c,c_1,o_1
dihedral_coeff	18 bb13    0.00000    1.10100    1.36830  # hc,c,c_1,o_2
dihedral_coeff	19 bb13    0.00000    1.10100    1.20200  # hc,c1,c_1,o_1
dihedral_coeff	20 bb13    0.00000    1.10100    1.36830  # hc,c1,c_1,o_2
dihedral_coeff	21 bb13    0.00000    0.95200    1.20200  # ho2,o_2,c_1,o_1
dihedral_coeff	22 bb13    0.00000    1.20200    1.43000  # o_1,c_1,c1,o_2
dihedral_coeff	23 bb13    0.00000    1.43000    1.36830  # o_2,c1,c_1,o_2

# Improper Coeffs

improper_coeff	 1    0.00000    0.00000  # c,c,hc,c_1
improper_coeff	 2    0.00000    0.00000  # c,c,hc,hc
improper_coeff	 3    0.00000    0.00000  # c,c1,hc,hc
improper_coeff	 4    0.00000    0.00000  # c,c_1,hc,hc
improper_coeff	 5    0.00000    0.00000  # c,hc,hc,hc
improper_coeff	 6    0.00000    0.00000  # c1,c,hc,c_1
improper_coeff	 7    0.00000    0.00000  # c1,c,hc,o_2
improper_coeff	 8    0.00000    0.00000  # c1,c,o_2,c_1
improper_coeff	 9    0.00000    0.00000  # c1,c_1,hc,o_2
improper_coeff	10   46.92640    0.00000  # c_1,c,o_2,o_1
improper_coeff	11   46.92640    0.00000  # c_1,c1,o_2,o_1

# AngleAngle Coeffs

improper_coeff	 1 aa    1.08270   -1.82020    2.04030  110.77000  108.52950  107.73360  # c,c,hc,c_1
improper_coeff	 2 aa    0.27380   -0.48250    0.27380  110.77000  110.77000  107.66000  # c,c,hc,hc
improper_coeff	 3 aa    0.27380   -0.48250    0.27380  110.77000  110.77000  107.66000  # c,c1,hc,hc
improper_coeff	 4 aa   -3.38670   -3.49760   -3.38670  107.73360  107.73360  107.66000  # c,c_1,hc,hc
improper_coeff	 5 aa   -0.31570   -0.31570   -0.31570  107.66000  107.66000  107.66000  # c,hc,hc,hc
improper_coeff	 6 aa    1.08270   -1.82020    2.04030  110.77000  108.52950  107.73360  # c1,c,hc,c_1
improper_coeff	 7 aa    0.00000    0.00000    0.00000  110.77000  107.41000  107.68800  # c1,c,hc,o_2
improper_coeff	 8 aa    0.00000    0.00000    0.00000  107.41000  108.52950  109.50000  # c1,c,o_2,c_1
improper_coeff	 9 aa    0.00000    0.00000    0.00000  107.73360  109.50000  107.68800  # c1,c_1,hc,o_2
improper_coeff	10 aa    0.00000    0.00000    0.00000  100.31820  123.14510  120.79700  # c_1,c,o_2,o_1
improper_coeff	11 aa    0.00000    0.00000    0.00000  100.31820  123.14510  120.79700  # c_1,c1,o_2,o_1


# --- Thermo Output ---
thermo_style custom step time temp press enthalpy etotal ke pe ebond eangle edihed eimp evdwl ecoul elong etail vol lx ly lz density pxx pyy pzz
thermo_modify flush yes
thermo 1000

# --- Trajectory ---
dump dump_npt all custom 1000 npt_production.dump id type mol x y z ix iy iz vx vy vz

# --- Restart Checkpointing ---
# No restart checkpointing

# --- Initial Velocities (optional) ---
# Velocities read from data file

# --- SHAKE Constraints ---
# SHAKE disabled

# --- NPT Thermostat + Barostat (Nose-Hoover) ---
# T_damp = 100.0 fs  (heat bath coupling)
# P_damp = 1000.0 fs  (pressure bath coupling, ~10x T_damp typical)
# Ramp: T=620.0->620.0K  P=1.0->1.0atm
timestep 1.0
fix npt_fix all npt temp 620.0 620.0 100.0 iso 1.0 1.0 1000.0

run 500000

CITE-CITE-CITE-CITE-CITE-CITE-CITE-CITE-CITE-CITE-CITE-CITE-CITE

Your simulation uses code contributions which should be cited:

- GPU package (short-range, long-range and three-body potentials): doi:10.1016/j.cpc.2010.12.021, doi:10.1016/j.cpc.2011.10.012, doi:10.1016/j.cpc.2013.08.002, doi:10.1016/j.commatsci.2014.10.068, doi:10.1016/j.cpc.2016.10.020, doi:10.3233/APC200086

@Article{Brown11,
 author = {W. M. Brown and P. Wang and S. J. Plimpton and A. N. Tharrington},
 title = {Implementing Molecular Dynamics on Hybrid High Performance Computers---Short Range Forces},
 journal = {Comput.\ Phys.\ Commun.},
 year =    2011,
 volume =  182,
 pages =   {898--911},
 doi =     {10.1016/j.cpc.2010.12.021}
}

@Article{Brown12,
 author = {W. M. Brown and A. Kohlmeyer and S. J. Plimpton and A. N. Tharrington},
 title = {Implementing Molecular Dynamics on Hybrid High Performance Computers - Particle-Particle Particle-Mesh},
 journal = {Comput.\ Phys.\ Commun.},
 year =    2012,
 volume =  183,
 doi =     {10.1016/j.cpc.2011.10.012},
 pages =   {449--459}
}

@Article{Brown13,
 author = {W. M. Brown and Y. Masako},
 title = {Implementing Molecular Dynamics on Hybrid High Performance Computers---Three-Body Potentials},
 journal = {Comput.\ Phys.\ Commun.},
 year =    2013,
 volume =  184,
 pages =   {2785--2793},
 doi =     {10.1016/j.cpc.2013.08.002},
}

@Article{Trung15,
 author = {T. D. Nguyen and S. J. Plimpton},
 title = {Accelerating Dissipative Particle Dynamics Simulations for Soft Matter Systems},
 journal = {Comput.\ Mater.\ Sci.},
 year =    2015,
 doi =     {10.1016/j.commatsci.2014.10.068},
 volume =  100,
 pages =   {173--180}
}

@Article{Trung17,
 author = {T. D. Nguyen},
 title = {{GPU}-Accelerated {T}ersoff Potentials for Massively Parallel
    Molecular Dynamics Simulations},
 journal = {Comput.\ Phys.\ Commun.},
 year =    2017,
 doi =     {10.1016/j.cpc.2016.10.020},
 volume =  212,
 pages =   {113--122}
}

@inproceedings{Nikolskiy19,
 author = {V. Nikolskiy and V. Stegailov},
 title = {{GPU} Acceleration of Four-Site Water Models in {LAMMPS}},
 booktitle = {Proceedings of the International Conference on Parallel
    Computing (ParCo 2019), Prague, Czech Republic},
 doi =     {10.3233/APC200086},
 year =    2019
}

CITE-CITE-CITE-CITE-CITE-CITE-CITE-CITE-CITE-CITE-CITE-CITE-CITE

PPPM initialization ...
  using 12-bit tables for long-range coulomb
  G vector (1/distance) = 0.34045705
  grid = 45 45 45
  stencil order = 5
  estimated absolute RMS force accuracy = 0.0002787233
  estimated relative force accuracy = 8.3936694e-07
  using double precision KISS FFT
  3d grid and FFT values/proc = 46800 23805
Generated 21 of 21 mixed pair_coeff terms from sixthpower/sixthpower mixing rule
Neighbor list info ...
  update: every = 1 steps, delay = 0 steps, check = yes
  max neighbors/atom: 4000, page size: 100000
  master list distance cutoff = 11.5
  ghost atom cutoff = 11.5
  binsize = 5.75, bins = 7 7 7
  1 neighbor lists, perpetual/occasional/extra = 1 0 0
  (1) pair lj/class2/coul/long/gpu, perpetual
      attributes: full, newton on
      pair build: full/bin
      stencil: full/bin/3d
      bin: standard
Per MPI rank memory allocation (min/avg/max) = 21.82 | 21.91 | 22.01 Mbytes
   Step          Time           Temp          Press         Enthalpy        TotEng         KinEng         PotEng         E_bond        E_angle        E_dihed        E_impro         E_vdwl         E_coul         E_long         E_tail         Volume           Lx             Ly             Lz          Density          Pxx            Pyy            Pzz      
         0   0              633.22053      1498.3373      27172.609      25980.475      8529.6582      17450.817      3947.4903      5582.858      -3627.2411      291.39568     -1798.5846      44765.661     -31710.762     -346.66165      54555.626      37.926827      37.926827      37.926827      1.0973409      1729.7076     -295.23422      3060.5387    
      1000   1000           609.4304      -672.34864      25140.686      25675.248      8209.1985      17466.05       3846.3742      5622.5204     -3609.2121      296.81858     -1751.2535      44774.601     -31713.799     -346.91062      54516.473      37.917752      37.917752      37.917752      1.098129       603.02672     -1541.5703     -1078.5024    
      2000   2000           624.38705      318.36855      26178.426      25929.453      8410.6688      17518.784      4021.288       5527.9657     -3660.8507      294.83921     -1674.2884      44722.993     -31713.163     -352.69499      53622.376      37.709319      37.709319      37.709319      1.1164392      2321.1581     -1901.2645      535.21211    
      3000   3000           615.54449     -625.91934      25031.462      25526.848      8291.557       17235.291      3744.614       5635.0166     -3625.4874      314.72287     -1817.6342      44704.792     -31720.733     -348.49494      54268.632      37.860205      37.860205      37.860205      1.1031441     -2266.8332      590.16611     -201.09089    
      4000   4000           611.67295     -168.61627      25404.376      25536.928      8239.4063      17297.521      3913.934       5462.2614     -3597.1281      320.98655     -1776.0926      44698.721     -31725.161     -350.86109      53902.653      37.774905      37.774905      37.774905      1.1106341     -3058.443       1821.414       731.18019    
      5000   5000           621.06691     -119.57846      25654.969      25748.938      8365.9456      17382.992      3870.6653      5636.0262     -3571.7989      291.43916     -1761.1882      44645.418     -31727.569     -350.98455      53883.692      37.770475      37.770475      37.770475      1.1110249      1078.7777     -270.90251     -1166.6106    
      6000   6000           623.29178      777.72155      26319.619      25705.294      8395.9152      17309.379      3881.8769      5543.6877     -3617.6811      351.94419     -1835.2508      44724.931     -31740.129     -349.17857      54162.383      37.83548       37.83548       37.83548       1.1053081      646.16122     -469.93827      2156.9417    
      7000   7000           609.18295      603.7641       25988.148      25515.698      8205.8653      17309.833      3821.7269      5550.6072     -3604.4753      348.67437     -1752.095       44687.331     -31741.936     -352.47864      53655.289      37.717032      37.717032      37.717032      1.1157543      1658.5053     -270.72366      423.51067    
      8000   8000           612.33433     -799.82173      24891.586      25530.675      8248.3152      17282.36       3893.7062      5584.2237     -3711.8192      331.92068     -1732.4768      44655.342     -31738.537     -345.18614      54788.826      37.98079       37.98079       37.98079       1.0926703     -1481.7102     -548.02164     -369.73337    
      9000   9000           618.16357     -1215.6404      24884.991      25841.124      8326.8367      17514.287      3939.5722      5755.7644     -3670.7495      325.3882      -1734.9641      44628.365     -31729.089     -350.67752      53930.869      37.781495      37.781495      37.781495      1.110053      -2479.7789     -1011.3769     -155.76546    
     10000   10000          614.66663     -960.08793      24946.675      25714.624      8279.732       17434.892      3907.5725      5623.08       -3674.0314      314.33486     -1756.558       44734.857     -31714.363     -344.82564      54846.105      37.994022      37.994022      37.994022      1.0915291     -568.70611     -520.02575     -1791.5319    
     11000   11000          621.33877      1264.3236      26734.738      25733.878      8369.6075      17364.27       3730.3338      5752.0706     -3694.5409      303.37738     -1745.373       44741.7       -31723.298     -348.42216      54279.967      37.86284       37.86284       37.86284       1.1029138     -1201.0116      2832.1664      2161.816     
     12000   12000          616.9596       1360.7636      26779.443      25706.574      8310.619       17395.955      3904.1733      5555.9738     -3666.6992      293.54548     -1651.7462      44687.217     -31726.508     -349.83025      54061.486      37.811972      37.811972      37.811972      1.107371       480.60765      2017.6519      1584.0312    
     13000   13000          633.71117      180.40124      26173.435      26028.398      8536.2673      17492.131      3850.7799      5586.0237     -3567.1351      315.96704     -1706.7072      44734.454     -31721.251     -343.07057      55126.685      38.058701      38.058701      38.058701      1.0859736      1698.6497     -141.07647     -1016.3695    
     14000   14000          628.58656      1968.3618      27342.817      25806.371      8467.2374      17339.134      3743.5064      5519.657      -3587.5132      336.18416     -1715.4298      44772.614     -31729.885     -353.35296      53522.527      37.685898      37.685898      37.685898      1.118522       2219.8371      2099.1308      1586.1174    
     15000   15000          627.25136      545.0024       26384.979      25946.157      8449.2518      17496.906      3918.2739      5600.8434     -3704.9896      350.54112     -1658.2882      44707.283     -31716.758     -342.55583      55209.521      38.077754      38.077754      38.077754      1.0843442     -2193.7301      1484.439       2344.2983    
     16000   16000          621.38254      276.76779      25711.026      25494.16       8370.1971      17123.963      3771.0775      5463.4797     -3655.9093      305.56025     -1763.8557      44727.785     -31724.175     -352.00266      53727.842      37.734025      37.734025      37.734025      1.1142477      834.50089      148.23395     -152.43146    
     17000   17000          607.0906       1518.1117      26799.261      25603.545      8177.6807      17425.864      3926.6511      5656.2461     -3656.9978      291.6792      -1758.2145      44692.843     -31726.343     -350.18451      54006.797      37.799217      37.799217      37.799217      1.1084924      1142.373       1477.3499      1934.6121    
     18000   18000          615.51556      43.702251      25784.854      25750.32       8291.1674      17459.153      3809.6798      5706.872      -3648.6104      314.7925      -1746.1948      44746.112     -31723.498     -349.04255      54183.491      37.840395      37.840395      37.840395      1.1048776     -615.36496     -1603.3621      2349.8338    
     19000   19000          617.06695     -1778.9697      24179.669      25609.98       8312.065       17297.915      3902.1766      5594.769      -3649.1174      300.14592     -1776.6027      44650.548     -31724.004     -343.05137      55129.771      38.059411      38.059411      38.059411      1.0859128     -2446.5333     -2290.9178     -599.45792    
     20000   20000          622.68087      3313.0947      28130.8        25523.694      8387.686       17136.008      3672.0788      5604.1075     -3649.8462      284.29216     -1735.5432      44689.537     -31728.618     -350.50671      53957.151      37.787631      37.787631      37.787631      1.1095123      4512.2943      2581.3334      2845.6565    
     21000   21000          628.9517      -319.08542      25649.163      25905.123      8472.1559      17432.967      3828.6058      5724.8375     -3622.0534      307.91237     -1775.5344      44689.901     -31720.702     -343.83981      55003.356      38.030298      38.030298      38.030298      1.0884085     -1717.7005      2334.8589     -1574.4146    
     22000   22000          616.73651     -380.02112      25118.568      25415.656      8307.6139      17108.043      3768.603       5420.9653     -3620.3661      292.47877     -1805.3595      44757.419     -31705.698     -352.81244      53604.525      37.705134      37.705134      37.705134      1.116811       1300.1789     -1188.4456     -1251.7967    
     23000   23000          622.37167      442.90954      26183.499      25832.111      8383.521       17448.59       3861.1327      5661.8878     -3675.5514      308.5495      -1674.2504      44690.047     -31723.225     -347.65535      54399.691      37.890658      37.890658      37.890658      1.1004864      1547.1628     -1112.3657      893.93148    
     24000   24000          613.75807     -549.80253      25213.219      25646.132      8267.4935      17378.639      3976.8798      5472.3275     -3599.774       332.96623     -1752.8806      44669.514     -31720.394     -350.28953      53990.604      37.795439      37.795439      37.795439      1.1088248     -1828.0124      490.1259      -311.52113    
     25000   25000          619.40867      180.63703      25856.005      25712.708      8343.6086      17369.1        3931.3053      5499.6735     -3608.3713      303.30578     -1713.256       44676.932     -31720.49      -347.68944      54394.357      37.889419      37.889419      37.889419      1.1005944      1443.6246     -300.97967     -600.73387    
     26000   26000          622.13306      2126.7775      27386.036      25714.486      8380.3069      17334.179      3792.8012      5692.013      -3666.1237      267.58986     -1755.1488      44717.121     -31714.073     -350.93286      53891.629      37.77233       37.77233       37.77233       1.1108612      3308.8854      1508.6502      1562.7969    
     27000   27000          614.25765      539.93969      25883.194      25457.807      8274.2229      17183.584      3846.2964      5530.9921     -3709.9344      291.95524     -1693.8235      44630.903     -31712.805     -350.09153      54021.14       37.802563      37.802563      37.802563      1.1081981      1837.1008     -1879.7548      1662.4731    
     28000   28000          627.72723     -1247.9748      24858.973      25856.289      8455.6619      17400.627      3978.9346      5527.36       -3680.809       317.93759     -1677.0718      44658.824     -31724.548     -345.13899      54796.311      37.98252       37.98252       37.98252       1.092521       110.14355     -2762.922      -1091.1459    
     29000   29000          616.71672     -792.9583       24854.721      25478.729      8307.3472      17171.381      3726.8557      5594.6178     -3672.6147      303.49578     -1768.4711      44708.524     -31721.026     -350.49491      53958.968      37.788055      37.788055      37.788055      1.1094749     -211.62992     -2030.6689     -136.57603    
     30000   30000          629.35467     -520.26422      25436.12       25852.973      8477.584       17375.389      4075.2699      5509.3263     -3731.2748      325.94999     -1717.4974      44639.502     -31725.887     -344.24067      54939.306      38.015531      38.015531      38.015531      1.0896774     -749.89998      786.37633     -1597.269     
     31000   31000          615.27707      1009.1712      26120.44       25323.76       8287.9548      17035.805      3751.5893      5476.9878     -3689.162       319.02159     -1807.9111      44716.311     -31731.032     -349.38309      54130.678      37.828097      37.828097      37.828097      1.1059555     -834.67787      2083.9047      1778.2868    
     32000   32000          622.45473      353.37014      25910.82       25630.603      8384.6398      17245.964      3832.0972      5527.3717     -3661.7191      284.73942     -1741.2303      44726.523     -31721.818     -347.82207      54373.615      37.884603      37.884603      37.884603      1.1010142     -1213.883       2050.4004      223.59306    
     33000   33000          628.98165     -1192.6563      24924.194      25867.909      8472.5593      17395.35       3850.6954      5693.8317     -3593.706       293.24515     -1820.2749      44679.448     -31707.889     -348.57461      54256.228      37.85732       37.85732       37.85732       1.1033963     -435.24858     -833.19522     -2309.5251    
     34000   34000          614.34381      1499.7766      26979.12       25791.29       8275.3835      17515.907      3868.6555      5655.9029     -3577.7431      282.44915     -1726.2032      44721.16      -31708.315     -348.25194      54306.499      37.869008      37.869008      37.869008      1.1023749     -290.34796      2713.038       2076.6397    
     35000   35000          620.36691      1496.8864      26907.268      25707.74       8356.5164      17351.223      3750.7482      5578.393      -3567.1726      267.2511      -1659.0203      44705.936     -31724.912     -344.19111      54947.217      38.017355      38.017355      38.017355      1.0895206     -243.80455      1045.7857      3688.6782    
     36000   36000          622.87649     -375.12349      25688.726      25987.709      8390.3211      17597.388      3825.5003      5640.8203     -3568.8596      325.2615      -1663.6734      44738.859     -31700.52      -346.0587       54650.681      37.948842      37.948842      37.948842      1.0954323     -427.92826      986.2874      -1683.7296    
     37000   37000          617.84191     -357.34568      25408.104      25692.374      8322.504       17369.87       3831.2105      5516.8854     -3609.7022      290.26984     -1651.5836      44705.514     -31712.724     -346.72088      54546.307      37.924668      37.924668      37.924668      1.0975284     -1889.9051      1004.9622     -187.09421    
     38000   38000          616.79293      76.452969      25801.596      25741.069      8308.3739      17432.695      3817.5221      5652.9543     -3540.6641      334.44237     -1789.0545      44687.37      -31729.876     -348.39138      54284.764      37.863956      37.863956      37.863956      1.1028163      476.12686     -187.4787      -59.289254    
     39000   39000          614.094        190.74189      25962.96       25809.429      8272.0185      17537.411      3831.9789      5551.8377     -3549.8986      307.11457     -1662.0846      44774.356     -31715.893     -342.66696      55191.617      38.073638      38.073638      38.073638      1.0846959     -1657.116       40.956322      2188.3854    
     40000   40000          612.67152      3129.8845      28096.242      25610.495      8252.8573      17357.637      3762.2414      5546.1044     -3596.9561      278.20299     -1669.4059      44748.425     -31710.975     -347.29015      54456.896      37.903935      37.903935      37.903935      1.0993304      3531.0741      1753.7147      4104.8646    
     41000   41000          623.39297     -97.12357       25624.788      25702.304      8397.2782      17305.026      3897.5348      5510.6063     -3659.1414      325.51912     -1755.375       44698.633     -31712.751     -345.58755      54725.187      37.966079      37.966079      37.966079      1.0939409      940.29872     -2958.3121      1726.6427    
     42000   42000          620.2106       199.13388      25865.338      25705.991      8354.4108      17351.58       3832.3112      5484.7422     -3578.4955      313.45619     -1669.9745      44694.169     -31724.628     -344.68483      54868.511      37.999195      37.999195      37.999195      1.0910834      1448.4624      2195.3184     -3046.3792    
     43000   43000          620.13892      188.93887      25924.352      25774.855      8353.4453      17421.41       3778.7292      5579.9066     -3563.1052      314.44688     -1725.4708      44759.422     -31722.519     -348.58651      54254.375      37.856889      37.856889      37.856889      1.103434       738.35199     -213.13492      41.599547    
     44000   44000          622.7054       1523.6028      27172.027      25963.505      8388.0164      17575.489      4044.7089      5557.293      -3630.8877      323.51356     -1670.3323      44677.618     -31726.424     -347.72708      54388.468      37.888052      37.888052      37.888052      1.1007135      570.39647      3253.6177      746.7943     
     45000   45000          619.11511     -278.02655      25455.411      25675.177      8339.6542      17335.523      3879.8057      5562.6538     -3578.6728      316.09704     -1810.6887      44685.628     -31719.301     -348.9368       54199.91       37.844217      37.844217      37.844217      1.1045428     -210.32763     -881.56616      257.81414    
     46000   46000          620.34028     -1038.9263      25096.273      25935.946      8356.1577      17579.789      4010.9095      5576.7427     -3587.7075      308.02497     -1735.4766      44729.476     -31722.18      -341.26812      55417.844      38.125587      38.125587      38.125587      1.080268      -2780.639      -971.68798      635.5479     
     47000   47000          610.6442       177.85103      25533.424      25393.409      8225.5487      17167.86       3700.6416      5497.1431     -3551.9613      314.16944     -1753.834       44687.885     -31726.184     -350.35078      53981.166      37.793237      37.793237      37.793237      1.1090187      1420.7721      153.20286     -1040.4218    
     48000   48000          636.736        146.67978      25977.215      25859.628      8577.0125      17282.615      3765.662       5589.6505     -3666.7558      292.69103     -1691.4363      44717.441     -31724.637     -344.05646      54968.721      38.022314      38.022314      38.022314      1.0890943      1074.3054     -968.32501      334.05894    
     49000   49000          610.10323      209.25861      25694.997      25529.424      8218.2617      17311.162      3803.4342      5529.9238     -3663.1019      292.03753     -1636.483       44722.017     -31736.666     -348.58981      54253.861      37.856769      37.856769      37.856769      1.1034445     -3255.8323      1724.8579      2158.7502    
     50000   50000          625.45386      1602.1668      27157.686      25862.618      8425.039       17437.579      3765.1817      5531.2276     -3621.5866      317.42738     -1591.7206      44749.768     -31712.718     -341.22167      55425.389      38.127317      38.127317      38.127317      1.0801209      137.64368      2714.7952      1954.0615    
     51000   51000          624.12626     -212.81133      25469.953      25640.393      8407.1559      17233.237      3829.953       5450.3537     -3631.5809      308.53381     -1727.6826      44724.025     -31720.365     -344.38602      54916.118      38.010182      38.010182      38.010182      1.0901375      19.910409      231.74072     -890.0851     
     52000   52000          611.75222      142.43004      25776.464      25662.681      8240.474       17422.207      3833.3923      5500.8887     -3626.0002      287.4439      -1612.5865      44761.11      -31722.042     -345.26096      54776.954      37.978047      37.978047      37.978047      1.0929071     -2228.7491     -1686.3175      4342.3568    
     53000   53000          616.73225     -1264.4907      24742.683      25752.629      8307.5564      17445.073      3741.0077      5540.6936     -3553.3447      350.4734      -1685.3813      44759.717     -31708.093     -345.33342      54765.46       37.97539       37.97539       37.97539       1.0931365     -1143.7273     -1349.4232     -1300.3218    
     54000   54000          616.04796      1399.7066      26845.959      25737.492      8298.3389      17439.153      3887.4087      5615.4587     -3584.5189      267.02276     -1743.4884      44727.18      -31729.909     -348.28578      54301.222      37.867782      37.867782      37.867782      1.102482       456.17167      4536.6988     -793.75058    
     55000   55000          616.73886      108.1017       25695.742      25608.569      8307.6455      17300.924      3745.2156      5566.9653     -3642.9439      282.27791     -1694.2489      44764.771     -31721.113     -342.03782      55293.136      38.096967      38.096967      38.096967      1.0827044     -405.41752     -2360.1842      3089.9068    
     56000   56000          605.81762     -355.93488      25344.465      25626.059      8160.5333      17465.526      3823.7958      5631.9601     -3530.7229      290.66863     -1750.0194      44704.705     -31704.862     -348.63263      54247.198      37.85522       37.85522       37.85522       1.10358        377.59605      2348.1084     -3793.509     
     57000   57000          641.26153     -664.60112      25562.399      26093.548      8637.9727      17455.575      3763.8527      5655.5417     -3635.3827      297.31508     -1668.2551      44758.111     -31715.607     -345.1167       54799.85       37.983338      37.983338      37.983338      1.0924505     -3263.0973      1704.0914     -434.79744    
     58000   58000          620.82378      2130.1769      27532.743      25843.588      8362.6705      17480.918      3816.1103      5542.57       -3613.23        306.63212     -1580.405       44727.637     -31718.397     -347.8304       54372.313      37.8843        37.8843        37.8843        1.1010406     -498.04004      2614.7131      4273.8577    
     59000   59000          608.75506      528.22422      26074.328      25658.536      8200.1015      17458.434      3861.0295      5544.3347     -3556.3025      312.22225     -1714.3144      44730.169     -31718.704     -350.39889      53973.755      37.791507      37.791507      37.791507      1.109171      -1165.6508      602.63405      2147.6894    
     60000   60000          623.861        217.73879      25901.999      25726.589      8403.5828      17323.007      3896.8425      5377.526      -3651.0631      319.5713      -1658.5408      44746.404     -31707.734     -342.37599      55238.522      38.08442       38.08442       38.08442       1.0837749     -1267.8106      609.24524      1311.7817    
     61000   61000          611.04323     -547.25558      25235.034      25668.113      8230.9238      17437.19       3772.2113      5672.7532     -3558.549       299.64758     -1771.4726      44740.966     -31718.367     -348.53321      54262.673      37.858819      37.858819      37.858819      1.1032653     -1491.851       1121.323      -1271.2387    
     62000   62000          630.0358      -707.87237      25214.615      25782.385      8486.759       17295.626      3804.8648      5534.6775     -3608.7025      321.7802      -1734.7291      44687.723     -31709.989     -343.87798      54997.251      38.028891      38.028891      38.028891      1.0885294     -1453.9169     -898.05197      228.35175    
     63000   63000          604.56233      24.884987      25577.593      25557.695      8143.6242      17414.071      3891.0308      5591.001      -3610.5737      292.74111     -1779.675       44733.065     -31703.518     -344.95264      54825.913      37.989358      37.989358      37.989358      1.0919311     -1906.0766     -1165.4286      3146.1602    
     64000   64000          619.88216     -32.244526      25738.892      25764.724      8349.9867      17414.738      3837.273       5538.2249     -3601.9249      277.85165     -1679.6946      44746.584     -31703.576     -344.28674      54931.953      38.013835      38.013835      38.013835      1.0898233     -772.28337      30.24849       645.3013     
     65000   65000          622.98646     -780.66928      25297.187      25920.444      8391.8024      17528.641      3899.497       5650.9659     -3501.7422      285.5945      -1775.8664      44690.001     -31719.809     -345.47858      54742.449      37.970071      37.970071      37.970071      1.093596      -802.98085      644.02994     -2183.0569    
     66000   66000          616.43672     -186.26861      25604.34       25752.871      8303.5756      17449.296      3695.1884      5662.6849     -3493.1116      327.51699     -1779.065       44746.873     -31710.791     -345.89373      54676.745      37.954874      37.954874      37.954874      1.0949101      2660.8021     -1292.586      -1927.0219    
     67000   67000          618.82995      111.39789      26000.711      25911.866      8335.8131      17576.053      3868.0209      5575.5324     -3585.3259      326.27527     -1623.0411      44723.595     -31709.004     -345.83393      54686.2        37.957061      37.957061      37.957061      1.0947208     -110.66483     -195.06999      639.9285     
     68000   68000          605.87435     -703.91026      24978.908      25549.183      8161.2975      17387.886      3783.4136      5492.6914     -3565.751       304.43574     -1682.335       44766.386     -31710.955     -340.45055      55550.926      38.156081      38.156081      38.156081      1.07768       -1632.8295     -1614.6365      1135.7352    
     69000   69000          624.36228     -897.47821      25191.942      25914.968      8410.3351      17504.633      3819.1222      5586.4757     -3614.9663      303.62722     -1602.0591      44715.033     -31702.6       -342.36665      55240.028      38.084767      38.084767      38.084767      1.0837453     -2977.319      -164.09823      448.98262    
     70000   70000          618.96983     -880.7038       25035.77       25752.164      8337.6973      17414.467      3820.0496      5560.4919     -3657.0992      259.76205     -1612.0127      44748.798     -31705.523     -339.07771      55775.838      38.207507      38.207507      38.207507      1.0733343     -2230.371      -470.28646      58.546039    
     71000   71000          615.36524      647.87396      26357.512      25838.074      8289.1425      17548.931      3880.2679      5650.5473     -3601.5692      279.93136     -1680.2589      44719.298     -31699.285     -344.01529      54975.299      38.023831      38.023831      38.023831      1.088964       976.75273      1011.6034     -44.734271    
     72000   72000          625.18179     -799.03235      25177.939      25831.483      8421.3742      17410.109      3828.0324      5539.6562     -3678.254       282.40722     -1539.7223      44685.649     -31707.66      -337.21788      56083.454      38.277619      38.277619      38.277619      1.0674471     -84.138269     -3138.5464      825.58758    
     73000   73000          610.18031     -1006.7924      25159.476      25960.656      8219.3         17741.356      3892.3756      5699.7196     -3460.1688      314.89876     -1765.7924      44757.374     -31697.051     -346.60176      54565.053      37.929012      37.929012      37.929012      1.0971514     -860.20575     -1441.5287     -718.64286    
     74000   74000          609.61561      0.45204468     25779.375      25779.007      8211.6933      17567.314      3814.6655      5633.9934     -3573.0972      289.63416     -1574.7333      44685.113     -31708.262     -338.82275      55817.808      38.217088      38.217088      38.217088      1.0725273     -1573.8723      376.41338      1198.815     
     75000   75000          619.55526     -673.22436      25406.08       25950.825      8345.5832      17605.242      3967.5629      5656.4671     -3642.4964      288.69291     -1632.9974      44697.973     -31729.96      -340.86928      55482.686      38.140451      38.140451      38.140451      1.0790055      1133.9526      224.73716     -3378.3629    
     76000   76000          616.35979      44.248795      25671.938      25636.761      8302.5393      17334.222      3753.9285      5508.8312     -3643.5295      280.7445      -1684.3348      44811.166     -31692.584     -346.94835      54510.545      37.916378      37.916378      37.916378      1.0982485     -2228.5981      556.62077      1804.7237    
     77000   77000          618.25814      1319.3977      27175.075      26107.407      8328.1106      17779.296      3913.9062      5749.9504     -3592.6624      319.09245     -1671.7733      44757.43      -31696.647     -340.84805      55486.142      38.141243      38.141243      38.141243      1.0789383      438.13209      4595.2048     -1075.1437    
     78000   78000          622.7922       1773.87        27222.889      25803.081      8389.1857      17413.895      3887.586       5517.4284     -3688.3422      306.11338     -1674.4926      44764.61      -31699.007     -344.59861      54882.24       38.002364      38.002364      38.002364      1.0908105      1103.889       1909.3191      2308.4019    
     79000   79000          615.0928       875.62735      26376.673      25679.4        8285.4726      17393.927      3858.816       5542.8701     -3629.1963      324.35844     -1716.1477      44714.901     -31701.674     -346.36793      54601.889      37.937545      37.937545      37.937545      1.0964112      2110.4954     -2150.3536      2666.7402    
     80000   80000          625.26409      697.6721       26555.205      25996.575      8422.4827      17574.093      3924.2899      5585.3865     -3641.8405      285.9452      -1622.5494      44757.217     -31714.356     -344.46768      54903.1        38.007178      38.007178      38.007178      1.090396      -160.43972      3199.0357     -945.57969    
     81000   81000          604.64184      1483.2873      26873.17       25684.483      8144.6952      17539.788      3897.0431      5586.5339     -3622.508       330.61188     -1669.8213      44711.488     -31693.56      -344.17463      54949.847      38.017962      38.017962      38.017962      1.0894684      1978.912       1021.9058      1449.0441    
     82000   82000          621.09133      859.15607      26327.129      25647.121      8366.2746      17280.847      3676.9242      5582.6038     -3591.4795      296.41449     -1721.7388      44753.992     -31715.87      -348.48129      54270.758      37.860699      37.860699      37.860699      1.1031009      593.59547     -567.82478      2551.6975    
     83000   83000          615.74521      154.08248      25921.332      25798.239      8294.2608      17503.978      3846.4078      5506.812      -3615.3052      325.18419     -1619.4234      44777.148     -31716.845     -345.25589      54777.757      37.978233      37.978233      37.978233      1.0928911      578.07923     -1325.8339      1210.0021    
     84000   84000          627.23873      2346.4488      27832.604      25970.29       8449.0818      17521.209      3908.2557      5703.8423     -3643.4148      282.26367     -1680.7735      44659.294     -31708.258     -347.51983      54420.905      37.895582      37.895582      37.895582      1.1000575      1966.9752      3146.6492      1925.7219    
     85000   85000          625.67743      354.4185       26058.015      25778.107      8428.0505      17350.056      3871.6947      5561.6029     -3661.9454      312.54172     -1739.1787      44717.774     -31712.432     -349.23894      54153.02       37.8333        37.8333        37.8333        1.1054992      424.34149      595.46013      43.453865    
     86000   86000          624.74069      758.30393      26273.561      25675.716      8415.4324      17260.284      3762.4905      5611.9826     -3650.8451      297.69974     -1766.058       44722.658     -31717.644     -349.84501      54059.206      37.81144       37.81144       37.81144       1.1074177      689.18547      1081.1587      504.56759    
     87000   87000          613.50205      158.56129      25829.173      25702.829      8264.0448      17438.784      3859.2133      5566.801      -3638.063       292.69033     -1656.516       44719.835     -31705.176     -346.14874      54636.465      37.945551      37.945551      37.945551      1.0957173     -1738.6688      191.82226      2022.5304    
     88000   88000          623.02519     -355.17581      25724.653      26006.06       8392.3242      17613.735      3903.4757      5657.3594     -3583.4648      325.58498     -1714.7743      44737.008     -31711.454     -348.12155      54326.838      37.873736      37.873736      37.873736      1.1019622      373.63056      1274.3021     -2713.4601    
     89000   89000          618.4504       1085.6076      26632.778      25761.433      8330.7004      17430.733      3859.7404      5712.5479     -3724.8093      305.33456     -1680.0615      44668.708     -31710.727     -343.64034      55035.283      38.037655      38.037655      38.037655      1.0877771      1400.1014      238.57277      1618.1485    
     90000   90000          613.17533      245.3686       25800.753      25608.721      8259.6437      17349.077      3877.0346      5545.6723     -3623.3803      292.37229     -1822.5551      44794.629     -31714.695     -352.42439      53663.549      37.718967      37.718967      37.718967      1.1155826      1048.0336      114.85857     -426.78636    
     91000   91000          623.4346       38.61605       25996.143      25965.266      8397.8391      17567.426      3926.586       5643.4776     -3595.0384      279.37732     -1719.2738      44749.03      -31716.732     -344.93829      54828.194      37.989885      37.989885      37.989885      1.0918857     -781.19004     -676.09474      1573.1329    
     92000   92000          617.83384     -543.06595      25387.285      25824.611      8322.3952      17502.215      4036.4203      5577.7072     -3649.1026      294.17976     -1725.9914      44684.126     -31715.124     -342.50627      55217.51       38.079591      38.079591      38.079591      1.0841873     -883.87709     -585.37162     -159.94913    
     93000   93000          620.8289      -942.56835      25233.915      25990.508      8362.7394      17627.768      3959.4622      5598.7747     -3627.5666      301.33156     -1623.6338      44720.934     -31701.534     -343.61482      55039.37       38.038597      38.038597      38.038597      1.0876964     -2412.979      -979.51346      564.78744    
     94000   94000          622.83269      106.67737      25844.364      25760.292      8389.7312      17370.561      3835.6668      5472.3123     -3575.7069      302.78807     -1674.0437      44710.408     -31700.864     -349.97984      54038.379      37.806584      37.806584      37.806584      1.1078445     -1518.2633      616.76366      1221.5317    
     95000   95000          620.73458      888.98044      26620.48       25900.476      8361.4689      17539.007      3712.4171      5588.2506     -3519.3481      326.88614     -1635.5469      44771.887     -31705.539     -340.54836      55534.971      38.152428      38.152428      38.152428      1.0779896      2606.6799      547.99821     -487.73676    
     96000   96000          616.34351      1516.0015      27058.344      25837.962      8302.32        17535.642      3828.8549      5642.7052     -3563.4947      278.70019     -1678.4575      44722.903     -31695.568     -342.62985      55197.593      38.075012      38.075012      38.075012      1.0845785      1769.0013      2199.2445      579.75864    
     97000   97000          619.11519      2294.54        27426.095      25613.366      8339.6553      17273.71       3788.918       5556.5408     -3659.0574      303.83198     -1729.7665      44735.4       -31722.157     -349.12733      54170.332      37.837331      37.837331      37.837331      1.1051459      3167.4584      1799.7319      1916.4298    
     98000   98000          625.7545       123.49861      26011.763      25913.356      8429.0888      17484.267      3869.6642      5636.4981     -3599.6341      300.41339     -1698.402       44693.858     -31718.13      -346.14507      54637.044      37.945685      37.945685      37.945685      1.0957057     -270.31211     -2.9546381      643.76257    
     99000   99000          626.29524     -1286.6319      25005.199      26031.778      8436.3727      17595.405      3875.6826      5650.6782     -3528.2415      295.296       -1661.2324      44680.911     -31717.688     -345.68708      54709.431      37.962435      37.962435      37.962435      1.094256      -1220.2146     -2970.0643      330.38306    
    100000   100000         620.22259     -587.09808      25399.315      25867.461      8354.5723      17512.889      3905.0055      5565.7668     -3564.8389      302.30658     -1704.9879      44722.558     -31712.921     -345.90018      54675.725      37.954638      37.954638      37.954638      1.0949306     -1844.8096     -1247.5875      1331.1028    
    101000   101000         621.33867     -1193.6251      24883.396      25843.96       8369.6062      17474.354      3914.4813      5465.5767     -3530.337       292.55716     -1691.5854      44743.97      -31720.309     -342.73856      55180.086      38.070986      38.070986      38.070986      1.0849226      1574.8365     -5322.5605      166.84867    
    102000   102000         617.25801      849.85757      26478.343      25800.349      8314.6386      17485.71       3831.8907      5636.6422     -3578.6393      305.94        -1648.6251      44663.841     -31725.339     -345.73333      54702.113      37.960743      37.960743      37.960743      1.0944024      2204.2229     -1428.5448      1773.8947    
    103000   103000         610.53698      212.52325      25812.211      25642.646      8224.1045      17418.542      3793.1393      5631.1095     -3604.7665      309.49857     -1761.1918      44748.499     -31697.747     -345.69451      54708.255      37.962163      37.962163      37.962163      1.0942795      994.85088      568.77699     -926.05813    
    104000   104000         616.88069     -714.62771      25341.374      25913.355      8309.5561      17603.799      3953.2022      5526.617      -3568.3518      289.58862     -1582.2068      44694.064     -31709.114     -344.60343      54881.471      38.002186      38.002186      38.002186      1.0908258      409.5625      -2377.4354     -176.01023    
    105000   105000         609.01097      867.06082      26288.266      25593.203      8203.5487      17389.654      3753.2304      5520.9045     -3523.7684      323.51266     -1666.3757      44686.964     -31704.813     -344.06949      54966.639      38.021834      38.021834      38.021834      1.0891356      3409.8918      172.06498     -980.77432    
    106000   106000         623.37485     -733.24565      25209.739      25790.662      8397.0341      17393.628      3808.1731      5523.9751     -3587.6463      318.05763     -1639.3245      44670.358     -31699.966     -348.13874      54324.157      37.873113      37.873113      37.873113      1.1020166     -974.1929       256.55226     -1482.0963    
    107000   107000         629.21851     -702.74039      25479.173      26044.496      8475.75        17568.746      3759.4482      5652.7538     -3524.5219      327.76013     -1680.4082      44732.097     -31698.383     -342.86218      55160.191      38.06641       38.06641       38.06641       1.0853139     -908.77639     -514.48556     -684.95923    
    108000   108000         624.28118     -1143.8608      25031.828      25950.649      8409.2426      17541.407      3834.7148      5583.1872     -3578.3215      312.30875     -1640.5219      44737.873     -31707.834     -343.37097      55078.458      38.047599      38.047599      38.047599      1.0869244     -793.64945      805.77056     -3443.7036    
    109000   109000         619.2025       582.16227      26150.497      25686.428      8340.8314      17345.597      3813.206       5523.1699     -3630.3634      327.29259     -1671.1781      44692.19      -31708.72      -346.00571      54659.05       37.950779      37.950779      37.950779      1.0952646      506.42411      806.54926      433.51345    
    110000   110000         623.48812     -98.601282      25705.537      25783.096      8398.5599      17384.536      3690.855       5604.9862     -3519.0129      325.76479     -1754.6101      44753.909     -31717.356     -350.64504      53935.865      37.782662      37.782662      37.782662      1.1099502     -1349.2542      1050.4221      3.0282579    
    111000   111000         625.87511     -824.86355      25242.712      25902.685      8430.7134      17471.971      3813.8796      5554.8984     -3543.4656      314.74032     -1729.4544      44758.925     -31697.552     -344.7286       54861.544      37.997586      37.997586      37.997586      1.091222      -2972.5271      1535.7546     -1037.8182    
    112000   112000         605.76676      960.14595      26415.066      25649.964      8159.8483      17490.116      3884.3141      5650.9832     -3541.5173      295.72549     -1803.2609      44701.432     -31697.561     -346.12973      54639.465      37.946246      37.946246      37.946246      1.0956572      2181.9341      239.99013      458.51367    
    113000   113000         616.74196      51.670226      25824.88       25784.282      8307.6873      17476.595      3754.7455      5624.8927     -3502.3749      337.35111     -1747.5411      44724.183     -31714.661     -351.04224      53874.837      37.768406      37.768406      37.768406      1.1112075      892.04616     -523.15364     -213.88184    
    114000   114000         622.08283      559.67291      26334.12       25884.881      8379.6303      17505.25       3857.491       5516.7174     -3519.7404      291.52837     -1718.5564      44776.766     -31698.955     -343.6195       55038.62       38.038424      38.038424      38.038424      1.0877112     -751.54957      2166.4295      264.13879    
    115000   115000         618.69764     -194.96771      25670.65       25824.733      8334.0308      17490.702      3855.6147      5594.1054     -3544.6792      310.462       -1754.0865      44727.838     -31698.553     -349.00328      54189.587      37.841814      37.841814      37.841814      1.1047532     -1161.3023     -974.82306      1551.2223    
    116000   116000         617.34394      619.51298      26357.947      25862.27       8315.7962      17546.473      3845.3167      5597.3393     -3530.8291      297.07941     -1691.3144      44729.357     -31700.475     -344.72509      54862.103      37.997715      37.997715      37.997715      1.0912109      850.26876      937.5875       70.682658    
    117000   117000         611.54262     -1999.7362      24092.915      25688.395      8237.6507      17450.744      3898.4413      5671.5482     -3537.688       300.33558     -1816.1468      44649.299     -31715.045     -345.70262      54706.971      37.961867      37.961867      37.961867      1.0943052     -4171.4729      927.67451     -2755.4103    
    118000   118000         619.36148     -819.31597      25239.104      25889.253      8342.973       17546.28       3944.4783      5585.676      -3592.7847      310.82543     -1769.1262      44772.718     -31705.507     -347.58404      54410.851      37.893249      37.893249      37.893249      1.1002607     -766.74522     -837.3641      -853.83858    
    119000   119000         617.28536     -1822.4032      24198.895      25642.763      8315.0071      17327.756      3727.6475      5474.7245     -3502.676       347.43028     -1748.5852      44737.58      -31708.365     -348.12747      54325.916      37.873521      37.873521      37.873521      1.1019809     -1623.1629     -2094.5056     -1749.5411    
    120000   120000         622.8649       1057.3072      26939.988      26098.78       8390.165       17708.615      3906.4169      5732.3994     -3454.6806      321.40866     -1765.6816      44684.149     -31715.397     -346.67213      54553.978      37.926445      37.926445      37.926445      1.0973741      1163.3429     -529.2841       2537.8629    
    121000   121000         619.46606     -191.4243       25696.932      25850.847      8344.3817      17506.465      3829.9249      5568.8769     -3489.2079      281.79121     -1753.0039      44768.469     -31700.385     -343.03481      55132.432      38.060023      38.060023      38.060023      1.0858604      323.11653     -889.1529      -8.2365335    
    122000   122000         603.81506      495.11319      26089.257      25694.425      8133.5583      17560.867      3818.0006      5648.365      -3596.4854      309.28993     -1683.3435      44775.383     -31710.343     -345.87104      54680.333      37.955704      37.955704      37.955704      1.0948383      1373.765       1244.777      -1133.2024    
    123000   123000         609.71361     -647.19309      25290.442      25813.797      8213.0134      17600.783      4001.611       5590.4893     -3651.5167      308.8336      -1669.0891      44721.021     -31700.566     -341.08213      55448.063      38.132516      38.132516      38.132516      1.0796792     -995.29191      65.547984     -1011.8353    
    124000   124000         628.03916      56.880581      26075.07       26029.854      8459.8637      17569.99       3954.6726      5628.9573     -3618.6193      321.02014     -1780.3874      44761.475     -31697.128     -346.96661      54507.675      37.915712      37.915712      37.915712      1.0983063     -269.27136      1652.3125     -1212.3994    
    125000   125000         621.5862       745.63202      26390.756      25792.057      8372.9405      17419.117      3698.0392      5526.9492     -3571.9619      362.6808      -1653.5216      44758.641     -31701.711     -343.5082       55056.454      38.042532      38.042532      38.042532      1.0873588      2260.5081     -1470.8108      1447.1988    
    126000   126000         620.57253      2.0117249      25815.642      25814.022      8359.2861      17454.736      3816.7315      5566.0659     -3595.8982      288.04746     -1709.7782      44786.298     -31696.73      -342.48146      55221.51       38.08051       38.08051       38.08051       1.0841088     -754.22465      654.86629      105.39354    
    127000   127000         634.49197      2242.3162      27897.204      26089.987      8546.7849      17543.202      3863.5875      5504.5597     -3612.9688      302.22053     -1581.6758      44767.416     -31699.936     -342.22187      55263.398      38.090137      38.090137      38.090137      1.083287       1517.9964      2319.35        2889.6022    
    128000   128000         605.40687      120.19914      25658.07       25561.327      8155.0005      17406.327      3735.7949      5594.5256     -3606.3666      281.61772     -1663.526       44758.403     -31694.122     -342.69155      55187.656      38.072727      38.072727      38.072727      1.0847738     -94.450631     -1429.5177      1884.5657    
    129000   129000         627.64615     -972.85299      25106.878      25881.756      8454.5698      17427.186      3727.6282      5668.7111     -3551.21        284.46734     -1745.6417      44758.25      -31715.019     -346.28608      54614.795      37.940534      37.940534      37.940534      1.0961521      1240.9302     -1689.3382     -2470.1509    
    130000   130000         617.54059     -3435.0097      23189.467      25958.782      8318.4451      17640.337      3894.6363      5705.204      -3551.1939      313.19886     -1701.7522      44685.127     -31704.883     -342.11868      55280.067      38.093966      38.093966      38.093966      1.0829604     -3004.0046     -3299.9238     -4001.1005    
    131000   131000         609.44965      565.39822      26142.542      25692.98       8209.4577      17483.522      3777.8005      5667.2056     -3508.5735      267.52584     -1724.4146      44724.38      -31720.401     -346.88529      54520.453      37.918675      37.918675      37.918675      1.0980489     -1968.6133      1820.5048      1844.3031    
    132000   132000         606.54394     -2.1151594      25763.936      25765.64       8170.3171      17595.323      3825.0581      5679.0588     -3599.0914      341.4551      -1682.7572      44746.528     -31714.928     -342.35644      55241.675      38.085145      38.085145      38.085145      1.083713       14.172885     -1435.5981      1415.0797    
    133000   133000         632.55605      1876.7559      27506.594      26021.122      8520.7075      17500.415      3935.8084      5541.6004     -3582.1758      308.30163     -1736.4768      44738.312     -31704.955     -348.46928      54272.627      37.861134      37.861134      37.861134      1.1030629      1658.9002      2539.193       1432.1745    
    134000   134000         628.718       -1084.2326      25082.486      25944.914      8469.0078      17475.906      4017.7037      5483.9037     -3658.6909      353.19685     -1815.3156      44798.795     -31703.687     -346.75382      54541.124      37.923467      37.923467      37.923467      1.0976327     -2119.5467     -3606.0448      2472.8938    
    135000   135000         618.40785      580.94662      26230.962      25775.121      8330.1272      17444.994      3864.4215      5702.7139     -3627.2581      311.15212     -1793.9687      44697.977     -31710.044     -351.51586      53802.248      37.751436      37.751436      37.751436      1.1127067     -303.82918      1506.2498      540.41926    
    136000   136000         616.36827     -954.18671      25127.034      25881.406      8302.6536      17578.753      3943.2962      5550.8129     -3414.6         324.97427     -1789.4661      44677.632     -31713.897     -348.87446      54209.596      37.846471      37.846471      37.846471      1.1043455     -884.92569     -172.46384     -1805.1706    
    137000   137000         620.91102      1956.9644      27357.961      25813.785      8363.8457      17449.939      3747.6653      5591.7153     -3552.0388      291.18471     -1705.9136      44771.76      -31694.434     -349.54831      54105.091      37.822135      37.822135      37.822135      1.1064785      78.164689      3833.0698      1959.6586    
    138000   138000         622.74907     -2573.2957      24115.058      26180.547      8388.6047      17791.943      4124.2803      5541.109      -3530.9057      346.85242     -1688.5197      44705.43      -31706.304     -343.6275       55037.34       38.038129      38.038129      38.038129      1.0877365     -3728.3294     -2222.0836     -1769.474     
    139000   139000         629.49869      769.09104      26561.148      25946.963      8479.524       17467.439      3966.9951      5475.6721     -3601.8153      309.44706     -1690.469       44716.962     -31709.353     -345.38235      54757.7        37.973597      37.973597      37.973597      1.0932914      698.98922      500.41418      1107.8697    
    140000   140000         619.08491     -882.69715      24923.089      25615.89       8339.2475      17276.643      3793.5805      5601.3874     -3604.5008      290.25718     -1835.2599      44751.159     -31719.981     -351.41841      53817.167      37.754925      37.754925      37.754925      1.1123982      12.059261     -3998.2677      1338.117     
    141000   141000         611.17765     -1797.9013      24441.884      25875.889      8232.7344      17643.154      3971.2065      5671.711      -3569.8135      312.47062     -1743.3576      44712.75      -31711.813     -345.80918      54690.113      37.957967      37.957967      37.957967      1.0946425     -1875.3838     -1140.0131     -2378.3072    
[...]
    461000   461000         620.05384     -242.77481      25287.759      25479.969      8352.2992      17127.67       3741.1193      5512.937      -3703.9225      304.39136     -1790.5313      44772.895     -31709.219     -348.3759       54287.175      37.864516      37.864516      37.864516      1.1027673     -1707.4628     -101.38275      1080.5212    
    462000   462000         621.30974      541.72569      26190.54       25761.258      8369.2165      17392.041      3927.1405      5556.7712     -3623.3449      281.79877     -1772.4322      44740.286     -31718.178     -348.06235      54336.079      37.875883      37.875883      37.875883      1.1017748      1080.576      -36.829394      581.43045    
    463000   463000         607.32822     -178.76448      25308.095      25447.839      8180.8816      17266.957      3832.8312      5452.9412     -3651.9029      323.06926     -1710.2794      44740.742     -31720.445     -352.83272      53601.444      37.704411      37.704411      37.704411      1.1168752     -76.805777     -1321.7341      862.24642    
    464000   464000         608.04128     -1331.206       24602.582      25653.742      8190.4866      17463.255      3976.2764      5652.824      -3578.894       284.80323     -1891.7942      44740.727     -31720.687     -349.29941      54143.645      37.831117      37.831117      37.831117      1.1056907     -390.01875     -1925.1255     -1678.4738    
    465000   465000         630.56093     -485.61406      25411.722      25795.676      8493.8326      17301.843      3911.8048      5568.7957     -3647.2342      287.90412     -1782.4613      44689.806     -31726.772     -348.84569      54214.066      37.847511      37.847511      37.847511      1.1042544     -1561.7848      47.878453      57.06422     
    466000   466000         615.18533     -170.90218      25456.481      25591.461      8286.719       17304.742      3838.2023      5597.6091     -3599.224       297.79675     -1786.1632      44690.56      -31734.039     -349.22184      54155.672      37.833918      37.833918      37.833918      1.1054451     -356.62492     -289.49409      133.41247    
    467000   467000         616.26205      511.01983      25941.123      25532.624      8301.2228      17231.402      3827.8439      5501.8864     -3667.036       296.34686     -1711.1718      44694.255     -31710.723     -345.03932      54812.14       37.986177      37.986177      37.986177      1.0922055     -583.08904      1943.122       173.02654    
    468000   468000         620.64828     -1808.886       24306.834      25714.344      8360.3065      17354.038      3882.2516      5493.4119     -3569.7705      293.95079     -1709.5689      44684.402     -31720.639     -354.47103      53353.707      37.646234      37.646234      37.646234      1.1220612     -1537.5863     -2080.8216     -1808.2501    
    469000   469000         628.28083      944.83847      26726.863      25973.739      8463.1191      17510.62       4005.6644      5630.054      -3709.7408      320.03444     -1734.6058      44705.213     -31706         -346.02896      54655.378      37.949929      37.949929      37.949929      1.0953382     -547.98708      2788.351       594.15145    
    470000   470000         623.90839     -135.68124      25493.195      25600.65       8404.221       17196.429      3822.7743      5410.7187     -3631.6465      302.82624     -1682.1109      44691.157     -31717.289     -348.2694       54303.775      37.868375      37.868375      37.868375      1.1024302     -726.69876      269.66395      49.991083    
    471000   471000         623.96038      67.638794      25700.075      25646.748      8404.9214      17241.826      3683.4941      5600.7544     -3584.5576      315.30941     -1769.348       44719.87      -31723.697     -349.83436      54060.852      37.811824      37.811824      37.811824      1.107384       1096.016      -870.50584     -22.593756    
    472000   472000         624.53047     -1083.438       24842.041      25699.996      8412.6007      17287.395      3732.6946      5650.8836     -3617.5103      290.03884     -1726.4818      44687.381     -31729.611     -348.30585      54298.093      37.867055      37.867055      37.867055      1.1025456     -213.95911     -1163.6295     -1872.7254    
    473000   473000         598.12238      2917.4238      27711.622      25385.122      8056.8764      17328.246      3780.3953      5431.7603     -3550.4841      269.31866     -1644.0799      44750.783     -31709.448     -345.87385      54679.888      37.955601      37.955601      37.955601      1.0948472      3694.8068      4153.8869      903.5776     
    474000   474000         624.80478     -1195.3486      24846.483      25788.93       8416.2957      17372.634      3844.14        5521.4438     -3576.8388      302.98844     -1699.1974      44691.576     -31711.478     -349.83129      54061.325      37.811934      37.811934      37.811934      1.1073743     -741.72906     -2507.482      -336.83477    
    475000   475000         619.7927       609.41586      26236.193      25744.342      8348.7817      17395.56       3875.134       5507.5281     -3608.5596      293.87891     -1716.236       44745.4       -31701.585     -341.74422      55340.638      38.107874      38.107874      38.107874      1.0817751      704.731        1272.1964     -148.67982    
    476000   476000         612.08419      2746.5332      27768.475      25612.995      8244.9458      17368.05       3800.7501      5526.933      -3566.8077      309.32012     -1648.1139      44672.083     -31726.115     -351.44896      53812.489      37.753831      37.753831      37.753831      1.112495       2221.9499      2458.9579      3558.6919    
    477000   477000         614.87632     -702.96435      25033.563      25590.001      8282.5566      17307.444      3714.7659      5584.6731     -3570.5033      277.826       -1716.913       44736.715     -31719.12      -348.44799      54275.944      37.861905      37.861905      37.861905      1.1029955     -1365.0844     -673.3343      -70.474365    
    478000   478000         630.37315     -1806.4471      24337.909      25747.999      8491.3032      17256.696      3799.4321      5473.711      -3568.9111      290.93122     -1689.3704      44662.676     -31711.773     -353.34571      53523.625      37.686156      37.686156      37.686156      1.118499      -2998.1048     -532.16724     -1889.0694    
    479000   479000         630.73784     -1839.7758      24211.424      25653.661      8496.2157      17157.445      3815.6555      5519.088      -3578.9354      266.95741     -1822.2845      44676.612     -31719.648     -351.84346      53752.153      37.739715      37.739715      37.739715      1.1137437     -2425.0971     -1371.0592     -1723.1711    
    480000   480000         618.40327      1242.368       26673.887      25694.631      8330.0656      17364.565      3908.5834      5610.5042     -3682.8156      272.9415      -1683.3297      44664.53      -31725.849     -349.92511      54046.832      37.808555      37.808555      37.808555      1.1076713      1290.7353      2160.2169      276.15165    
    481000   481000         623.9693      -137.0067       25590.792      25698.349      8405.0415      17293.308      3777.3854      5610.0049     -3628.451       332.76913     -1784.2156      44698.603     -31712.788     -351.33615      53829.767      37.757871      37.757871      37.757871      1.1121379      2792.4734     -2372.6153     -830.8782     
    482000   482000         612.41778      1803.6001      26880.599      25460.392      8249.4394      17210.953      3806.6644      5552.2127     -3616.3351      281.69767     -1716.5577      44622.156     -31718.885     -350.27562      53992.748      37.795939      37.795939      37.795939      1.1087808      2111.0475      1026.2402      2273.5127    
    483000   483000         609.45131      130.89123      25832.948      25728.373      8209.4802      17518.893      3899.6688      5604.6733     -3627.1105      326.41383     -1644.7832      44673.032     -31713.001     -345.2279       54782.199      37.979259      37.979259      37.979259      1.0928025      858.82293     -2063.8338      1597.6846    
    484000   484000         628.2259      -582.68254      25423.793      25880.33       8462.3792      17417.951      3874.0688      5595.4059     -3589.8267      332.93072     -1793.0344      44716.938     -31718.531     -352.02753      53724.047      37.733137      37.733137      37.733137      1.1143264      517.80498     -445.81865     -1820.034     
    485000   485000         618.44475     -665.52112      24996.181      25517.628      8330.6243      17187.003      3848.4266      5562.1547     -3654.6173      273.73366     -1775.7533      44633.342     -31700.282     -352.0244       53724.524      37.733248      37.733248      37.733248      1.1143165     -866.75914     -723.68781     -406.11641    
    486000   486000         622.04252     -168.44838      25598.865      25733.115      8379.0873      17354.027      3858.1688      5617.8865     -3668.231       299.31287     -1731.3841      44687.527     -31709.253     -346.07889      54647.492      37.948104      37.948104      37.948104      1.0954962     -430.03092      1059.9968     -1135.3111    
    487000   487000         609.0059      -153.31177      25562.129      25683.378      8203.4803      17479.897      3878.0706      5611.7448     -3599.6546      301.35826     -1724.3153      44732.329     -31719.636     -348.75544      54228.095      37.850776      37.850776      37.850776      1.1039687      223.28654     -320.69723     -362.52461    
    488000   488000         634.81655      230.52749      25959.763      25775.487      8551.1571      17224.33       3789.9361      5398.115      -3627.9629      333.29652     -1694.2759      44742.7       -31717.478     -345.04515      54811.214      37.985963      37.985963      37.985963      1.092224       2919.3004     -568.66357     -1659.0544    
    489000   489000         626.82613      332.17528      26221.394      25956.619      8443.5239      17513.095      3922.8156      5639.4334     -3647.9792      313.20948     -1691.598       44689.203     -31711.99      -346.0281       54655.514      37.94996       37.94996       37.94996       1.0953355      1562.7874      1694.329      -2260.5905    
    490000   490000         614.64451      51.857399      25820.465      25779.19       8279.4341      17499.756      3895.4666      5562.0113     -3600.1981      313.04149     -1681.3196      44716.621     -31705.867     -346.53841      54575.029      37.931323      37.931323      37.931323      1.0969508      684.34289     -265.11193     -263.65876    
    491000   491000         627.74914     -2166.5787      24151.167      25855.965      8455.9571      17400.008      3776.7101      5683.9146     -3572.0828      285.47907     -1759.6248      44701.467     -31715.855     -350.528        53953.874      37.786866      37.786866      37.786866      1.1095797     -3621.5884      40.519596     -2918.6674    
    492000   492000         627.84734      364.77957      26237.026      25949.602      8457.2798      17492.322      3923.7824      5703.0329     -3661.6518      315.24895     -1787.0317      44704.448     -31705.506     -350.0485       54027.78       37.804112      37.804112      37.804112      1.1080619      1754.2059      1984.5671     -2644.4343    
    493000   493000         608.1694       325.71232      25765.262      25510.365      8192.2125      17318.152      3800.0723      5641.9922     -3700.092       325.68617     -1732.3641      44694.098     -31711.24      -352.44404      53660.557      37.718267      37.718267      37.718267      1.1156448      1437.9265      129.7364      -590.52591    
    494000   494000         608.90287      109.01546      25732.355      25645.676      8202.0926      17443.584      3921.2558      5607.5601     -3639.9977      308.02164     -1756.1694      44718.592     -31715.679     -346.8917       54519.446      37.918441      37.918441      37.918441      1.0980692     -620.27008      313.67966      633.63681    
    495000   495000         643.71222      1567.1914      27189.74       25950.909      8670.9843      17279.925      3901.4028      5565.8425     -3668.1217      286.37427     -1710.551       44622.749     -31717.771     -348.92432      54201.85       37.844668      37.844668      37.844668      1.1045033      2377.1651      1644.9224      679.48655    
    496000   496000         604.58854      1988.004       27059.442      25470.049      8143.9773      17326.071      3829.0285      5611.6259     -3697.2932      305.99872     -1687.8969      44670.292     -31705.684     -344.99055      54819.889      37.987967      37.987967      37.987967      1.0920511      2016.3915      1503.9465      2443.674     
    497000   497000         602.62194     -1457.2579      24409.69       25586.907      8117.4866      17469.421      3892.994       5685.3646     -3631.5192      328.74824     -1761.8543      44663.859     -31708.172     -341.42945      55391.659      38.119582      38.119582      38.119582      1.0807786     -1150.2263     -2209.8279     -1011.7194    
    498000   498000         614.9518       955.39394      26657.089      25898.709      8283.5733      17615.136      3946.9181      5640.9625     -3556.8913      299.48605     -1720.9585      44707.451     -31701.832     -347.46948      54428.79       37.897413      37.897413      37.897413      1.0998981     -10.814877      615.36208      2261.6346    
    499000   499000         624.57252      994.41043      26484.596      25687.709      8413.1672      17274.542      3817.8879      5414.3806     -3658.0183      288.63782     -1627.3686      44744.176     -31705.154     -344.1838       54948.383      38.017624      38.017624      38.017624      1.0894974      653.55172      2109.9195      219.7601     
    500000   500000         637.11318      115.12941      26366.705      26274.298      8582.0933      17692.205      3875.5014      5747.5659     -3560.6247      341.99936     -1652.6877      44655.087     -31714.637     -343.63945      55035.426      38.037688      38.037688      38.037688      1.0877743      35.581965      1327.7012     -1017.895     
Loop time of 9599.33 on 4 procs for 500000 steps with 4520 atoms

Performance: 4.500 ns/day, 5.333 hours/ns, 52.087 timesteps/s, 235.433 katom-step/s
95.2% CPU use with 4 MPI tasks x 1 OpenMP threads

MPI task timing breakdown:
Section |  min time  |  avg time  |  max time  |%varavg| %total
---------------------------------------------------------------
Pair    | 589.76     | 626.14     | 661.08     | 104.8 |  6.52
Bond    | 1034       | 1061.7     | 1085.2     |  62.8 | 11.06
Kspace  | 4622.2     | 4645.8     | 4675       |  31.5 | 48.40
Neigh   | 704.93     | 720.09     | 732.68     |  38.1 |  7.50
Comm    | 129.84     | 147.62     | 160.28     | 107.0 |  1.54
Output  | 2.3941     | 2.4626     | 2.5185     |   3.0 |  0.03
Modify  | 1906.3     | 2055.5     | 2189.8     | 257.0 | 21.41
Other   |            | 340.1      |            |       |  3.54

Nlocal:           1130 ave        1154 max        1114 min
Histogram: 1 1 0 0 0 1 0 0 0 1
Nghost:           7716 ave        7769 max        7683 min
Histogram: 2 0 0 0 1 0 0 0 0 1
Neighs:              0 ave           0 max           0 min
Histogram: 4 0 0 0 0 0 0 0 0 0
FullNghs:       590502 ave      607382 max      578710 min
Histogram: 2 0 0 0 0 1 0 0 0 1

Total # of neighbors = 2362010
Ave neighs/atom = 522.56858
Ave special neighs/atom = 5.5353982
Neighbor list builds = 28577
Dangerous builds = 0

# --- Cleanup ---
unfix npt_fix

undump dump_npt

# --- Write Output ---
write_dump all custom npt_production_last.dump id type mol x y z xu yu zu vx vy vz modify sort id
write_data /home/arz2/PolyJarvis/data/PLA1/lammps/equil/npt_production/npt_production_out.data
System init for write_data ...
PPPM initialization ...
  using 12-bit tables for long-range coulomb
  G vector (1/distance) = 0.34024848
  grid = 45 45 45
  stencil order = 5
  estimated absolute RMS force accuracy = 0.00028111541
  estimated relative force accuracy = 8.465707e-07
  using double precision KISS FFT
  3d grid and FFT values/proc = 46800 23805
Generated 21 of 21 mixed pair_coeff terms from sixthpower/sixthpower mixing rule

print "STAGE COMPLETE: NPT T=620.0->620.0K P=1.0->1.0atm steps=500000"
STAGE COMPLETE: NPT T=620.0->620.0K P=1.0->1.0atm steps=500000
quit
        |       |  3.54

Nlocal:           1130 ave        1154 max        1114 min
Histogram: 1 1 0 0 0 1 0 0 0 1
Nghost:           7716 ave        7769 max        7683 min
Histogram: 2 0 0 0 1 0 0 0 0 1
Neighs:              0 ave           0 max           0 min
Histogram: 4 0 0 0 0 0 0 0 0 0
FullNghs:       590502 ave      607382 max      578710 min
Histogram: 2 0 0 0 0 1 0 0 0 1

Total # of neighbors = 2362010
Ave neighs/atom = 522.56858
Ave special neighs/atom = 5.5353982
Neighbor list builds = 28577
Dangerous builds = 0
System init for write_data ...
PPPM initialization ...
  using 12-bit tables for long-range coulomb
  G vector (1/distance) = 0.34024848
  grid = 45 45 45
  stencil order = 5
  estimated absolute RMS force accuracy = 0.00028111541
  estimated relative force accuracy = 8.465707e-07
  using double precision KISS FFT
  3d grid and FFT values/proc = 46800 23805


---------------------------------------------------------------------
    Device Time Info (average) for kspace: 
---------------------------------------------------------------------
CPU Poisson:     4600.8946 s.
CPU Data Cast:   3.0586 s.
CPU Idle Time:   3.8715 s.
Max Mem / Proc:  12.10 MB.
---------------------------------------------------------------------


--------------------------------------------------------------------------
- Using acceleration for pppm:
-  with 4 proc(s) per device.
-  with 1 thread(s) per proc.
-  Horizontal vector operations: ENABLED
-  Shared memory system: No
--------------------------------------------------------------------------
Device 0: Quadro RTX 6000, 72 CUs, 23/24 GB, 1.8 GHZ (Mixed Precision)
--------------------------------------------------------------------------

Initializing Device and compiling on process 0...Done.
Initializing Device 0 on core 0...Done.
Initializing Device 0 on core 1...Done.
Initializing Device 0 on core 2...Done.
Initializing Device 0 on core 3...Done.



---------------------------------------------------------------------
      Device Time Info (average): 
---------------------------------------------------------------------
CPU Cast/Pack:   6.3627 s.
CPU Driver_Time: 10.0776 s.
CPU Idle_Time:   3.2788 s.
Average split:   1.0000.
Max Mem / Proc:  4.20 MB.
Prefetch mode:   None.
Vector width:    32.
Lanes / atom:    8.
Pair block:      256.
Neigh block:     128.
Neigh mode:      Host.
---------------------------------------------------------------------


--------------------------------------------------------------------------
- Using acceleration for lj/class2/coul/long:
-  with 4 proc(s) per device.
-  with 1 thread(s) per proc.
-  Horizontal vector operations: ENABLED
-  Shared memory system: No
--------------------------------------------------------------------------
Device 0: Quadro RTX 6000, 72 CUs, 23/24 GB, 1.8 GHZ (Mixed Precision)
--------------------------------------------------------------------------

Initializing Device and compiling on process 0...Done.
Initializing Device 0 on core 0...Done.
Initializing Device 0 on core 1...Done.
Initializing Device 0 on core 2...Done.
Initializing Device 0 on core 3...Done.

Generated 21 of 21 mixed pair_coeff terms from sixthpower/sixthpower mixing rule
STAGE COMPLETE: NPT T=620.0->620.0K P=1.0->1.0atm steps=500000
