units real
atom_style full
boundary p p p

# --- Force Field Styles ---
pair_style lj/class2/coul/long 9.5 9.5
kspace_style pppm 1e-6
dielectric 1.000000
bond_style class2
angle_style class2
dihedral_style class2
improper_style class2
special_bonds lj/coul 0 0 1
pair_modify mix sixthpower tail yes
neighbor 2.0 bin
neigh_modify delay 0 every 1 check yes
neigh_modify one 4000
# KOKKOS: package loaded via -pk kokkos on the command line

read_data /home/arz2/PolyJarvis/data/PSU2/lammps/equil/npt_extend/npt_extend_out.data
Reading data file ...
  orthogonal box = (5.9813462 5.9813462 5.9813462) to (55.912235 55.912235 55.912235)
  1 by 1 by 1 MPI processor grid
  reading atoms ...
  10820 atoms
  reading velocities ...
  10820 velocities
  scanning bonds ...
  4 = max bonds/atom
  scanning angles ...
  16 = max angles/atom
  scanning dihedrals ...
  38 = max dihedrals/atom
  scanning impropers ...
  12 = max impropers/atom
  orthogonal box = (5.9813462 5.9813462 5.9813462) to (55.912235 55.912235 55.912235)
  1 by 1 by 1 MPI processor grid
  reading bonds ...
  11610 bonds
  reading angles ...
  19600 angles
  reading dihedrals ...
  29180 dihedrals
  reading impropers ...
  8000 impropers
Finding 1-2 1-3 1-4 neighbors ...
  special bond factors lj:    0        0        1       
  special bond factors coul:  0        0        1       
     4 = max # of 1-2 neighbors
    10 = max # of 1-3 neighbors
    14 = max # of special neighbors
  special bonds CPU = 0.058 seconds
  read_data CPU = 0.436 seconds
include /home/arz2/PolyJarvis/data/PSU2/lammps/equil/emc_build.params
# LAMMPS parameters created by EMC v9.4.4, build Jul 31 2025 20:33:44

# Variables

variable	seed		index	820419
variable	ntotal		index	10820
variable	fshape		index	1
variable	output		index	emc_build
variable	field		index	pcff/pcff
variable	location1	index	/home/arz2/emc/field/
variable	nav		index	0.6022141179
variable	temperature	index	300
variable	radius		index	5
variable	nrelax		index	100
variable	weight_nonbond	index	0.0001
variable	weight_bond	index	0.0001
variable	weight_focus	index	1
variable	cutoff		index	9.5
variable	charge_cutoff	index	9.5
variable	kappa		index	4
variable	density1	index	0.62
variable	lprevious	index	0
variable	lphase		index	61.8935814259
variable	f_poly		index	10
variable	chem_repeat	index	*Oc1ccc(C(C)(C)c2ccc(Oc3ccc(S(=O)(=O)c4ccc(*)cc4)cc3)cc2)cc1
variable	chem_cap	index	*[H]
variable	lg_repeat	index	54
variable	lg_cap		index	1
variable	norm_poly	index	100
variable	l_poly		index	1082
variable	mg_repeat	index	414.52744
variable	mg_cap		index	0
variable	m_poly		index	8290.5488
variable	n_poly		index	10
variable	mtotal		index	88527.7574
variable	nphase1		index	10820
variable	mphase1		index	88527.7574
variable	vphase1		index	237102.886232
variable	lbox		index	61.8935814259
variable	lphase1		index	61.8935814259
variable	lxx		index	61.8935814259
variable	lyy		index	61.8935814259
variable	lzz		index	61.8935814259
variable	lzy		index	0
variable	lzx		index	0
variable	lyx		index	0
variable	vtotal		index	237102.886232
variable	nl_poly		index	10

# Types

variable	type_c		index	1
variable	type_cp		index	2
variable	type_hc		index	3
variable	type_ho		index	4
variable	type_oe		index	5
variable	type_oc		index	6
variable	type_oh		index	7
variable	type_sf		index	8

variable	type_bond_c_c	index	1
variable	type_bond_c_cp	index	2
variable	type_bond_c_hc	index	3
variable	type_bond_cp_cp	index	4
variable	type_bond_cp_hc	index	5
variable	type_bond_cp_oc	index	6
variable	type_bond_cp_oh	index	7
variable	type_bond_cp_sf	index	8
variable	type_bond_ho_oh	index	9
variable	type_bond_oe_sf	index	10

variable	type_angle_c_c_c index	1
variable	type_angle_c_c_cp index	2
variable	type_angle_c_c_hc index	3
variable	type_angle_c_cp_cp index	4
variable	type_angle_cp_c_cp index	5
variable	type_angle_cp_cp_cp index	6
variable	type_angle_cp_cp_hc index	7
variable	type_angle_cp_cp_oc index	8
variable	type_angle_cp_cp_oh index	9
variable	type_angle_cp_cp_sf index	10
variable	type_angle_cp_oc_cp index	11
variable	type_angle_cp_oh_ho index	12
variable	type_angle_cp_sf_cp index	13
variable	type_angle_cp_sf_oe index	14
variable	type_angle_hc_c_hc index	15
variable	type_angle_oe_sf_oe index	16

# Clusters

variable	n0_poly		index	1
variable	n1_poly		index	10
variable	nl_poly		index	10

# Flags

variable	flag_charged	index	1

# Masses

mass		1    12.01115  # c
mass		2    12.01115  # cp
mass		3     1.00797  # hc
mass		4     1.00797  # ho
mass		5    15.99940  # o=
mass		6    15.99940  # oc
mass		7    15.99940  # oh
mass		8    32.06400  # sf

# Potentials

pair_modify	mix sixthpower tail yes
special_bonds	lj/coul 0 0 1

# Pair Coeffs

pair_coeff	 1  1    0.05400    4.01000  # c,c
pair_coeff	 2  2    0.06400    4.01000  # cp,cp
pair_coeff	 3  3    0.02000    2.99500  # hc,hc
pair_coeff	 4  4    0.01300    1.09800  # ho,ho
pair_coeff	 5  5    0.06000    3.53500  # o=,o=
pair_coeff	 6  6    0.24000    3.53500  # oc,oc
pair_coeff	 7  7    0.24000    3.53500  # oh,oh
pair_coeff	 8  8    0.25000    4.02700  # sf,sf

# Bond Coeffs

bond_coeff	 1    1.53000  299.67000 -501.77000  679.81000  # c,c
bond_coeff	 2    1.50100  321.90210 -521.82080  572.16280  # c,cp
bond_coeff	 3    1.10100  345.00000 -691.89000  844.60000  # c,hc
bond_coeff	 4    1.41700  470.83610 -627.61790 1327.63450  # cp,cp
bond_coeff	 5    1.09820  372.82510 -803.45260  894.31730  # cp,hc
bond_coeff	 6    1.37680  428.87980 -738.23510 1114.96550  # cp,oc
bond_coeff	 7    1.37680  428.87980 -738.23510 1114.96550  # cp,oh
bond_coeff	 8    1.72000  239.80240    0.00000    0.00000  # cp,sf
bond_coeff	 9    0.96500  532.50620 -1282.90500 2004.76580  # ho,oh
bond_coeff	10    1.43080  743.76000    0.00000    0.00000  # o=,sf

# Angle Coeffs

angle_coeff	 1  112.67000   39.51600   -7.44300   -9.55830  # c,c,c
angle_coeff	 2  108.40000   43.95940   -8.39240   -9.33790  # c,c,cp
angle_coeff	 3  110.77000   41.45300  -10.60400    5.12900  # c,c,hc
angle_coeff	 4  120.05000   44.71480  -22.73520    0.00000  # c,cp,cp
angle_coeff	 5  111.00000   44.32340   -9.44540    0.00000  # cp,c,cp
angle_coeff	 6  118.90000   61.02260  -34.99310    0.00000  # cp,cp,cp
angle_coeff	 7  117.94000   35.15580  -12.46820    0.00000  # cp,cp,hc
angle_coeff	 8  123.42000   73.67810  -21.67870    0.00000  # cp,cp,oc
angle_coeff	 9  123.42000   73.67810  -21.67870    0.00000  # cp,cp,oh
angle_coeff	10  120.00000   60.00000    0.00000    0.00000  # cp,cp,sf
angle_coeff	11  109.50000   60.00000    0.00000    0.00000  # cp,oc,cp
angle_coeff	12  108.19000   53.12500   -8.50160    0.00000  # cp,oh,ho
angle_coeff	13  102.00000   58.00000    0.00000    0.00000  # cp,sf,cp
angle_coeff	14  113.10000   42.30000    0.00000    0.00000  # cp,sf,o=
angle_coeff	15  107.66000   39.64100  -12.92100   -2.43180  # hc,c,hc
angle_coeff	16  119.32900  135.00000    0.00000    0.00000  # o=,sf,o=

# BondBond Coeffs

angle_coeff	 1 bb    0.00000    1.53000    1.53000  # c,c,c
angle_coeff	 2 bb    0.00000    1.53000    1.50100  # c,c,cp
angle_coeff	 3 bb    3.38720    1.53000    1.10100  # c,c,hc
angle_coeff	 4 bb   12.06760    1.50100    1.41700  # c,cp,cp
angle_coeff	 5 bb    0.00000    1.50100    1.50100  # cp,c,cp
angle_coeff	 6 bb   68.28560    1.41700    1.41700  # cp,cp,cp
angle_coeff	 7 bb    1.07950    1.41700    1.09820  # cp,cp,hc
angle_coeff	 8 bb   48.47540    1.41700    1.37680  # cp,cp,oc
angle_coeff	 9 bb   48.47540    1.41700    1.37680  # cp,cp,oh
angle_coeff	10 bb    0.00000    1.41700    1.72000  # cp,cp,sf
angle_coeff	11 bb    0.00000    1.37680    1.37680  # cp,oc,cp
angle_coeff	12 bb   20.65770    1.37680    0.96500  # cp,oh,ho
angle_coeff	13 bb    0.00000    1.72000    1.72000  # cp,sf,cp
angle_coeff	14 bb    0.00000    1.72000    1.43080  # cp,sf,o=
angle_coeff	15 bb    5.33160    1.10100    1.10100  # hc,c,hc
angle_coeff	16 bb   40.00000    1.43080    1.43080  # o=,sf,o=

# BondAngle Coeffs

angle_coeff	 1 ba    8.01600    8.01600    1.53000    1.53000  # c,c,c
angle_coeff	 2 ba    0.00000    0.00000    1.53000    1.50100  # c,c,cp
angle_coeff	 3 ba   20.75400   11.42100    1.53000    1.10100  # c,c,hc
angle_coeff	 4 ba   47.05790   31.07710    1.50100    1.41700  # c,cp,cp
angle_coeff	 5 ba    0.00000    0.00000    1.50100    1.50100  # cp,c,cp
angle_coeff	 6 ba   28.87080   28.87080    1.41700    1.41700  # cp,cp,cp
angle_coeff	 7 ba   20.00330   24.21830    1.41700    1.09820  # cp,cp,hc
angle_coeff	 8 ba   58.47900  107.68060    1.41700    1.37680  # cp,cp,oc
angle_coeff	 9 ba   58.47900  107.68060    1.41700    1.37680  # cp,cp,oh
angle_coeff	10 ba    0.00000    0.00000    1.41700    1.72000  # cp,cp,sf
angle_coeff	11 ba    0.00000    0.00000    1.37680    1.37680  # cp,oc,cp
angle_coeff	12 ba   53.86140   23.92240    1.37680    0.96500  # cp,oh,ho
angle_coeff	13 ba    0.00000    0.00000    1.72000    1.72000  # cp,sf,cp
angle_coeff	14 ba    0.00000    0.00000    1.72000    1.43080  # cp,sf,o=
angle_coeff	15 ba   18.10300   18.10300    1.10100    1.10100  # hc,c,hc
angle_coeff	16 ba    0.00000    0.00000    1.43080    1.43080  # o=,sf,o=

# Dihedral Coeffs

dihedral_coeff	 1    0.00000    0.00000    0.03160    0.00000   -0.16810    0.00000  # c,c,c,hc
dihedral_coeff	 2   -0.28020    0.00000   -0.06780    0.00000   -0.01220    0.00000  # c,c,cp,cp
dihedral_coeff	 3    0.00000    0.00000    4.40720    0.00000    0.00000    0.00000  # c,cp,cp,cp
dihedral_coeff	 4    0.00000    0.00000    1.55900    0.00000    0.00000    0.00000  # c,cp,cp,hc
dihedral_coeff	 5   -0.02280    0.00000    0.02800    0.00000   -0.18630    0.00000  # cp,c,c,hc
dihedral_coeff	 6   -0.28020    0.00000   -0.06780    0.00000   -0.01220    0.00000  # cp,c,cp,cp
dihedral_coeff	 7    8.36670    0.00000    1.19320    0.00000    0.00000    0.00000  # cp,cp,cp,cp
dihedral_coeff	 8    0.00000    0.00000    3.96610    0.00000    0.00000    0.00000  # cp,cp,cp,hc
dihedral_coeff	 9    0.00000    0.00000    4.84980    0.00000    0.00000    0.00000  # cp,cp,cp,oc
dihedral_coeff	10    0.00000    0.00000    4.84980    0.00000    0.00000    0.00000  # cp,cp,cp,oh
dihedral_coeff	11    0.00000    0.00000    3.00000    0.00000    0.00000    0.00000  # cp,cp,cp,sf
dihedral_coeff	12    0.00000    0.00000    1.80000    0.00000    0.00000    0.00000  # cp,cp,oc,cp
dihedral_coeff	13   -0.69000    0.00000    0.50970    0.00000    0.00950    0.00000  # cp,cp,oh,ho
dihedral_coeff	14    0.00000    0.00000    1.50000    0.00000    0.00000    0.00000  # cp,cp,sf,cp
dihedral_coeff	15    0.00000    0.00000    1.50000    0.00000    0.00000    0.00000  # cp,cp,sf,o=
dihedral_coeff	16    0.00000    0.00000    1.87690    0.00000    0.00000    0.00000  # hc,cp,cp,hc
dihedral_coeff	17    0.00000    0.00000    1.72340    0.00000    0.00000    0.00000  # hc,cp,cp,oc
dihedral_coeff	18    0.00000    0.00000    1.72340    0.00000    0.00000    0.00000  # hc,cp,cp,oh
dihedral_coeff	19    0.00000    0.00000    3.00000    0.00000    0.00000    0.00000  # hc,cp,cp,sf

# MiddleBondTorsion Coeffs

dihedral_coeff	 1 mbt  -14.87900   -3.65810   -0.31380    1.53000  # c,c,c,hc
dihedral_coeff	 2 mbt    0.00000    0.00000    0.00000    1.50100  # c,c,cp,cp
dihedral_coeff	 3 mbt    0.00000    9.17920    0.00000    1.41700  # c,cp,cp,cp
dihedral_coeff	 4 mbt    0.00000    3.94210    0.00000    1.41700  # c,cp,cp,hc
dihedral_coeff	 5 mbt    0.00000    0.00000    0.00000    1.53000  # cp,c,c,hc
dihedral_coeff	 6 mbt    0.00000    0.00000    0.00000    1.50100  # cp,c,cp,cp
dihedral_coeff	 7 mbt   27.59890   -2.31200    0.00000    1.41700  # cp,cp,cp,cp
dihedral_coeff	 8 mbt    0.00000   -1.15210    0.00000    1.41700  # cp,cp,cp,hc
dihedral_coeff	 9 mbt    0.00000    4.82550    0.00000    1.41700  # cp,cp,cp,oc
dihedral_coeff	10 mbt    0.00000    4.82550    0.00000    1.41700  # cp,cp,cp,oh
dihedral_coeff	11 mbt    0.00000    0.00000    0.00000    1.41700  # cp,cp,cp,sf
dihedral_coeff	12 mbt    0.00000    0.00000    0.00000    1.37680  # cp,cp,oc,cp
dihedral_coeff	13 mbt    1.15800    3.26970    3.51320    1.37680  # cp,cp,oh,ho
dihedral_coeff	14 mbt    0.00000    0.00000    0.00000    1.72000  # cp,cp,sf,cp
dihedral_coeff	15 mbt    0.00000    0.00000    0.00000    1.72000  # cp,cp,sf,o=
dihedral_coeff	16 mbt    0.00000    4.82280    0.00000    1.41700  # hc,cp,cp,hc
dihedral_coeff	17 mbt    0.00000    5.54320    0.00000    1.41700  # hc,cp,cp,oc
dihedral_coeff	18 mbt    0.00000    5.54320    0.00000    1.41700  # hc,cp,cp,oh
dihedral_coeff	19 mbt    0.00000    0.00000    0.00000    1.41700  # hc,cp,cp,sf

# EndBondTorsion Coeffs

dihedral_coeff	 1 ebt    0.24860    0.24220   -0.09250    0.08140    0.05910    0.22190    1.53000    1.10100  # c,c,c,hc
dihedral_coeff	 2 ebt    0.00000    0.00000    0.00000    0.00000    0.00000    0.00000    1.53000    1.41700  # c,c,cp,cp
dihedral_coeff	 3 ebt    0.00000    0.24210    0.00000    0.00000   -0.69180    0.00000    1.50100    1.41700  # c,cp,cp,cp
dihedral_coeff	 4 ebt    0.00000   -1.79700    0.00000    0.00000   -0.48790    0.00000    1.50100    1.09820  # c,cp,cp,hc
dihedral_coeff	 5 ebt    0.00000    0.00000    0.00000    0.00000    0.00000    0.00000    1.50100    1.10100  # cp,c,c,hc
dihedral_coeff	 6 ebt    0.00000    0.00000    0.00000    0.00000    0.00000    0.00000    1.50100    1.41700  # cp,c,cp,cp
dihedral_coeff	 7 ebt   -0.11850    6.32040    0.00000   -0.11850    6.32040    0.00000    1.41700    1.41700  # cp,cp,cp,cp
dihedral_coeff	 8 ebt    0.00000   -6.89580    0.00000    0.00000   -0.46690    0.00000    1.41700    1.09820  # cp,cp,cp,hc
dihedral_coeff	 9 ebt    0.00000    0.26550    0.00000    0.00000    4.89050    0.00000    1.41700    1.37680  # cp,cp,cp,oc
dihedral_coeff	10 ebt    0.00000    0.26550    0.00000    0.00000    4.89050    0.00000    1.41700    1.37680  # cp,cp,cp,oh
dihedral_coeff	11 ebt    0.00000    0.00000    0.00000    0.00000    0.00000    0.00000    1.41700    1.72000  # cp,cp,cp,sf
dihedral_coeff	12 ebt    0.00000    0.00000    0.00000    0.00000    0.00000    0.00000    1.41700    1.37680  # cp,cp,oc,cp
dihedral_coeff	13 ebt    0.90000   -1.34560    1.19000    3.41320    0.58730   -0.13230    1.41700    0.96500  # cp,cp,oh,ho
dihedral_coeff	14 ebt    0.00000    0.00000    0.00000    0.00000    0.00000    0.00000    1.41700    1.72000  # cp,cp,sf,cp
dihedral_coeff	15 ebt    0.00000    0.00000    0.00000    0.00000    0.00000    0.00000    1.41700    1.43080  # cp,cp,sf,o=
dihedral_coeff	16 ebt    0.00000   -0.68900    0.00000    0.00000   -0.68900    0.00000    1.09820    1.09820  # hc,cp,cp,hc
dihedral_coeff	17 ebt    0.00000   -1.58670    0.00000    0.00000    4.26410    0.00000    1.09820    1.37680  # hc,cp,cp,oc
dihedral_coeff	18 ebt    0.00000   -1.58670    0.00000    0.00000    4.26410    0.00000    1.09820    1.37680  # hc,cp,cp,oh
dihedral_coeff	19 ebt    0.00000    0.00000    0.00000    0.00000    0.00000    0.00000    1.09820    1.72000  # hc,cp,cp,sf

# AngleTorsion Coeffs

dihedral_coeff	 1 at   -0.24540    0.00000   -0.11360    0.31130    0.45160   -0.19880  112.67000  110.77000  # c,c,c,hc
dihedral_coeff	 2 at    0.00000    0.00000    0.00000    0.00000    0.00000    0.00000  108.40000  120.05000  # c,c,cp,cp
dihedral_coeff	 3 at    0.00000   -4.46830    0.00000    0.00000    3.89870    0.00000  120.05000  118.90000  # c,cp,cp,cp
dihedral_coeff	 4 at    0.00000   -0.12420    0.00000    0.00000    3.46010    0.00000  120.05000  117.94000  # c,cp,cp,hc
dihedral_coeff	 5 at    0.00000    0.00000    0.00000    0.00000    0.00000    0.00000  108.40000  110.77000  # cp,c,c,hc
dihedral_coeff	 6 at    0.00000    0.00000    0.00000    0.00000    0.00000    0.00000  111.00000  120.05000  # cp,c,cp,cp
dihedral_coeff	 7 at    1.97670    1.02390    0.00000    1.97670    1.02390    0.00000  118.90000  118.90000  # cp,cp,cp,cp
dihedral_coeff	 8 at    0.00000    2.50140    0.00000    0.00000    2.71470    0.00000  118.90000  117.94000  # cp,cp,cp,hc
dihedral_coeff	 9 at    0.00000   10.01550    0.00000    0.00000    1.74040    0.00000  118.90000  123.42000  # cp,cp,cp,oc
dihedral_coeff	10 at    0.00000   10.01550    0.00000    0.00000    1.74040    0.00000  118.90000  123.42000  # cp,cp,cp,oh
dihedral_coeff	11 at    0.00000    0.00000    0.00000    0.00000    0.00000    0.00000  118.90000  120.00000  # cp,cp,cp,sf
dihedral_coeff	12 at    0.00000    0.00000    0.00000    0.00000    0.00000    0.00000  123.42000  109.50000  # cp,cp,oc,cp
dihedral_coeff	13 at   -5.13600   -1.01220    0.00000    4.68520    0.02300   -0.59800  123.42000  108.19000  # cp,cp,oh,ho
dihedral_coeff	14 at    0.00000    0.00000    0.00000    0.00000    0.00000    0.00000  120.00000  102.00000  # cp,cp,sf,cp
dihedral_coeff	15 at    0.00000    0.00000    0.00000    0.00000    0.00000    0.00000  120.00000  113.10000  # cp,cp,sf,o=
dihedral_coeff	16 at    0.00000    2.45010    0.00000    0.00000    2.45010    0.00000  117.94000  117.94000  # hc,cp,cp,hc
dihedral_coeff	17 at    0.00000    1.87290    0.00000    0.00000    2.57060    0.00000  117.94000  123.42000  # hc,cp,cp,oc
dihedral_coeff	18 at    0.00000    1.87290    0.00000    0.00000    2.57060    0.00000  117.94000  123.42000  # hc,cp,cp,oh
dihedral_coeff	19 at    0.00000    0.00000    0.00000    0.00000    0.00000    0.00000  117.94000  120.00000  # hc,cp,cp,sf

# AngleAngleTorsion Coeffs

dihedral_coeff	 1 aat  -16.16400  112.67000  110.77000  # c,c,c,hc
dihedral_coeff	 2 aat    0.00000  108.40000  120.05000  # c,c,cp,cp
dihedral_coeff	 3 aat  -14.40970  120.05000  118.90000  # c,cp,cp,cp
dihedral_coeff	 4 aat    4.44440  120.05000  117.94000  # c,cp,cp,hc
dihedral_coeff	 5 aat    0.00000  108.40000  110.77000  # cp,c,c,hc
dihedral_coeff	 6 aat    0.00000  111.00000  120.05000  # cp,c,cp,cp
dihedral_coeff	 7 aat    0.00000  118.90000  118.90000  # cp,cp,cp,cp
dihedral_coeff	 8 aat   -4.81410  118.90000  117.94000  # cp,cp,cp,hc
dihedral_coeff	 9 aat  -21.02470  118.90000  123.42000  # cp,cp,cp,oc
dihedral_coeff	10 aat  -21.02470  118.90000  123.42000  # cp,cp,cp,oh
dihedral_coeff	11 aat    0.00000  118.90000  120.00000  # cp,cp,cp,sf
dihedral_coeff	12 aat    0.00000  123.42000  109.50000  # cp,cp,oc,cp
dihedral_coeff	13 aat   -4.60720  123.42000  108.19000  # cp,cp,oh,ho
dihedral_coeff	14 aat    0.00000  120.00000  102.00000  # cp,cp,sf,cp
dihedral_coeff	15 aat    0.00000  120.00000  113.10000  # cp,cp,sf,o=
dihedral_coeff	16 aat    0.35980  117.94000  117.94000  # hc,cp,cp,hc
dihedral_coeff	17 aat    4.22960  117.94000  123.42000  # hc,cp,cp,oc
dihedral_coeff	18 aat    4.22960  117.94000  123.42000  # hc,cp,cp,oh
dihedral_coeff	19 aat    0.00000  117.94000  120.00000  # hc,cp,cp,sf

# BondBond13 Coeffs

dihedral_coeff	 1 bb13    0.00000    1.53000    1.10100  # c,c,c,hc
dihedral_coeff	 2 bb13    0.00000    1.53000    1.41700  # c,c,cp,cp
dihedral_coeff	 3 bb13    2.50850    1.50100    1.41700  # c,cp,cp,cp
dihedral_coeff	 4 bb13    0.87430    1.50100    1.09820  # c,cp,cp,hc
dihedral_coeff	 5 bb13    0.00000    1.50100    1.10100  # cp,c,c,hc
dihedral_coeff	 6 bb13    0.00000    1.50100    1.41700  # cp,c,cp,cp
dihedral_coeff	 7 bb13   53.00000    1.41700    1.41700  # cp,cp,cp,cp
dihedral_coeff	 8 bb13   -6.27410    1.41700    1.09820  # cp,cp,cp,hc
dihedral_coeff	 9 bb13   -2.24360    1.41700    1.37680  # cp,cp,cp,oc
dihedral_coeff	10 bb13   -2.24360    1.41700    1.37680  # cp,cp,cp,oh
dihedral_coeff	11 bb13    0.00000    1.41700    1.72000  # cp,cp,cp,sf
dihedral_coeff	12 bb13    0.00000    1.41700    1.37680  # cp,cp,oc,cp
dihedral_coeff	13 bb13    1.15900    1.41700    0.96500  # cp,cp,oh,ho
dihedral_coeff	14 bb13    0.00000    1.41700    1.72000  # cp,cp,sf,cp
dihedral_coeff	15 bb13    0.00000    1.41700    1.43080  # cp,cp,sf,o=
dihedral_coeff	16 bb13   -1.70770    1.09820    1.09820  # hc,cp,cp,hc
dihedral_coeff	17 bb13    2.05170    1.09820    1.37680  # hc,cp,cp,oc
dihedral_coeff	18 bb13    2.05170    1.09820    1.37680  # hc,cp,cp,oh
dihedral_coeff	19 bb13    0.00000    1.09820    1.72000  # hc,cp,cp,sf

# Improper Coeffs

improper_coeff	 1    0.00000    0.00000  # c,c,c,cp
improper_coeff	 2    0.00000    0.00000  # c,c,cp,cp
improper_coeff	 3    0.00000    0.00000  # c,c,hc,hc
improper_coeff	 4    0.00000    0.00000  # c,hc,hc,hc
improper_coeff	 5    7.81530    0.00000  # cp,c,cp,cp
improper_coeff	 6    4.89120    0.00000  # cp,cp,cp,hc
improper_coeff	 7   13.04210    0.00000  # cp,cp,cp,oc
improper_coeff	 8   13.04210    0.00000  # cp,cp,cp,oh
improper_coeff	 9    0.00000    0.00000  # cp,cp,cp,sf
improper_coeff	10    0.00000    0.00000  # sf,cp,cp,o=
improper_coeff	11    0.00000    0.00000  # sf,cp,o=,o=

# AngleAngle Coeffs

improper_coeff	 1 aa    0.00000    0.00000    0.00000  112.67000  108.40000  108.40000  # c,c,c,cp
improper_coeff	 2 aa    0.00000    0.00000    0.00000  108.40000  108.40000  111.00000  # c,c,cp,cp
improper_coeff	 3 aa    0.27380   -0.48250    0.27380  110.77000  110.77000  107.66000  # c,c,hc,hc
improper_coeff	 4 aa   -0.31570   -0.31570   -0.31570  107.66000  107.66000  107.66000  # c,hc,hc,hc
improper_coeff	 5 aa    0.00000    0.00000    0.00000  120.05000  120.05000  118.90000  # cp,c,cp,cp
improper_coeff	 6 aa    0.00000    0.00000    0.00000  118.90000  117.94000  117.94000  # cp,cp,cp,hc
improper_coeff	 7 aa    0.00000    0.00000    0.00000  118.90000  123.42000  123.42000  # cp,cp,cp,oc
improper_coeff	 8 aa    0.00000    0.00000    0.00000  118.90000  123.42000  123.42000  # cp,cp,cp,oh
improper_coeff	 9 aa    0.00000    0.00000    0.00000  118.90000  120.00000  120.00000  # cp,cp,cp,sf
improper_coeff	10 aa    0.00000    0.00000    0.00000  102.00000  113.10000  113.10000  # sf,cp,cp,o=
improper_coeff	11 aa    0.00000    0.00000    0.00000  113.10000  113.10000  119.32900  # sf,cp,o=,o=


# --- Thermo Output ---
thermo_style custom step time temp press enthalpy etotal ke pe ebond eangle edihed eimp evdwl ecoul elong etail vol lx ly lz density pxx pyy pzz
thermo_modify flush yes
thermo 500

# --- Velocity initialization at T_START (once only — Rule A) ---
velocity all create 750.0 611213 mom yes rot yes dist gaussian

# --- Temperature staircase (inherits momenta across steps — Rule A) ---
variable temps index 750 730 710 690 670 650 630 610 590 570 550 530 510 490 470 450 430 410 390 370 350 330 310 290 270 250
label TEMP_LOOP
  timestep 1
  fix npt_tg all npt temp ${temps} ${temps} 100 iso 1.0 1.0 1000.0
  fix npt_tg all npt temp 750 ${temps} 100 iso 1.0 1.0 1000.0
  fix npt_tg all npt temp 750 750 100 iso 1.0 1.0 1000.0
  run 125000
PPPM Kokkos initialization ...
  using 12-bit tables for long-range coulomb
  G vector (1/distance) = 0.30191443
  grid = 36 36 36
  stencil order = 5
  estimated absolute RMS force accuracy = 0.00029044865
  estimated relative force accuracy = 8.7467747e-07
  using double precision cuFFT
  3d grid and FFT values/proc = 79507 46656
Generated 28 of 28 mixed pair_coeff terms from sixthpower/sixthpower mixing rule
Neighbor list info ...
  update: every = 1 steps, delay = 0 steps, check = yes
  max neighbors/atom: 4000, page size: 100000
  master list distance cutoff = 11.5
  ghost atom cutoff = 11.5
  binsize = 11.5, bins = 5 5 5
  1 neighbor lists, perpetual/occasional/extra = 1 0 0
  (1) pair lj/class2/coul/long/kk, perpetual
      attributes: full, newton off, kokkos_device
      pair build: full/bin/kk/device
      stencil: full/bin/3d
      bin: kk/device
Per MPI rank memory allocation (min/avg/max) = 63.61 | 63.61 | 63.61 Mbytes
   Step          Time           Temp          Press         Enthalpy        TotEng         KinEng         PotEng         E_bond        E_angle        E_dihed        E_impro         E_vdwl         E_coul         E_long         E_tail         Volume           Lx             Ly             Lz          Density          Pxx            Pyy            Pzz      
         0   0              750            5726.4209      49232.538      38836.519      24187.038      14649.481      4911.6004      5119.9155      3722.403       378.2402      -440.05572      8148.7202     -7191.3425     -878.4708       124482.38      49.930889      49.930889      49.930889      1.1809204      4499.2439      5725.6679      6954.3509    
       500   500            700.07504      1770.2591      53597.622      50270.17       22576.989      27693.181      9678.5729      8666.803       6863.675       847.47024      644.18596      8172.4128     -7179.9391     -848.46937      128884.02      50.512596      50.512596      50.512596      1.1405897      2695.5433      2052.135       563.09891    
      1000   1000           753.38156      1217.4998      56487.329      54126.904      24296.091      29830.813      10484.479      9168.9793      7232.2185      923.78909      1010.0364      8183.2964     -7171.9857     -822.60221      132936.84      51.036606      51.036606      51.036606      1.1058167      653.29078      234.24308      2764.9655    
      1500   1500           758.93179      1627.1746      58194.119      54989.435      24475.083      30514.353      10704.35       9486.594       7270.7323      949.84031      1079.9885      8191.6044     -7168.7573     -809.76718      135043.93      51.304842      51.304842      51.304842      1.0885627      543.68238      995.51199      3342.3296    
      2000   2000           753.2193       163.04706      54771.225      54449.092      24290.858      30158.233      10751.601      9265.9974      7147.1336      945.22766      1053.076       8167.8746     -7172.6769     -807.21428      135471.02      51.358871      51.358871      51.358871      1.0851309     -2280.9474     -156.01724      2926.1058    
      2500   2500           743.43551      165.4965       54446.845      54117.023      23975.337      30141.686      10410.61       9420.4211      7187.3063      931.94864      1168.3053      8186.7533     -7163.658      -800.24146      136651.43      51.507609      51.507609      51.507609      1.0757574     -553.38132      1100.0735     -50.202627    
      3000   3000           745.31634     -525.33163      53009.809      54054.758      24035.993      30018.765      10299.264      9435.7062      7256.4578      927.42844      1085.5717      8179.1517     -7164.8148     -801.76963      136390.97      51.474864      51.474864      51.474864      1.0778117      497.78147     -195.1934      -1878.5829    
      3500   3500           751.07638     -200.35624      53970.588      54370.025      24221.751      30148.274      10394.128      9195.5325      7288.5301      944.92137      1307.9313      8180.0065     -7162.7759     -799.95568      136700.25      51.513742      51.513742      51.513742      1.0753732     -541.23413      692.09434     -751.92893    
      4000   4000           759.46702      43.358151      54905.477      54818.291      24492.344      30325.948      10289.293      9505.8216      7327.0211      972.86645      1198.5356      8196.0595     -7163.65       -793.11563      137879.19      51.661408      51.661408      51.661408      1.0661782      1168.4473     -1585.7261      547.35331    
      4500   4500           748.62784      383.96055      55369.96       54602.66       24142.787      30459.873      10578.122      9370.0252      7326.6854      913.5221       1227.1476      8201.4875     -7157.117      -798.05485      137025.84      51.554609      51.554609      51.554609      1.072818       593.08295      51.185036      507.61368    
      5000   5000           745.11543      526.95141      55323.202      54265.485      24029.514      30235.971      10241.308      9374.7242      7447.3705      975.11253      1135.4585      8216.3897     -7154.3923     -794.53334      137633.17      51.630663      51.630663      51.630663      1.068084       124.47956      2.6550564      1453.7196    
      5500   5500           753.29699     -1001.7069      52300.279      54325.629      24293.364      30032.265      10090.708      9332.0692      7389.2259      951.30174      1226.6239      8203.8806     -7161.544      -788.77246      138638.39      51.756055      51.756055      51.756055      1.0603397     -1428.792      -1495.56       -80.768755    
      6000   6000           757.02955      537.8967       55669.903      54578.96       24413.737      30165.224      10335.632      9187.583       7333.7938      926.8139       1350.5459      8195.8232     -7164.9677     -786.33587      139067.98      51.809458      51.809458      51.809458      1.0570642      403.73812      1411.7453     -201.79332    
      6500   6500           746.29676      299.02428      55456.391      54846.179      24067.611      30778.569      10477.443      9603.229       7396.4958      964.67343      1307.3427      8191.6293     -7162.245      -781.51449      139925.93      51.915782      51.915782      51.915782      1.0505829      430.24107      318.72474      148.10702    
      7000   7000           756.61269     -1928.3671      50923.725      54820.572      24400.293      30420.279      10393.657      9247.5807      7459.5403      945.22942      1340.7613      8193.5756     -7160.0648     -789.20065      138563.17      51.746693      51.746693      51.746693      1.0609153     -2794.1762     -271.63593     -2719.2891    
      7500   7500           757.62369     -427.6957       53806.438      54675.332      24432.897      30242.435      10185.62       9501.7121      7299.0728      945.9814       1271.3929      8198.133      -7159.4773     -785.01702      139301.62      51.838455      51.838455      51.838455      1.0552913      1071.7876     -1945.0326     -409.84206    
      8000   8000           750.5372       423.41992      55467.665      54602.883      24204.362      30398.52       10389.611      9384.5568      7310.8486      939.52208      1315.256       8212.6684     -7153.9422     -780.86414      140042.47      51.930191      51.930191      51.930191      1.0497086      322.1614      -197.60529      1145.7036    
      8500   8500           760.25131     -68.547944      54726.701      54867.035      24517.636      30349.398      10297.345      9439.361       7296.8137      935.34949      1321.9957      8218.7615     -7160.2281     -779.01025      140375.74      51.971353      51.971353      51.971353      1.0472165      1149.3293     -575.99711     -778.97598    
      9000   9000           758.72469      1316.8788      57991.975      55285.567      24468.404      30817.163      10480.729      9577.4912      7251.2991      972.51881      1469.0653      8221.8272     -7155.7677     -776.00346      140919.65      52.038391      52.038391      52.038391      1.0431745      2058.6511      1387.336       504.64924    
      9500   9500           743.83189     -471.51952      53518.021      54493.846      23988.12       30505.726      10452.602      9259.1926      7342.7823      957.24454      1465.4399      8185.7463     -7157.2812     -770.61693      141904.67      52.159357      52.159357      52.159357      1.0359334      691.4597      -1351.8493     -754.16892    
     10000   10000          752.01273     -545.48915      53593.318      54721.418      24251.947      30469.471      10231.023      9311.389       7345.4111      960.67725      1569.2315      8206.3702     -7154.6315     -771.16929      141803.03      52.146901      52.146901      52.146901      1.0366759      621.48331     -1174.847      -1083.1037    
     10500   10500          756.07314      30.094431      54939.611      54877.466      24382.893      30494.573      10414.901      9257.8488      7330.5907      918.89082      1523.4406      8205.8916     -7156.9906     -772.30727      141594.08      52.121276      52.121276      52.121276      1.0382057     -821.90484      75.326463      836.86167    
     11000   11000          765.99036     -1281.4634      52261.091      54901.518      24702.717      30198.8        10193.357      9309.2687      7340.7897      931.56622      1379.6172      8205.1051     -7160.9035     -774.00411      141283.67      52.083159      52.083159      52.083159      1.0404868     -2015.5342     -2151.7843      322.92819    
     11500   11500          753.74443      741.36238      56199.651      54681.576      24307.794      30373.782      10261.233      9480.9251      7203.8019      943.01644      1430.3227      8213.0912     -7158.6083     -778.84011      140406.41      51.975137      51.975137      51.975137      1.0469877      2063.1046      264.52499     -103.54248    
     12000   12000          751.71048     -500.51114      53277.275      54303.427      24242.2        30061.228      10173.979      9345.4036      7153.4729      904.21102      1446.3926      8193.1238     -7155.3549     -777.88112      140579.5       51.996487      51.996487      51.996487      1.0456986     -748.56018      490.05704     -1243.0303    
     12500   12500          752.59993     -1326.6479      52087.517      54831.491      24270.884      30560.607      10430.474      9343.034       7374.1199      946.43047      1402.9213      8218.1326     -7154.505      -771.05757      141823.57      52.149419      52.149419      52.149419      1.0365257     -684.32312     -1420.3063     -1875.3143    
     13000   13000          749.55029     -1806.0831      51065.329      54850.039      24172.535      30677.503      10466.392      9401.3771      7426.9958      907.45246      1426.1379      8203.9545     -7154.8063     -761.05533      143687.5       52.376885      52.376885      52.376885      1.0230798     -2277.8359     -3075.5768     -64.836569    
     13500   13500          746.99505     -440.21447      53704.468      54612.959      24090.13       30522.829      10228.908      9454.1686      7405.207       940.34884      1439.9427      8209.7397     -7155.4862     -772.77811      141507.81      52.110688      52.110688      52.110688      1.0388387     -303.53849     -1072.2496      55.144693    
     14000   14000          743.56617     -199.0044       53840.665      54246.672      23979.551      30267.121      10079.728      9471.6899      7355.5787      938.19397      1358.345       8220.113      -7156.5278     -781.69917      139892.87      51.911693      51.911693      51.911693      1.0508312      1239.0704     -562.53779     -1273.5458    
     14500   14500          749.79498     -143.83824      54376.494      54672.134      24180.426      30491.708      10469.05       9302.9378      7388.1327      953.18156      1345.1233      8194.702      -7161.4188     -775.92964      140933.06      52.040041      52.040041      52.040041      1.0430752     -222.11396      127.94039     -337.34115    
     15000   15000          746.80461     -1578.1352      51441.526      54705.943      24083.989      30621.954      10263.524      9359.1845      7615.4411      895.99581      1433.9709      8208.5889     -7154.7504     -770.99178      141835.68      52.150902      52.150902      52.150902      1.0364373     -3476.2136     -1463.4219      205.22985    
     15500   15500          753.83255     -159.77322      54274.463      54605.232      24310.635      30294.597      10314.837      9304.6555      7279.9319      920.02124      1411.8578      8209.946      -7146.6522     -770.35307      141953.27      52.165311      52.165311      52.165311      1.0355787     -1038.7399     -237.21941      796.63964    
     16000   16000          755.90243     -28.163071      54676.941      54735.806      24377.388      30358.418      10228.029      9286.237       7328.7633      964.72142      1477.0668      8223.4632     -7149.8629     -763.02294      143316.98      52.331825      52.331825      52.331825      1.0257249     -675.27211      101.93133      488.85157    
     16500   16500          745.47422      376.12666      55319.818      54533.039      24041.084      30491.954      10116.855      9461.7522      7406.7673      939.60154      1532.0178      8194.7216     -7159.7614     -762.41665      143430.94      52.345693      52.345693      52.345693      1.0249098      185.79722      359.35956      583.2232     
     17000   17000          742.87758     -123.6449       54340.194      54597.089      23957.344      30639.745      10351.602      9464.6265      7398.4385      979.28804      1396.2749      8202.6878     -7153.1722     -767.59365      142463.58      52.227746      52.227746      52.227746      1.0318692     -36.584477     -184.75759     -149.59262    
     17500   17500          745.99388     -134.80104      54566.726      54844.355      24057.843      30786.512      10442.823      9304.1866      7582.9202      981.52548      1418.5473      8209.9971     -7153.4881     -774.3521       141220.18      52.075356      52.075356      52.075356      1.0409546      1028.8878     -253.99412     -1179.2968    
     18000   18000          752.28892     -656.25132      53585.989      54932.224      24260.854      30671.37       10408.939      9585.7132      7339.6207      944.67575      1370.2032      8183.0303     -7160.8123     -777.42825      140661.39      52.006581      52.006581      52.006581      1.0450898     -256.79169     -2190.5184      478.55613    
     18500   18500          750.81586     -416.20897      53981.009      54839.09       24213.349      30625.741      10277.879      9434.8722      7456.3238      940.27759      1480.9478      8196.571      -7161.1308     -773.56031      141364.72      52.093118      52.093118      52.093118      1.0398902      623.24378     -1209.2104     -662.66031    
     19000   19000          740.88699      523.17547      55424.927      54330.47       23893.149      30437.321      10308.912      9393.5471      7177.4338      904.20253      1593.8728      8213.0713     -7153.719      -762.35909      143441.77      52.34701       52.34701       52.34701       1.0248325     -811.84112      1865.0138      516.35371    
     19500   19500          748.92698     -283.86588      54129.195      54721.758      24152.434      30569.324      10266.864      9452.2592      7355.16        957.76125      1467.2742      8219.8314     -7149.8255     -763.99325      143134.96      52.309661      52.309661      52.309661      1.0270292     -773.80319     -819.17029      741.37583    
     20000   20000          737.12875      143.35636      55081.326      54786.157      23771.948      31014.209      10449.499      9312.9525      7670.2965      988.67424      1547.0818      8196.7161     -7151.0113     -774.56495      141181.37      52.070586      52.070586      52.070586      1.0412407     -530.74067     -272.79121      1233.6009    
     20500   20500          752.54003     -292.35742      53991.741      54593.782      24268.952      30324.83       10189.956      9278.1866      7399.8093      972.24857      1448.7188      8190.9401     -7155.0291     -774.46022      141200.46      52.072933      52.072933      52.072933      1.0410999      197.59388     -2457.7739      1383.1077    
     21000   21000          744.77689     -933.76973      52557.082      54491.018      24018.596      30472.422      10510.106      9292.989       7299.7521      921.77112      1414.4647      8187.5975     -7154.2579     -770.03178      142012.5       52.172566      52.172566      52.172566      1.0351468     -2192.3502      757.02971     -1365.9887    
     21500   21500          746.70711     -1083.6648      52572.128      54811.868      24080.844      30731.024      10530.616      9375.9249      7437.5437      943.25596      1407.7444      8191.4937     -7155.5548     -771.62858      141718.62      52.136552      52.136552      52.136552      1.0372934     -3032.9376     -250.99786      32.941137    
     22000   22000          747.5617      -805.27813      53372.809      55040.423      24108.404      30932.018      10623.315      9422.1286      7418.6878      942.26676      1482.4247      8199.0496     -7155.854      -770.12554      141995.21      52.170448      52.170448      52.170448      1.0352728     -35.42408      -1607.417      -772.99327    
     22500   22500          741.05918     -791.76245      53078.384      54723.72       23898.702      30825.018      10491.124      9375.0326      7402.0124      948.88645      1566.2577      8198.052      -7156.3477     -767.45232      142489.82      52.230952      52.230952      52.230952      1.0316792     -1629.2072     -890.1379       144.05779    
     23000   23000          756.02133     -1600.9931      51369.163      54691.117      24381.222      30309.895      10383.91       9147.5781      7356.387       919.04234      1446.0404      8205.8118     -7148.8743     -768.61163      142274.9       52.204679      52.204679      52.204679      1.0332377     -1529.7278     -1802.6562     -1470.5953    
     23500   23500          739.56306      300.76363      54980.403      54353.545      23850.453      30503.092      10586.089      9016.5992      7429.0646      937.1347       1488.7106      8197.8284     -7152.3343     -765.18577      142911.88      52.282472      52.282472      52.282472      1.0286323     -12.723126     -643.48868      1558.5027    
     24000   24000          759.68835     -90.566497      54751.07       54940.402      24499.481      30440.92       10530.825      9175.354       7154.7784      922.46172      1588.502       8218.3641     -7149.3647     -762.87653      143344.48      52.335172      52.335172      52.335172      1.0255281     -1440.924       604.90257      564.32193    
     24500   24500          749.32144     -1011.8535      52783.339      54915.497      24165.155      30750.342      10274.367      9301.4625      7576.6481      937.3671       1606.5469      8204.7773     -7150.8272     -756.8492       144486.04      52.473733      52.473733      52.473733      1.0174256     -2093.0012     -2605.6129      1663.0537    
     25000   25000          745.27962      517.23141      55941.805      54851.001      24034.809      30816.192      10393.346      9412.2741      7417.9068      935.02587      1596.0717      8210.5188     -7148.9514     -756.22172      144605.92      52.488242      52.488242      52.488242      1.0165821      647.50486      1316.4777     -412.28838    
     25500   25500          746.26252      361.27622      55436.156      54674.819      24066.506      30608.312      10414.783      9305.9181      7328.3333      948.33498      1549.8599      8216.6206     -7155.5371     -756.78662      144497.98      52.475179      52.475179      52.475179      1.0173414     -930.30736      177.78285      1836.3531    
     26000   26000          750.2705       1863.5827      58591.49       54698.922      24195.761      30503.16       10359.963      9271.1275      7311.4032      939.26233      1572.785       8202.9582     -7154.3389     -763.52549      143222.65      52.320341      52.320341      52.320341      1.0264004      2698.9306      1090.1971      1801.6205    
     26500   26500          763.96789     -723.41651      53746.656      55249.89       24637.494      30612.396      10278.221      9256.4381      7616.4586      932.07021      1469.6988      8214.3998     -7154.8898     -767.4902       142482.78      52.230093      52.230093      52.230093      1.0317302     -267.17555      376.45234     -2279.5263    
     27000   27000          759.48121     -199.82947      54629.192      55046.415      24492.801      30553.614      10296.239      9401.3371      7423.6676      900.9063       1476.9893      8210.4321     -7155.9568     -763.83907      143163.85      52.31318       52.31318       52.31318       1.026822      -613.75675     -440.80926      455.07761    
     27500   27500          749.2368       1154.1485      57169.113      54747.084      24162.425      30584.658      10475.315      9305.9815      7193.4824      943.93539      1602.781       8216.2561     -7153.0932     -759.96484      143893.68      52.401925      52.401925      52.401925      1.0216139     -1146.7587      2570.0106      2039.1936    
     28000   28000          753.3479      -792.40472      53484.55       55156.576      24295.006      30861.57       10283.898      9508.3157      7484.4595      921.24657      1619.7698      8202.0671     -7158.1866     -755.81432      144683.87      52.497671      52.497671      52.497671      1.0160344     -1414.7303      344.00384     -1306.4877    
     28500   28500          755.87694     -315.15043      54402.079      55066.265      24376.566      30689.699      10392.255      9215.782       7459.8082      973.37126      1599.4376      8204.1666     -7155.1213     -756.72744      144509.28      52.476547      52.476547      52.476547      1.0172619     -938.31673      473.97492     -481.10949    
     29000   29000          750.02179      449.72742      55904.473      54959.304      24187.741      30771.563      10302.256      9382.4686      7473.939       948.46253      1609.3981      8204.3735     -7149.3342     -758.8415       144106.69      52.42777       52.42777       52.42777       1.0201038      21.492615     -261.37583      1589.0655    
     29500   29500          745.2314       363.1479       55246.697      54486.641      24033.253      30453.388      10379.659      9144.1379      7475.0288      951.41248      1477.6584      8180.1053     -7154.6139     -761.98958      143511.33      52.35547       52.35547       52.35547       1.0243357      1062.2699     -695.58969      722.76348    
     30000   30000          744.40749     -926.97008      52587.286      54524.638      24006.683      30517.955      10370.117      9380.7236      7274.7501      896.47903      1528.0241      8221.7208     -7153.8595     -763.07683      143306.85      52.330593      52.330593      52.330593      1.0257973     -1642.7253      672.12547     -1810.3104    
     30500   30500          754.57433      558.07062      55769.614      54600.521      24334.557      30265.963      9997.8642      9280.3534      7436.5967      929.62554      1567.43        8208.9138     -7154.8203     -761.29193      143642.85      52.371458      52.371458      52.371458      1.0233979      1759.4448      1566.0185     -1651.2514    
     31000   31000          753.22913     -107.26098      54690.79       54916.177      24291.175      30625.001      10312.556      9431.7949      7325.2741      929.17366      1555.2779      8220.1831     -7149.258      -758.96899      144082.49      52.424834      52.424834      52.424834      1.0202752     -501.28073     -191.38867      370.88647    
     31500   31500          759.0633      -1015.3495      52560.251      54697.336      24479.324      30218.012      10153.948      9306.9803      7304.6186      929.84891      1474.034       8198.1669     -7149.5846     -757.71312      144321.3       52.453782      52.453782      52.453782      1.0185869     -663.71489     -1971.5997     -410.73392    
     32000   32000          746.50919     -770.98439      53275.18       54895.554      24074.462      30821.092      10418.103      9436.7697      7380.8644      975.92175      1542.7022      8214.5765     -7147.8448     -758.82461      144109.9       52.428159      52.428159      52.428159      1.0200811     -1781.9817     -270.9027      -260.06879    
     32500   32500          753.59448     -377.78917      54452.211      55250.235      24302.958      30947.278      10254.754      9426.0509      7587.6979      964.19615      1665.9759      8202.7331     -7154.1297     -754.9956       144840.77      52.516641      52.516641      52.516641      1.0149338     -1532.0959      794.86944     -396.14108    
     33000   33000          756.22496      1157.0789      57429.03       55008.799      24387.789      30621.01       10311.477      9418.5759      7308.1587      954.05228      1584.3518      8199.9842     -7155.5899     -762.46049      143422.7       52.344689      52.344689      52.344689      1.0249688     -924.08827      2259.4015      2135.9234    
     33500   33500          752.86101      153.14136      55210.2        54892.054      24279.304      30612.751      10360.307      9330.823       7360.271       942.97925      1554.6201      8214.8457     -7151.0956     -767.67592      142448.31      52.225881      52.225881      52.225881      1.0319798     -1249.3546      806.55021      902.22844    
     34000   34000          746.75411     -833.83558      52906.297      54635.113      24082.36       30552.753      10408.061      9271.8743      7382.3444      940.81762      1493.5271      8205.7985     -7149.6705     -769.20637      142164.89      52.191221      52.191221      52.191221      1.0340372     -834.74089     -2591.5373      924.77144    
     34500   34500          749.35567      697.4118       55901.52       54457.879      24166.259      30291.621      10215.526      9200.8503      7340.3468      924.14879      1541.101       8213.3316     -7143.6834     -770.44428      141936.47      52.163253      52.163253      52.163253      1.0357013      613.04174      1554.6957     -75.502097    
     35000   35000          747.84956      858.06671      56453.353      54676.324      24117.687      30558.637      10406.446      9419.6835      7201.3784      938.68148      1542.1018      8199.7141     -7149.3685     -770.08308      142003.04      52.171407      52.171407      52.171407      1.0352158     -165.00604      1712.7619      1026.4442    
     35500   35500          751.14837     -1024.2481      52539.302      54680.32       24224.072      30456.248      10067.658      9538.9823      7432.2519      891.7547       1490.6755      8189.9154     -7154.99       -762.9497       143330.73      52.333499      52.333499      52.333499      1.0256264     -774.80938     -1991.3121     -306.62269    
     36000   36000          754.44533      1028.7176      57301.486      55167.798      24330.397      30837.401      10490.527      9312.3476      7391.9289      958.75104      1608.907       8226.1255     -7151.1858     -768.91155      142219.4       52.19789       52.19789       52.19789       1.0336409      1249.9008      78.934765      1757.3172    
     36500   36500          747.36358     -1105.1326      52822.057      55130.954      24102.015      31028.939      10458.503      9574.2888      7526.0418      904.41116      1512.7707      8203.5492     -7150.6251     -763.34516      143256.48      52.32446       52.32446       52.32446       1.026158      -1815.4878     -558.73583     -941.17412    
     37000   37000          752.08551      449.86234      55633.524      54697.021      24254.294      30442.727      10362.513      9415.2035      7134.9324      893.46126      1592.7617      8199.5405     -7155.6857     -766.09362      142742.53      52.261812      52.261812      52.261812      1.0298528      11.89595       482.50152      855.18955    
     37500   37500          742.81689     -1061.2176      52300.789      54504.157      23955.387      30548.77       10336.552      9273.5927      7511.9086      965.79872      1407.9194      8207.9775     -7154.9794     -768.11908      142366.13      52.215835      52.215835      52.215835      1.0325756     -511.97605     -1882.3018     -789.37498    
     38000   38000          764.48905      765.12064      56824.578      55240.243      24654.301      30585.942      10393.709      9418.5981      7220.113       926.19569      1577.4065      8202.2969     -7152.3768     -770.18324      141984.58      52.169145      52.169145      52.169145      1.0353504      1000.5631      37.557186      1257.2416    
     38500   38500          756.05742      929.36175      57092.464      55146.67       24382.386      30764.284      10563.266      9419.173       7317.7786      924.78907      1485.5376      8209.8287     -7156.0889     -761.72637      143560.92      52.3615        52.3615        52.3615        1.0239819      2289.5779     -801.45463      1299.9619    
     39000   39000          752.11429     -1121.4872      52317.55       54678.585      24255.222      30423.363      10118.497      9141.8814      7553.4625      958.09934      1597.0603      8207.3492     -7152.9869     -757.53546      144355.14      52.457882      52.457882      52.457882      1.0183481     -744.95413     -1753.9976     -865.50999    
     39500   39500          760.74091      725.96167      56314.513      54800.395      24533.426      30266.969      10373.93       9060.5074      7295.5971      928.63941      1561.3699      8200.262      -7153.3369     -764.65442      143011.19      52.29458       52.29458       52.29458       1.0279181      1300.182       1487.4416     -609.73854    
     40000   40000          754.31185     -315.63329      54107.118      54762.368      24326.092      30436.276      10130.839      9297.1853      7479.9556      960.99406      1515.8424      8205.6154     -7154.1561     -768.22224      142347.01      52.213497      52.213497      52.213497      1.0327143      986.05683     -301.39152     -1631.5652    
     40500   40500          743.78814      1423.9381      57325.275      54346.836      23986.709      30360.126      10315.612      9185.9394      7307.3195      916.17315      1573.3932      8216.215      -7154.5261     -762.45358      143424         52.344848      52.344848      52.344848      1.0249595      750.79574      1711.2465      1809.772     
     41000   41000          742.9813       2864.5572      60615.077      54605.663      23960.689      30644.974      10480.573      9345.5342      7233.8879      971.93689      1560.8977      8202.6059     -7150.4619     -760.21505      143846.32      52.396176      52.396176      52.396176      1.0219503      3903.7183      2571.1818      2118.7716    
     41500   41500          741.58163      370.30046      55384.464      54616.952      23915.551      30701.401      10397.062      9256.6643      7535.7639      989.75627      1486.8963      8187.6975     -7152.4396     -769.44954      142119.96      52.185722      52.185722      52.185722      1.0343641      232.93606      57.161084      820.80422    
     42000   42000          738.58669     -2046.1806      50199.223      54403.191      23818.966      30584.225      10358.813      9333.5627      7568.7592      946.19376      1339.9024      8191.7322     -7154.7382     -776.23946      140876.81      52.033117      52.033117      52.033117      1.0434917     -1313.2366     -1925.2425     -2900.0628    
     42500   42500          743.91165     -1145.4793      52365.057      54733.603      23990.692      30742.911      10418.059      9529.1779      7409.0723      965.59881      1384.5659      8196.0837     -7159.6467     -771.28789      141781.22      52.144228      52.144228      52.144228      1.0368354     -1794.0797     -1810.0337      167.67536    
     43000   43000          758.66553      1563.741       58311.562      55070.509      24466.496      30604.013      10446.049      9327.8488      7303.8005      969.83221      1512.8561      8201.8359     -7158.2094     -769.46647      142116.84      52.185339      52.185339      52.185339      1.0343869      1022.4663      918.13835      2750.6183    
     43500   43500          754.15915      1041.3047      57114.2        54955.184      24321.168      30634.016      10234.759      9468.7671      7394.7518      949.92336      1518.8833      8221.2229     -7154.2914     -769.18927      142168.05      52.191607      52.191607      52.191607      1.0340142      940.31649      1821.6452      361.95234    
     44000   44000          751.36369      264.91437      55287.307      54738.664      24231.016      30507.648      10379.281      9345.2088      7268.0158      920.11924      1542.0677      8203.0065     -7150.0517     -770.06306      142006.73      52.171859      52.171859      52.171859      1.0351888      321.5575      -737.27632      1210.4619    
     44500   44500          738.34865     -618.889        53163.584      54457.012      23811.289      30645.723      10279.133      9375.4412      7431.0024      963.83619      1532.2875      8210.5841     -7146.5621     -763.10011      143302.48      52.330061      52.330061      52.330061      1.0258286      1130.5597     -1570.4924     -1416.7342    
     45000   45000          743.21133      258.99376      55123.612      54584.442      23968.108      30616.334      10265.896      9453.8561      7377.3565      921.38379      1555.4461      8198.2029     -7155.8066     -766.08154      142744.78      52.262086      52.262086      52.262086      1.0298365     -978.63684     -882.36663      2637.9848    
     45500   45500          752.05098      2074.1083      59054.977      54769.271      24253.181      30516.09       10203.25       9423.6777      7289.4844      946.10822      1607.6074      8201.4882     -7155.5259     -771.82743      141682.11      52.132075      52.132075      52.132075      1.0375607      1216.3975      2261.3731      2744.5542    
     46000   46000          753.557       -434.08921      54101.614      54996.61       24301.749      30694.861      10343.475      9467.9918      7505.0308      930.88743      1405.6522      8196.4856     -7154.6618     -773.51583      141372.85      52.094116      52.094116      52.094116      1.0398304     -1472.4088      114.34145      55.799735    
     46500   46500          758.25168      341.76381      55568.269      54861.643      24453.15       30408.493      10378.149      9247.9594      7322.8058      912.76377      1500.7121      8199.769      -7153.666      -771.34281      141771.13      52.14299       52.14299       52.14299       1.0369092     -407.00822      634.95981      797.33982    
     47000   47000          744.79915      301.57586      55330.974      54700.801      24019.314      30681.488      10503.037      9426.1987      7238.856       929.70388      1527.8017      8207.3364     -7151.446      -763.21667      143280.6       52.327396      52.327396      52.327396      1.0259853     -521.05849      586.01084      839.77523    
     47500   47500          749.68288      831.23687      56630.899      54886.464      24176.811      30709.653      10519.082      9421.6622      7158.1         960.15893      1588.4822      8212.9687     -7150.801      -759.94289      143897.84      52.40243       52.40243       52.40243       1.0215844      2343.1413      482.24792     -331.6786     
     48000   48000          761.34482     -873.70273      53423.066      55237.105      24552.901      30684.203      10163.098      9307.669       7596.1906      973.56664      1569.6301      8222.66       -7148.6113     -768.11846      142366.25      52.215849      52.215849      52.215849      1.0325747     -1112.2698     -2056.136       547.29764    
     48500   48500          758.02294      1036.3368      57456.094      55302.031      24445.773      30856.258      10310.11       9324.7782      7631.3427      980.78657      1547.9163      8209.9397     -7148.6165     -767.27953      142521.91      52.234873      52.234873      52.234873      1.031447       1312.5534      1297.3297      499.12739    
     49000   49000          752.81148      303.59486      55453.894      54817.429      24277.707      30539.722      10406.543      9196.8798      7434.6343      985.01139      1474.428       8194.2696     -7152.0436     -760.73002      143748.95      52.38435       52.38435       52.38435       1.0226425      859.06262     -531.00526      582.72724    
     49500   49500          750.87006     -283.00453      54161.478      54751.427      24215.097      30536.33       10330.787      9298.9312      7429.4733      941.13502      1504.4467      8189.5072     -7157.9499     -765.05086      142937.09      52.285545      52.285545      52.285545      1.028451      -1665.0747      1742.8646     -926.80346    
     50000   50000          752.05656      682.6131       56379.578      54968.352      24253.361      30714.992      10497.76       9363.901       7298.9893      939.31839      1573.4016      8196.4869     -7154.8657     -771.41714      141757.47      52.141315      52.141315      52.141315      1.0370091     -1296.3327      2968.9993      375.17267    
     50500   50500          750.56994     -1535.7657      51665.692      54828.123      24205.418      30622.705      10083.385      9556.8087      7588.4969      931.31115      1423.1973      8199.1961     -7159.6903     -774.48861      141195.28      52.072296      52.072296      52.072296      1.0411381     -970.22894     -222.00531     -3415.0627    
     51000   51000          739.80881      372.74277      55154.713      54381.491      23858.378      30523.113      10507.347      9314.9395      7245.1103      882.56507      1527.1193      8201.5023     -7155.471      -768.80487      142239.14      52.200304      52.200304      52.200304      1.0334975      232.73724      830.46897      55.022115    
     51500   51500          751.5965      -686.46468      53594.511      55025.828      24238.524      30787.304      10357.736      9409.7103      7497.1806      956.54882      1535.8365      8192.8813     -7162.5895     -764.88006      142969         52.289437      52.289437      52.289437      1.0282214     -1587.7772      1253.0153     -1724.6321    
     52000   52000          748.792       -353.90002      54315.021      55053.255      24148.081      30905.175      10392.055      9544.4589      7402.1494      974.40817      1564.2686      8181.3281     -7153.494      -764.53479      143033.57      52.297307      52.297307      52.297307      1.0277572     -1534.6834      284.48326      188.50009    
     52500   52500          754.90962     -740.70455      53667.536      55207.744      24345.37       30862.373      10490.617      9368.7779      7514.4241      930.53891      1538.0889      8179.9264     -7159.9996     -766.96748      142579.89      52.241956      52.241956      52.241956      1.0310275     -2928.0659      1907.6332     -1201.681     
     53000   53000          744.77417      745.93951      56187.052      54644.947      24018.508      30626.439      10413.809      9345.5376      7403.9355      973.63845      1436.6537      8205.6621     -7152.7966     -771.4377       141753.69      52.140852      52.140852      52.140852      1.0370368      1255.7675     -154.40602      1136.457     
     53500   53500          751.3185      -735.27386      53180.671      54705.501      24229.559      30475.943      10342.612      9285.3837      7371.978       915.10567      1507.8657      8206.4758     -7153.4783     -769.02184      142199.01      52.195395      52.195395      52.195395      1.0337891     -1626.3985     -94.406601     -485.01644    
     54000   54000          758.28211     -231.54713      54368.215      54851.168      24454.131      30397.037      10154.839      9400.3012      7412.9844      930.83238      1435.1411      8210.4013     -7147.4626     -764.62066      143017.51      52.295349      52.295349      52.295349      1.0278727     -433.27898     -940.96567      679.60324    
     54500   54500          754.67644      540.70897      56322.456      55195.941      24337.85       30858.091      10466.017      9454.8761      7328.8535      953.38425      1619.2775      8192.5957     -7156.9126     -765.48707      142855.63      52.275612      52.275612      52.275612      1.0290374     -942.01131      117.94414      2446.1941    
     55000   55000          759.28075     -327.57235      54511.4        55190.71       24486.336      30704.374      10390.943      9482.4899      7367.0395      950.69474      1451.956       8214.1159     -7152.8653     -769.04256      142195.17      52.194926      52.194926      52.194926      1.033817       84.436411     -23.513752     -1043.6397    
     55500   55500          756.51254      286.76502      55564.998      54972.504      24397.063      30575.44       10293.492      9456.9697      7302.8008      919.92531      1551.9692      8209.9833     -7159.7003     -771.88589      141671.38      52.130758      52.130758      52.130758      1.0376393     -1299.5348      666.15334      1493.6765    
     56000   56000          742.25984     -223.4051       54380.798      54847.055      23937.422      30909.633      10549.701      9293.8435      7390.1352      972.38256      1646.5469      8209.101      -7152.0772     -764.15049      143105.5       52.306072      52.306072      52.306072      1.0272406      156.8331      -868.38856      41.340174    
     56500   56500          743.78599      1298.3715      57357.744      54667.129      23986.64       30680.489      10331.114      9457.8287      7393.4389      914.92227      1544.652       8202.3069     -7163.7744     -769.58823      142094.35      52.182587      52.182587      52.182587      1.0345505      1241.8502      230.95043      2422.3137    
     57000   57000          744.95026      299.02775      54806.181      54189.41       24024.187      30165.223      10343.539      9135.8102      7300.8807      906.31815      1433.4306      8207.677      -7162.4324     -773.21226      141428.36      52.100933      52.100933      52.100933      1.0394223      197.75529      1065.2852     -365.95726    
     57500   57500          748.32739      862.43909      56663.624      54867.316      24133.097      30734.219      10410.197      9399.4586      7296.2521      940.71161      1654.6785      8190.2811     -7157.3598     -765.69996      142815.92      52.270767      52.270767      52.270767      1.0293236      541.28765      1654.9264      391.10322    
     58000   58000          742.31635      343.82255      55187.274      54472.258      23939.245      30533.013      10157.007      9386.748       7490.5326      957.40884      1504.1486      8197.6805     -7160.5122     -766.88444      142595.33      52.243841      52.243841      52.243841      1.0309159      1500.3911      845.48545     -1314.4089    
     58500   58500          744.76353     -645.97644      53179.582      54502.328      24018.165      30484.163      10337.023      9367.1664      7356.6968      910.13952      1469.5385      8204.8667     -7161.2681     -778.8457       140405.4       51.975012      51.975012      51.975012      1.0469953     -1442.8212     -479.05197     -16.056195    
     59000   59000          750.71623      643.81386      56101.288      54777.589      24210.136      30567.453      10336.294      9227.2994      7495.5211      975.00039      1486.92        8204.1959     -7157.7779     -775.67931      140978.54      52.045638      52.045638      52.045638      1.0427387      762.81412     -559.80447      1728.4319    
     59500   59500          752.44854     -313.73699      54309.225      54959.508      24266.002      30693.506      10475.991      9442.7914      7325.7062      944.20171      1459.9414      8204.2534     -7159.3784     -769.43878      142121.95      52.185965      52.185965      52.185965      1.0343496      1851.3845     -2276.7126     -515.88295    
     60000   60000          746.58303      127.72038      55315.86       55050.626      24076.843      30973.783      10536.476      9478.0868      7456.1937      962.16224      1481.4992      8213.9951     -7154.6301     -767.9646       142394.77      52.219336      52.219336      52.219336      1.0323679      66.40262       68.49556       248.26296    
     60500   60500          756.18135      200.56899      55677.151      55259.385      24386.383      30873.002      10543.681      9386.9491      7457.6552      965.99347      1492.033       8187.3131     -7160.6224     -765.66961      142821.57      52.271457      52.271457      52.271457      1.0292828     -2.9973232     -72.135385      676.83969    
     61000   61000          758.84679     -859.07523      53180.552      54961.774      24472.342      30489.433      10247.886      9276.925       7421.3091      927.78724      1577.9871      8196.4648     -7158.9265     -769.17317      142171.03      52.191971      52.191971      52.191971      1.0339926     -527.43056     -100.61628     -1949.1789    
     61500   61500          747.73059     -827.79655      52515.114      54223.483      24113.851      30109.633      10086.419      9256.9442      7402.9165      918.30414      1406.4975      8197.0875     -7158.5365     -772.77485      141508.41      52.110761      52.110761      52.110761      1.0388343      1215.8422     -2980.7184     -718.51346    
     62000   62000          749.63633      564.34825      55750.587      54587.742      24175.31       30412.433      10324.631      9256.9786      7362.9603      943.02116      1473.5052      8208.327      -7156.9903     -773.99232      141285.82      52.083424      52.083424      52.083424      1.0404709      1227.5486      789.21315     -323.71701    
     62500   62500          740.34513     -1110.9976      52292.469      54600.014      23875.674      30724.339      10218.677      9440.7198      7568.371       958.91432      1506.0173      8184.617      -7152.9768     -767.84588      142416.78      52.222027      52.222027      52.222027      1.0322083     -1975.1444      733.15105     -2090.9994    
     63000   63000          746.10158     -144.08385      54564.977      54864.714      24061.316      30803.398      10324.097      9515.6112      7489.5949      913.36332      1510.9818      8203.1645     -7153.4145     -766.62929      142642.79      52.249637      52.249637      52.249637      1.0305729     -111.41005     -1959.9015      1639.06      
     63500   63500          750.82395      317.47094      55589.473      54925.58       24213.61       30711.97       10510.865      9524.7439      7156.7219      933.09057      1537.6858      8203.9345     -7155.0715     -762.63535      143389.81      52.340689      52.340689      52.340689      1.0252038      760.53928     -56.497225      248.37078    
     64000   64000          742.89462     -417.92244      53592.475      54458.503      23957.894      30500.609      10292.487      9337.1626      7405.7412      936.13895      1457.4274      8218.6834     -7147.0323     -769.61784      142088.88      52.181918      52.181918      52.181918      1.0345903     -69.402899      839.79634     -2024.1608    
     64500   64500          745.84808      828.78323      56133.272      54412.053      24053.141      30358.912      10408.759      9213.7014      7197.3496      921.86856      1590.6627      8183.5619     -7156.9912     -767.91954      142403.12      52.220357      52.220357      52.220357      1.0323073      689.97766      890.74783      905.62419    
     65000   65000          744.52676     -96.275292      54443.553      54644.557      24010.529      30634.027      10272.171      9372.3267      7468.804       916.37233      1565.8503      8194.0058     -7155.5034     -763.87565      143156.99      52.312345      52.312345      52.312345      1.0268712     -297.242        514.48544     -506.06932    
     65500   65500          747.80035      1546.886       57969.266      54758.289      24116.101      30642.189      10577.668      9372.0247      7227.7618      928.98999      1489.2282      8204.8091     -7158.2928     -768.30258      142332.13      52.211677      52.211677      52.211677      1.0328223      1430.0854      2711.3034      499.26923    
     66000   66000          752.36875     -295.92138      54120.318      54734.829      24263.429      30471.4        10320.931      9233.91        7469.7377      933.42234      1476.7415      8190.9863     -7154.3287     -767.99476      142389.17      52.218652      52.218652      52.218652      1.0324084     -1488.3854      537.82952      62.791723    
     66500   66500          741.07658     -995.62636      52676.212      54767.29       23899.263      30868.027      10643.722      9403.4779      7233.4402      902.47412      1635.2423      8199.209      -7149.5389     -759.34169      144011.77      52.416256      52.416256      52.416256      1.0207762     -273.34745     -1743.1758     -970.35582    
     67000   67000          759.45248      535.7295       56544.766      55424.029      24491.875      30932.155      10371.215      9438.673       7432.6254      941.62512      1696.502       8203.3131     -7151.799      -762.34769      143443.92      52.347271      52.347271      52.347271      1.0248171      88.729185      138.47574      1379.9836    
     67500   67500          756.34864      124.87768      55477.683      55215.806      24391.778      30824.028      10566.119      9306.3112      7332.1977      940.9857       1636.5179      8195.9351     -7154.039      -760.49675      143793.04      52.389705      52.389705      52.389705      1.0223289     -1215.9158      330.72529      1259.8236    
     68000   68000          755.59465     -134.01011      54776.668      55057.37       24367.462      30689.908      10421.603      9290.4074      7448.5225      948.47231      1511.0438      8222.9263     -7153.0674     -761.38307      143625.65      52.369369      52.369369      52.369369      1.0235204      161.56696      0.033842325   -563.63113    
     68500   68500          743.47178     -1791.8611      50494.58       54241.997      23976.507      30265.49       10313.137      9260.9558      7231.7159      897.1733       1524.6214      8195.7332     -7157.847      -762.57664      143400.85      52.342032      52.342032      52.342032      1.0251249     -1586.4219     -1423.7776     -2365.3839    
     69000   69000          740.77109      902.8168       56335.089      54462.81       23889.411      30573.399      10368.669      9181.8779      7407.2815      955.54615      1627.2586      8192.8919     -7160.1263     -769.02458      142198.5       52.195333      52.195333      52.195333      1.0337928      423.04012      1954.8766      330.53368    
     69500   69500          743.47779     -1288.6027      51709.976      54396.472      23976.701      30419.771      10290.271      9259.2674      7361.1973      936.96585      1512.3125      8212.8333     -7153.0762     -764.96919      142952.35      52.287406      52.287406      52.287406      1.0283412     -2321.8553     -1338.8728     -205.08002    
     70000   70000          754.37978      614.33167      56150.433      54869.154      24328.283      30540.871      10383.713      9228.7983      7447.084       930.54301      1499.6694      8209.3901     -7158.3275     -764.6633       143009.53      52.294377      52.294377      52.294377      1.02793        432.45449      1039.5431      370.99745    
     70500   70500          750.2591       281.22405      55584.201      54995.938      24195.394      30800.544      10300.222      9270.1684      7645.8307      978.53311      1544.7708      8213.9447     -7152.9258     -762.41555      143431.15      52.345718      52.345718      52.345718      1.0249084      1749.0302     -1122.4055      217.04749    
     71000   71000          758.98605      1791.7576      58404.424      54636.392      24476.832      30159.559      10354.758      9162.0293      7124.8173      893.91204      1554.1134      8220.5558     -7150.6262     -758.36057      144198.08      52.43885       52.43885       52.43885       1.0194573      1615.3196      2738.8622      1021.0911    
     71500   71500          749.6175       1180.2819      57058.559      54582.152      24174.703      30407.45       10229.789      9284.2345      7334.9468      944.32511      1572.2842      8194.6894     -7152.819      -760.10737      143866.7       52.39865       52.39865       52.39865       1.0218055      112.92466      1471.0271      1956.8939    
     72000   72000          747.65688      1518.6841      57945.191      54791.71       24111.474      30680.236      10408.297      9220.6952      7499.6187      958.72858      1542.3315      8202.8791     -7152.314      -768.04812      142379.28      52.217443      52.217443      52.217443      1.0324802      365.84582      3181.0024      1009.2042    
     72500   72500          756.01242      982.95426      56887.756      54835.708      24380.935      30454.774      10345.516      9410.3865      7084.649       909.05357      1659.1946      8196.9504     -7150.9763     -763.93618      143145.65      52.310963      52.310963      52.310963      1.0269525      941.92737      438.75385      1568.1816    
     73000   73000          737.16727      256.87635      55235.362      54692.038      23773.19       30918.848      10460.881      9492.4397      7315.6947      947.82902      1621.0406      8219.2356     -7138.2726     -754.00932      145030.22      52.539529      52.539529      52.539529      1.0136079      360.32815      892.46641     -482.1655     
     73500   73500          743.24659     -12.470763      54199.74       54225.87       23969.245      30256.625      10184.073      9258.029       7273.9515      931.94407      1544.1203      8204.9555     -7140.4488     -761.16213      143667.34      52.374435      52.374435      52.374435      1.0232234     -1320.829       1091.6881      191.72856    
     74000   74000          744.8496       204.00183      55018.974      54594.148      24020.941      30573.207      10328.602      9402.4314      7347.7749      910.93251      1535.4798      8198.041      -7150.0543     -765.833        142791.11      52.26774       52.26774       52.26774       1.0295024      818.25154     -520.43742      314.19137    
     74500   74500          745.28358      82.725708      54989.311      54815.964      24034.936      30781.028      10301.284      9606.5197      7307.5325      918.66484      1623.8497      8175.3333     -7152.1556     -761.0896       143681.03      52.376099      52.376099      52.376099      1.0231259      409.05905     -655.62956      494.74763    
     75000   75000          755.91572      836.7153       56799.979      55038.872      24377.816      30661.055      10205.873      9407.1697      7398.6604      922.62465      1675.731       8199.6605     -7148.6645     -757.70997      144321.9       52.453855      52.453855      52.453855      1.0185827      1452.1485      1214.6397     -156.6423     
     75500   75500          752.85889      596.90175      55939.364      54680.471      24279.235      30401.236      10223.606      9074.7013      7438.6055      966.67797      1646.953       8193.4208     -7142.7289     -756.17982      144613.94      52.489211      52.489211      52.489211      1.0165257      638.27024     -291.96218      1444.3972    
     76000   76000          745.42246      2541.6794      59678.504      54318.558      24039.415      30279.144      10339.292      9159.8564      7198.9744      897.22768      1618.7715      8210.3021     -7145.2811     -756.2606       144598.49      52.487342      52.487342      52.487342      1.0166343      1915.0536      2640.3784      3069.6062    
     76500   76500          745.64418     -872.92599      52919.217      54763.4        24046.565      30716.835      10141.635      9460.7021      7537.6596      957.07162      1551.062       8215.8687     -7147.1643     -754.8913       144860.78      52.519059      52.519059      52.519059      1.0147936     -1459.9839      534.5587      -1693.3527    
     77000   77000          750.94345     -655.62732      53564.414      54936.01       24217.464      30718.547      10461.171      9299.1863      7386.6506      938.40911      1580.1522      8199.4938     -7146.5167     -762.32796      143447.63      52.347723      52.347723      52.347723      1.0247906     -424.02596     -1455.8498     -87.006195    
     77500   77500          757.77958     -783.9928       53203.359      54825.624      24437.924      30387.7        10156.111      9130.5483      7618.3851      944.70617      1510.6641      8181.8351     -7154.5497     -770.72857      141884.11      52.156838      52.156838      52.156838      1.0360835     -424.00146      1308.0329     -3236.0099    
     78000   78000          741.80774     -1114.2395      52105.855      54416.808      23922.843      30493.965      10183.376      9293.6253      7501.8491      926.60847      1537.2189      8201.2356     -7149.9474     -768.95065      142212.17      52.197005      52.197005      52.197005      1.0336934     -1835.0124     -1202.8694     -304.83659    
[...]
   3226000   3226000        251.58695      1158.4862      22965.211      20902.33       8113.524       12788.806      4391.8234      4538.6566      3395.2372      327.30544     -798.2318       8140.4828     -7206.4672     -895.62853      122097.65      49.609986      49.609986      49.609986      1.2039854      1342.9887      661.1478       1471.3222    
   3226500   3226500        249.81994      667.50025      22142.766      20944.779      8056.5391      12888.24       4354.2905      4583.4045      3383.5157      330.50671     -714.3293       8154.1081     -7203.2561     -888.60831      123062.25      49.740287      49.740287      49.740287      1.1945482     -42.716778      1021.3363      1023.8813    
   3227000   3227000        248.54401      707.89425      21955.761      20693.603      8015.3911      12678.212      4341.6529      4485.1685      3345.4678      316.26635     -754.08537      8145.0533     -7201.3113     -894.47048      122255.73      49.631386      49.631386      49.631386      1.2024286      621.76277      1004.1272      497.79276    
   3227500   3227500        248.16551     -356.60799      20090.208      20729.073      8003.1848      12725.889      4343.0337      4530.3454      3354.7683      317.93855     -751.08227      8133.3153     -7202.4303     -890.21053      122840.76      49.710428      49.710428      49.710428      1.196702      -102.24711     -887.85014     -79.726727    
   3228000   3228000        248.92863      173.05881      21107.501      20799.252      8027.7949      12771.457      4264.8033      4554.2349      3480.3952      329.92889     -785.15803      8133.2626     -7206.0096     -895.37095      122132.78      49.614743      49.614743      49.614743      1.2036391      1077.0139     -647.95049      90.113014    
   3228500   3228500        249.96259     -390.72995      20219.093      20917.456      8061.1396      12856.316      4391.722       4561.2034      3436.6414      321.37273     -793.71961      8142.1891     -7203.0928     -892.2914       122554.29      49.671755      49.671755      49.671755      1.1994993     -750.83263      54.992666     -476.34988    
   3229000   3229000        251.1762       44.187644      21093.095      21013.941      8100.2777      12913.663      4374.4947      4600.933       3457.1861      339.70572     -794.95442      8138.3057     -7202.0074     -890.30155      122828.2       49.708734      49.708734      49.708734      1.1968244      1233.6025     -1292.7997      191.76012    
   3229500   3229500        253.56155      967.3485       22690.375      20964.626      8177.2038      12787.422      4396.1507      4530.3964      3393.1438      329.41736     -798.03104      8140.5832     -7204.2382     -893.9567       122325.99      49.640893      49.640893      49.640893      1.2017379      180.66651      1764.1513      957.22766    
   3230000   3230000        252.22144      4.1074302      20902.542      20895.178      8133.9862      12761.192      4316.5969      4620.0884      3337.1103      314.17633     -774.97615      8150.1523     -7201.9559     -889.59318      122926.01      49.721924      49.721924      49.721924      1.1958721     -115.70739      319.00423     -190.97455    
   3230500   3230500        254.59916      207.33306      21281.068      20911.01       8210.666       12700.344      4271.6406      4547.5084      3458.0652      330.15028     -846.20893      8145.0168     -7205.828      -893.53312      122383.98      49.648735      49.648735      49.648735      1.2011685     -229.10233      894.73887     -43.637344    
   3231000   3231000        252.59677     -1028.255       19185.815      21024.21       8146.0902      12878.12       4402.4985      4549.0378      3449.3465      313.28585     -775.51135      8144.4312     -7204.9686     -892.01704      122591.99      49.676847      49.676847      49.676847      1.1991305     -350.23537     -1825.4644     -909.0653     
   3231500   3231500        250.50764     -962.70643      19223.83       20941.101      8078.7172      12862.384      4349.7282      4540.3319      3486.3757      319.09337     -772.10762      8144.7379     -7205.7756     -894.05907      122311.99      49.638998      49.638998      49.638998      1.2018756     -1546.9104     -502.60075     -838.60815    
   3232000   3232000        250.50219     -150.1376       20597.783      20868.01       8078.5414      12789.469      4369.9704      4549.2947      3375.4553      327.7542      -758.06106      8130.3669     -7205.3118     -886.07853      123413.6       49.787579      49.787579      49.787579      1.1911474     -934.54947     -316.23963      800.3763     
   3232500   3232500        249.06953     -836.27897      19292.049      20784.642      8032.3388      12752.303      4337.3978      4492.9471      3477.9123      321.15163     -804.9099       8133.2211     -7205.4166     -893.55419      122381.1       49.648345      49.648345      49.648345      1.2011969     -1124.1973     -919.87239     -464.76724    
   3233000   3233000        247.43411     -304.23486      20186.293      20731.091      7979.5975      12751.494      4335.5381      4556.904       3390.3302      322.87735     -779.86008      8129.721      -7204.0167     -890.60379      122786.52      49.70311       49.70311       49.70311       1.1972307     -369.45196     -10.580963     -532.67166    
   3233500   3233500        247.67513      173.18918      21136.827      20826.651      7987.3703      12839.281      4363.3397      4526.8449      3420.1757      327.06589     -732.37857      8140.3298     -7206.0964     -890.48047      122803.52      49.705404      49.705404      49.705404      1.1970649      55.615886      144.75253      319.19911    
   3234000   3234000        251.97863      835.86347      22412.282      20918.05       8126.1557      12791.894      4391.2287      4593.9228      3355.1375      324.24        -798.48635      8131.5359     -7205.6842     -892.13043      122576.4       49.674743      49.674743      49.674743      1.1992829      457.4388       1378.2426      671.90898    
   3234500   3234500        251.48515      952.50008      22667.367      20967.313      8110.241       12857.072      4372.9954      4678.0909      3328.4278      322.37918     -779.59265      8141.4122     -7206.6406     -893.53897      122383.18      49.648627      49.648627      49.648627      1.2011764      78.749568      1539.0076      1239.7431    
   3235000   3235000        251.46996      62.788792      21028.442      20916.056      8109.7512      12806.304      4400.9207      4570.4894      3369.0709      320.96641     -800.65576      8146.3713     -7200.8585     -891.0026       122731.56      49.695693      49.695693      49.695693      1.1977668     -443.84339     -3.6693125      635.87908    
   3235500   3235500        248.3782       269.55099      21269.834      20789.101      8010.044       12779.057      4340.9422      4551.9811      3403.0617      304.8596      -753.03603      8137.2251     -7205.9764     -894.22825      122288.85      49.635867      49.635867      49.635867      1.202103       915.24734     -40.319247     -66.275128    
   3236000   3236000        250.34853      51.949639      20894.973      20802.037      8073.5859      12728.451      4313.1463      4504.4571      3428.6512      318.52405     -790.12143      8154.7111     -7200.917      -891.48193      122665.57      49.686785      49.686785      49.686785      1.1984111     -67.022781     -16.946051      239.81775    
   3236500   3236500        255.80082      68.495589      21204.783      21082.347      8249.4187      12832.928      4379.0149      4604.3384      3405.9674      317.6869      -813.47941      8140.7174     -7201.3171     -892.20516      122566.14      49.673356      49.673356      49.673356      1.1993834     -58.160891     -320.94482      584.59248    
   3237000   3237000        250.27858     -244.23397      20463.922      20899.894      8071.3301      12828.563      4402.8548      4580.2401      3429.9179      321.15785     -845.91372      8144.6995     -7204.3929     -893.42656      122398.58      49.650709      49.650709      49.650709      1.2010253     -744.10903      499.49866     -488.09154    
   3237500   3237500        249.37407      657.40712      22009.143      20838.232      8042.1602      12796.072      4335.6849      4545.1598      3425.9379      328.35135     -758.11417      8124.6844     -7205.6322     -895.40943      122127.53      49.614032      49.614032      49.614032      1.2036908      517.97263      558.93826      895.31047    
   3238000   3238000        250.29281      601.07322      21924.246      20846.929      8071.789       12775.14       4397.004       4515.2704      3355.3557      312.02551     -756.36132      8153.1806     -7201.3348     -889.8051       122896.73      49.717977      49.717977      49.717977      1.196157       844.38159      1131.9091     -173.07104    
   3238500   3238500        248.65363     -329.65545      20239.526      20830.973      8018.9265      12812.046      4342.9043      4561.6975      3459.0751      330.78653     -817.74129      8138.0046     -7202.6805     -888.90608      123021.03      49.734732      49.734732      49.734732      1.1949484     -194.00739     -789.55796     -5.4010068    
   3239000   3239000        251.65969      634.98912      22040.019      20904.653      8115.8701      12788.783      4394.1385      4547.6231      3363.9767      319.88905     -764.85525      8134.9862     -7206.9752     -891.95209      122600.91      49.678053      49.678053      49.678053      1.1990432      171.37815      1483.2128      250.37641    
   3239500   3239500        251.71521     -387.26071      20246.174      20938.472      8117.6603      12820.812      4378.5351      4611.6192      3410.2893      326.93116     -846.58275      8146.1055     -7206.0855     -892.11639      122578.33      49.675003      49.675003      49.675003      1.199264      -809.45773     -772.54816      420.22374    
   3240000   3240000        248.46216     -75.394673      20750.751      20885.124      8012.7514      12872.372      4386.7553      4591.517       3376.1752      325.71291     -735.51709      8133.0691     -7205.34       -894.82786      122206.9       49.624778      49.624778      49.624778      1.202909      -22.219256      467.44904     -671.41381    
   3240500   3240500        252.04579      34.62253       20918.256      20856.379      8128.3214      12728.058      4338.1778      4520.7902      3395.1424      329.53217     -795.26966      8143.8025     -7204.1178     -892.35547      122545.49      49.670566      49.670566      49.670566      1.1995854     -238.78984      123.54706      219.11038    
   3241000   3241000        248.06566      687.74666      22015.969      20787.182      7999.9648      12787.218      4289.7476      4619.6         3359.6632      327.85697     -739.61429      8133.9938     -7204.0298     -892.61271      122510.18      49.665795      49.665795      49.665795      1.1999312      356.82418      133.08092      1573.3349    
   3241500   3241500        248.13142     -152.19974      20440.482      20711.951      8002.0854      12709.866      4326.977       4610.5903      3353.1782      308.98665     -822.01886      8139.9845     -7207.8317     -894.13817      122301.16      49.637534      49.637534      49.637534      1.2019819     -963.69659      249.57841      257.51896    
   3242000   3242000        249.23417     -736.99492      19554.902      20872.857      8037.6486      12835.208      4358.656       4526.0453      3468.4366      320.74861     -764.63771      8130.1906     -7204.2312     -891.81542      122619.7       49.680591      49.680591      49.680591      1.1988594     -1156.2908     -709.95281     -344.74113    
   3242500   3242500        249.11251     -414.68096      20028.641      20769.932      8033.7251      12736.207      4343.7525      4542.0568      3372.888       329.67755     -785.81551      8138.8758     -7205.2281     -892.14747      122574.06      49.674426      49.674426      49.674426      1.1993058     -1227.6507      990.91028     -1007.3025    
   3243000   3243000        250.92457     -1306.4646      18476.6        20805.498      8092.1627      12713.336      4277.6965      4587.3727      3446.5678      311.05929     -844.49256      8140.195      -7205.0632     -894.66043      122229.77      49.627874      49.627874      49.627874      1.202684      -1488.5458     -1557.6858     -873.16225    
   3243500   3243500        254.59688     -34.08666       21016.113      21077.202      8210.5926      12866.609      4396.8727      4553.3436      3416.8549      320.6421      -758.46462      8142.5557     -7205.1952     -889.88515      122885.68      49.716486      49.716486      49.716486      1.1962646     -571.69756      160.20212      309.23546    
   3244000   3244000        250.44182      103.29468      20972.703      20788.213      8076.5944      12711.619      4256.8677      4562.0695      3442.2758      317.48824     -795.32139      8135.5711     -7207.332      -892.92841      122466.86      49.659941      49.659941      49.659941      1.2003556      883.87874     -682.72339      108.7287     
   3244500   3244500        250.75138      497.00367      21773.064      20887.465      8086.5774      12800.887      4384.1273      4631.8704      3408.3066      306.51144     -860.24687      8137.4855     -7207.1672     -895.02088      122180.55      49.621211      49.621211      49.621211      1.2031685     -28.338515      686.15235      833.19719    
   3245000   3245000        252.92372      835.94081      22476.59       20977.253      8156.6341      12820.619      4325.7125      4616.0092      3369.5955      328.09383     -743.61709      8128.6016     -7203.7766     -889.17529      122983.78      49.729713      49.729713      49.729713      1.1953103      987.07046      1143.5231      377.22892    
   3245500   3245500        249.39881     -305.42303      20322.848      20868.109      8042.9578      12825.151      4319.6849      4658.6745      3388.5088      320.29784     -793.1568       8134.8614     -7203.7194     -893.32248      122412.84      49.652637      49.652637      49.652637      1.2008854      615.49091     -230.15765     -1301.6024    
   3246000   3246000        250.10365      659.5974       22018.881      20838.917      8065.6888      12773.229      4382.2427      4519.9111      3367.9361      318.19525     -749.11766      8141.7473     -7207.6862     -891.50009      122663.07      49.686448      49.686448      49.686448      1.1984355      562.78692     -395.67866      1811.6839    
   3246500   3246500        250.16355     -466.63904      19961.863      20796.081      8067.6204      12728.461      4326.3227      4534.3916      3420.9821      318.08875     -800.14959      8134.3256     -7205.5004     -892.09784      122580.88      49.675348      49.675348      49.675348      1.1992391     -560.8319      -1186.166       347.0808     
   3247000   3247000        245.01373     -1068.2806      18827.203      20739.753      7901.5418      12838.212      4362.344       4518.3406      3509.5829      329.53556     -797.1936       8124.89       -7209.2879     -890.80703      122758.51      49.69933       49.69933       49.69933       1.1975039     -1354.8814     -1135.1113     -714.84903    
   3247500   3247500        250.69906      771.27472      22209.932      20833.212      8084.8904      12748.322      4350.8884      4471.5697      3396.7446      325.6141      -719.71452      8129.7338     -7206.514      -893.45887      122394.15      49.650111      49.650111      49.650111      1.2010687      1029.7865      958.91413      325.12357    
   3248000   3248000        252.35893      208.89936      21279.264      20905.892      8138.4201      12767.472      4413.8389      4486.5009      3401.8526      324.0216      -785.12526      8131.4824     -7205.0989     -892.29201      122554.21      49.671744      49.671744      49.671744      1.1995001      398.38104     -22.527947      250.84498    
   3248500   3248500        248.55501      915.54179      22436.525      20802.587      8015.746       12786.841      4362.7972      4626.4389      3348.6248      318.04394     -803.74091      8140.2562     -7205.579      -893.62163      122371.86      49.647096      49.647096      49.647096      1.2012875      1231.1037      857.30167      658.22       
   3249000   3249000        248.78312     -373.49783      20080.642      20748.584      8023.1024      12725.482      4285.9576      4597.1039      3436.4144      316.45071     -848.59804      8142.5677     -7204.4145     -891.78487      122623.9       49.681158      49.681158      49.681158      1.1988184      484.39311     -278.78564     -1326.1009    
   3249500   3249500        253.01213      598.19963      21943.35       20873.344      8159.4853      12713.858      4437.9818      4512.4096      3351.2982      322.40242     -842.01357      8137.3171     -7205.5372     -891.60173      122649.09      49.684559      49.684559      49.684559      1.1985722      946.29929      536.07658      312.22301    
   3250000   3250000        253.81556     -362.97458      20306.078      20954.68       8185.3954      12769.285      4298.5791      4597.9334      3429.331       319.92717     -808.42766      8134.426      -7202.484      -892.50126      122525.47      49.667862      49.667862      49.667862      1.1997814     -130.83196     -1291.9796      333.88778    
Loop time of 662.883 on 1 procs for 125000 steps with 10820 atoms

Performance: 16.292 ns/day, 1.473 hours/ns, 188.570 timesteps/s, 2.040 Matom-step/s
100.0% CPU use with 1 MPI tasks x 1 OpenMP threads

MPI task timing breakdown:
Section |  min time  |  avg time  |  max time  |%varavg| %total
---------------------------------------------------------------
Pair    | 345.61     | 345.61     | 345.61     |   0.0 | 52.14
Bond    | 98.299     | 98.299     | 98.299     |   0.0 | 14.83
Kspace  | 128.3      | 128.3      | 128.3      |   0.0 | 19.35
Neigh   | 29.201     | 29.201     | 29.201     |   0.0 |  4.41
Comm    | 4.1155     | 4.1155     | 4.1155     |   0.0 |  0.62
Output  | 0.042774   | 0.042774   | 0.042774   |   0.0 |  0.01
Modify  | 39.193     | 39.193     | 39.193     |   0.0 |  5.91
Other   |            | 18.13      |            |       |  2.73

Nlocal:          10820 ave       10820 max       10820 min
Histogram: 1 0 0 0 0 0 0 0 0 0
Nghost:          23186 ave       23186 max       23186 min
Histogram: 1 0 0 0 0 0 0 0 0 0
Neighs:              0 ave           0 max           0 min
Histogram: 1 0 0 0 0 0 0 0 0 0
FullNghs:    6.076e+06 ave   6.076e+06 max   6.076e+06 min
Histogram: 1 0 0 0 0 0 0 0 0 0

Total # of neighbors = 6075998
Ave neighs/atom = 561.5525
Ave special neighs/atom = 5.7689464
Neighbor list builds = 3547
Dangerous builds = 0
  unfix npt_tg
  shell echo '{"stage":"T${temps}","status":"done"}' >> /home/arz2/PolyJarvis/data/PSU2/lammps/thermal/tg_sweep_r160/tg_progress.jsonl
  print "STAGE COMPLETE: Tg step T=${temps}K P=1.0atm steps=125000"
STAGE COMPLETE: Tg step T=250K P=1.0atm steps=125000
  next temps
  jump SELF TEMP_LOOP

write_data tg_step_out.data
System init for write_data ...
PPPM Kokkos initialization ...
  using 12-bit tables for long-range coulomb
  G vector (1/distance) = 0.30234817
  grid = 36 36 36
  stencil order = 5
  estimated absolute RMS force accuracy = 0.00028587588
  estimated relative force accuracy = 8.6090672e-07
  using double precision cuFFT
  3d grid and FFT values/proc = 79507 46656
Generated 28 of 28 mixed pair_coeff terms from sixthpower/sixthpower mixing rule
Total wall time: 4:50:17
