units real
atom_style full
boundary p p p

# --- Force Field Styles ---
pair_style lj/class2/coul/long 9.5 9.5
kspace_style pppm 1e-6
dielectric 1.000000
bond_style class2
angle_style class2
dihedral_style class2
improper_style class2
special_bonds lj/coul 0 0 1
pair_modify mix sixthpower tail yes
neighbor 2.0 bin
neigh_modify delay 0 every 1 check yes
neigh_modify one 4000
package gpu 1 neigh no

read_data /home/arz2/PolyJarvis/data/PMMA1/lammps/minimize/minimize_out.data
Reading data file ...
  orthogonal box = (0 0 0) to (48.042983 48.042983 48.042983)
  1 by 1 by 1 MPI processor grid
  reading atoms ...
  6020 atoms
  reading velocities ...
  6020 velocities
  scanning bonds ...
  4 = max bonds/atom
  scanning angles ...
  6 = max angles/atom
  scanning dihedrals ...
  32 = max dihedrals/atom
  scanning impropers ...
  4 = max impropers/atom
  orthogonal box = (0 0 0) to (48.042983 48.042983 48.042983)
  1 by 1 by 1 MPI processor grid
  reading bonds ...
  6010 bonds
  reading angles ...
  11200 angles
  reading dihedrals ...
  15110 dihedrals
  reading impropers ...
  6800 impropers
Finding 1-2 1-3 1-4 neighbors ...
  special bond factors lj:    0        0        1       
  special bond factors coul:  0        0        1       
     4 = max # of 1-2 neighbors
    11 = max # of 1-3 neighbors
    15 = max # of special neighbors
  special bonds CPU = 0.003 seconds
  read_data CPU = 0.228 seconds
include /home/arz2/PolyJarvis/data/PMMA1/lammps/emc_build.params
# LAMMPS parameters created by EMC v9.4.4, build Jul 31 2025 20:33:44

# Variables

variable	seed		index	-1
variable	ntotal		index	6020
variable	fshape		index	1
variable	output		index	emc_build
variable	field		index	pcff/pcff
variable	location1	index	/home/arz2/emc/field/
variable	nav		index	0.6022141179
variable	temperature	index	300
variable	radius		index	5
variable	nrelax		index	100
variable	weight_nonbond	index	0.0001
variable	weight_bond	index	0.0001
variable	weight_focus	index	1
variable	cutoff		index	9.5
variable	charge_cutoff	index	9.5
variable	kappa		index	4
variable	density1	index	0.6
variable	lprevious	index	0
variable	lphase		index	48.0429825444
variable	f_poly		index	1
variable	chem_repeat	index	*CC(C)(C(=O)OC)*
variable	chem_cap	index	*[H]
variable	lg_repeat	index	15
variable	lg_cap		index	1
variable	norm_poly	index	100
variable	l_poly		index	602
variable	mg_repeat	index	88.10716
variable	mg_cap		index	1.00797
variable	m_poly		index	3526.30234
variable	norm		index	602
variable	n_poly		index	10
variable	mtotal		index	40067.4834
variable	nphase1		index	6020
variable	mphase1		index	40067.4834
variable	vphase1		index	110889.361466
variable	lbox		index	48.0429825444
variable	lphase1		index	48.0429825444
variable	lxx		index	48.0429825444
variable	lyy		index	48.0429825444
variable	lzz		index	48.0429825444
variable	lzy		index	0
variable	lzx		index	0
variable	lyx		index	0
variable	vtotal		index	110889.361466
variable	nl_poly		index	10

# Types

variable	type_c		index	1
variable	type_c1		index	2
variable	type_c_1	index	3
variable	type_hc		index	4
variable	type_o_1	index	5
variable	type_o_2	index	6

variable	type_bond_c_c	index	1
variable	type_bond_c_c1	index	2
variable	type_bond_c_c_1	index	3
variable	type_bond_c_hc	index	4
variable	type_bond_c_o_2	index	5
variable	type_bond_c1_c_1 index	6
variable	type_bond_c1_hc	index	7
variable	type_bond_c_1_o_1 index	8
variable	type_bond_c_1_o_2 index	9

variable	type_angle_c_c_c index	1
variable	type_angle_c_c_c1 index	2
variable	type_angle_c_c_c_1 index	3
variable	type_angle_c_c_hc index	4
variable	type_angle_c_c1_c index	5
variable	type_angle_c_c1_c_1 index	6
variable	type_angle_c_c1_hc index	7
variable	type_angle_c_c_1_o_1 index	8
variable	type_angle_c_c_1_o_2 index	9
variable	type_angle_c_o_2_c_1 index	10
variable	type_angle_c1_c_hc index	11
variable	type_angle_c1_c_1_o_1 index	12
variable	type_angle_c1_c_1_o_2 index	13
variable	type_angle_c_1_c1_hc index	14
variable	type_angle_hc_c_hc index	15
variable	type_angle_hc_c_o_2 index	16
variable	type_angle_o_1_c_1_o_2 index	17

# Clusters

variable	n0_poly		index	1
variable	n1_poly		index	10
variable	nl_poly		index	10

# Flags

variable	flag_charged	index	1

# Masses

mass		1    12.01115  # c
mass		2    12.01115  # c1
mass		3    12.01115  # c_1
mass		4     1.00797  # hc
mass		5    15.99940  # o_1
mass		6    15.99940  # o_2

# Potentials

pair_modify	mix sixthpower tail yes
special_bonds	lj/coul 0 0 1

# Pair Coeffs

pair_coeff	 1  1    0.05400    4.01000  # c,c
pair_coeff	 2  2    0.05400    4.01000  # c1,c1
pair_coeff	 3  3    0.12000    3.81000  # c_1,c_1
pair_coeff	 4  4    0.02000    2.99500  # hc,hc
pair_coeff	 5  5    0.26700    3.30000  # o_1,o_1
pair_coeff	 6  6    0.24000    3.42000  # o_2,o_2

# Bond Coeffs

bond_coeff	1    1.53000  299.67000 -501.77000  679.81000  # c,c
bond_coeff	2    1.53000  299.67000 -501.77000  679.81000  # c,c1
bond_coeff	3    1.52020  253.70670 -423.03700  396.90000  # c,c_1
bond_coeff	4    1.10100  345.00000 -691.89000  844.60000  # c,hc
bond_coeff	5    1.43000  326.72730 -608.53060  689.03330  # c,o_2
bond_coeff	6    1.52020  253.70670 -423.03700  396.90000  # c1,c_1
bond_coeff	7    1.10100  345.00000 -691.89000  844.60000  # c1,hc
bond_coeff	8    1.20200  851.14030 -1918.48820 2160.76590  # c_1,o_1
bond_coeff	9    1.36830  367.14810 -794.79080 1055.23190  # c_1,o_2

# Angle Coeffs

angle_coeff	 1  112.67000   39.51600   -7.44300   -9.55830  # c,c,c
angle_coeff	 2  112.67000   39.51600   -7.44300   -9.55830  # c,c,c1
angle_coeff	 3  108.52950   51.97470   -9.48510  -10.99850  # c,c,c_1
angle_coeff	 4  110.77000   41.45300  -10.60400    5.12900  # c,c,hc
angle_coeff	 5  112.67000   39.51600   -7.44300   -9.55830  # c,c1,c
angle_coeff	 6  108.52950   51.97470   -9.48510  -10.99850  # c,c1,c_1
angle_coeff	 7  110.77000   41.45300  -10.60400    5.12900  # c,c1,hc
angle_coeff	 8  123.14510   55.54310  -17.21230    0.13480  # c,c_1,o_1
angle_coeff	 9  100.31820   38.86310   -3.83230   -7.98020  # c,c_1,o_2
angle_coeff	10  113.28800   61.28680  -28.97860    7.99290  # c,o_2,c_1
angle_coeff	11  110.77000   41.45300  -10.60400    5.12900  # c1,c,hc
angle_coeff	12  123.14510   55.54310  -17.21230    0.13480  # c1,c_1,o_1
angle_coeff	13  100.31820   38.86310   -3.83230   -7.98020  # c1,c_1,o_2
angle_coeff	14  107.73360   40.60990  -28.81210    0.00000  # c_1,c1,hc
angle_coeff	15  107.66000   39.64100  -12.92100   -2.43180  # hc,c,hc
angle_coeff	16  107.68800   65.48010  -10.34980    5.88660  # hc,c,o_2
angle_coeff	17  120.79700   95.34460  -32.28690    6.37780  # o_1,c_1,o_2

# BondBond Coeffs

angle_coeff	 1 bb    0.00000    1.53000    1.53000  # c,c,c
angle_coeff	 2 bb    0.00000    1.53000    1.53000  # c,c,c1
angle_coeff	 3 bb    5.41990    1.53000    1.52020  # c,c,c_1
angle_coeff	 4 bb    3.38720    1.53000    1.10100  # c,c,hc
angle_coeff	 5 bb    0.00000    1.53000    1.53000  # c,c1,c
angle_coeff	 6 bb    5.41990    1.53000    1.52020  # c,c1,c_1
angle_coeff	 7 bb    3.38720    1.53000    1.10100  # c,c1,hc
angle_coeff	 8 bb   46.06850    1.52020    1.20200  # c,c_1,o_1
angle_coeff	 9 bb   19.10690    1.52020    1.36830  # c,c_1,o_2
angle_coeff	10 bb   45.45030    1.43000    1.36830  # c,o_2,c_1
angle_coeff	11 bb    3.38720    1.53000    1.10100  # c1,c,hc
angle_coeff	12 bb   46.06850    1.52020    1.20200  # c1,c_1,o_1
angle_coeff	13 bb   19.10690    1.52020    1.36830  # c1,c_1,o_2
angle_coeff	14 bb    0.71150    1.52020    1.10100  # c_1,c1,hc
angle_coeff	15 bb    5.33160    1.10100    1.10100  # hc,c,hc
angle_coeff	16 bb    5.64540    1.10100    1.43000  # hc,c,o_2
angle_coeff	17 bb  121.48800    1.20200    1.36830  # o_1,c_1,o_2

# BondAngle Coeffs

angle_coeff	 1 ba    8.01600    8.01600    1.53000    1.53000  # c,c,c
angle_coeff	 2 ba    8.01600    8.01600    1.53000    1.53000  # c,c,c1
angle_coeff	 3 ba   18.16780   15.87580    1.53000    1.52020  # c,c,c_1
angle_coeff	 4 ba   20.75400   11.42100    1.53000    1.10100  # c,c,hc
angle_coeff	 5 ba    8.01600    8.01600    1.53000    1.53000  # c,c1,c
angle_coeff	 6 ba   18.16780   15.87580    1.53000    1.52020  # c,c1,c_1
angle_coeff	 7 ba   20.75400   11.42100    1.53000    1.10100  # c,c1,hc
angle_coeff	 8 ba   34.99820   37.12980    1.52020    1.20200  # c,c_1,o_1
angle_coeff	 9 ba    1.34350    4.69780    1.52020    1.36830  # c,c_1,o_2
angle_coeff	10 ba   41.91160   46.46080    1.43000    1.36830  # c,o_2,c_1
angle_coeff	11 ba   20.75400   11.42100    1.53000    1.10100  # c1,c,hc
angle_coeff	12 ba   34.99820   37.12980    1.52020    1.20200  # c1,c_1,o_1
angle_coeff	13 ba    1.34350    4.69780    1.52020    1.36830  # c1,c_1,o_2
angle_coeff	14 ba   12.46320    9.17650    1.52020    1.10100  # c_1,c1,hc
angle_coeff	15 ba   18.10300   18.10300    1.10100    1.10100  # hc,c,hc
angle_coeff	16 ba    8.68640   57.49750    1.10100    1.43000  # hc,c,o_2
angle_coeff	17 ba   76.26140   71.87610    1.20200    1.36830  # o_1,c_1,o_2

# Dihedral Coeffs

dihedral_coeff	 1    0.00000    0.00000    0.05140    0.00000   -0.14300    0.00000  # c,c,c,c
dihedral_coeff	 2    0.00000    0.00000    0.05140    0.00000   -0.14300    0.00000  # c,c,c,c1
dihedral_coeff	 3    0.09720    0.00000    0.07220    0.00000   -0.25810    0.00000  # c,c,c,c_1
dihedral_coeff	 4    0.00000    0.00000    0.03160    0.00000   -0.16810    0.00000  # c,c,c,hc
dihedral_coeff	 5    0.00000    0.00000    0.05140    0.00000   -0.14300    0.00000  # c,c,c1,c
dihedral_coeff	 6    0.09720    0.00000    0.07220    0.00000   -0.25810    0.00000  # c,c,c1,c_1
dihedral_coeff	 7    0.00000    0.00000    0.03160    0.00000   -0.16810    0.00000  # c,c,c1,hc
dihedral_coeff	 8    0.04420    0.00000    0.02920    0.00000    0.05620    0.00000  # c,c,c_1,o_1
dihedral_coeff	 9    1.83410    0.00000    2.06030    0.00000   -0.01950    0.00000  # c,c,c_1,o_2
dihedral_coeff	10    0.00000    0.00000    0.03160    0.00000   -0.16810    0.00000  # c,c1,c,hc
dihedral_coeff	11    0.04420    0.00000    0.02920    0.00000    0.05620    0.00000  # c,c1,c_1,o_1
dihedral_coeff	12    1.83410    0.00000    2.06030    0.00000   -0.01950    0.00000  # c,c1,c_1,o_2
dihedral_coeff	13   -2.55940    0.00000    2.20130    0.00000    0.03250    0.00000  # c,c_1,o_2,c
dihedral_coeff	14   -2.55940    0.00000    2.20130    0.00000    0.03250    0.00000  # c,o_2,c_1,c1
dihedral_coeff	15    0.00000    0.00000    2.20890    0.00000    0.00000    0.00000  # c,o_2,c_1,o_1
dihedral_coeff	16    0.09720    0.00000    0.07220    0.00000   -0.25810    0.00000  # c1,c,c,c_1
dihedral_coeff	17   -0.02280    0.00000    0.02800    0.00000   -0.18630    0.00000  # c_1,c,c,hc
dihedral_coeff	18   -0.02280    0.00000    0.02800    0.00000   -0.18630    0.00000  # c_1,c1,c,hc
dihedral_coeff	19    0.00000    0.00000    0.00000    0.00000   -0.19320    0.00000  # c_1,o_2,c,hc
dihedral_coeff	20   -0.14320    0.00000    0.06170    0.00000   -0.10830    0.00000  # hc,c,c1,hc
dihedral_coeff	21   -0.18040    0.00000    0.00120    0.00000    0.03710    0.00000  # hc,c1,c_1,o_1
dihedral_coeff	22   -0.63590    0.00000    1.48070    0.00000   -0.04380    0.00000  # hc,c1,c_1,o_2

# MiddleBondTorsion Coeffs

dihedral_coeff	 1 mbt  -17.78700   -7.18770    0.00000    1.53000  # c,c,c,c
dihedral_coeff	 2 mbt  -17.78700   -7.18770    0.00000    1.53000  # c,c,c,c1
dihedral_coeff	 3 mbt   -1.59450    0.22670   -0.69110    1.53000  # c,c,c,c_1
dihedral_coeff	 4 mbt  -14.87900   -3.65810   -0.31380    1.53000  # c,c,c,hc
dihedral_coeff	 5 mbt  -17.78700   -7.18770    0.00000    1.53000  # c,c,c1,c
dihedral_coeff	 6 mbt   -1.59450    0.22670   -0.69110    1.53000  # c,c,c1,c_1
dihedral_coeff	 7 mbt  -14.87900   -3.65810   -0.31380    1.53000  # c,c,c1,hc
dihedral_coeff	 8 mbt    0.33880   -0.10960    0.12190    1.52020  # c,c,c_1,o_1
dihedral_coeff	 9 mbt  -17.32800   -5.79000   -3.21140    1.52020  # c,c,c_1,o_2
dihedral_coeff	10 mbt  -14.87900   -3.65810   -0.31380    1.53000  # c,c1,c,hc
dihedral_coeff	11 mbt    0.33880   -0.10960    0.12190    1.52020  # c,c1,c_1,o_1
dihedral_coeff	12 mbt  -17.32800   -5.79000   -3.21140    1.52020  # c,c1,c_1,o_2
dihedral_coeff	13 mbt    1.34450    3.55150   -4.92020    1.36830  # c,c_1,o_2,c
dihedral_coeff	14 mbt    1.34450    3.55150   -4.92020    1.36830  # c,o_2,c_1,c1
dihedral_coeff	15 mbt    4.26000    0.00000    0.00000    1.36830  # c,o_2,c_1,o_1
dihedral_coeff	16 mbt   -1.59450    0.22670   -0.69110    1.53000  # c1,c,c,c_1
dihedral_coeff	17 mbt   -3.50390    1.24580   -0.76100    1.53000  # c_1,c,c,hc
dihedral_coeff	18 mbt   -3.50390    1.24580   -0.76100    1.53000  # c_1,c1,c,hc
dihedral_coeff	19 mbt    0.00000    0.00000    0.00000    1.43000  # c_1,o_2,c,hc
dihedral_coeff	20 mbt  -14.26100   -0.53220   -0.48640    1.53000  # hc,c,c1,hc
dihedral_coeff	21 mbt    0.23590    0.91390    0.95940    1.52020  # hc,c1,c_1,o_1
dihedral_coeff	22 mbt  -13.76860   -2.59590    1.19340    1.52020  # hc,c1,c_1,o_2

# EndBondTorsion Coeffs

dihedral_coeff	 1 ebt   -0.07320    0.00000    0.00000   -0.07320    0.00000    0.00000    1.53000    1.53000  # c,c,c,c
dihedral_coeff	 2 ebt   -0.07320    0.00000    0.00000   -0.07320    0.00000    0.00000    1.53000    1.53000  # c,c,c,c1
dihedral_coeff	 3 ebt    0.00620   -0.00020    0.00360    0.00550    0.00600   -0.00090    1.53000    1.52020  # c,c,c,c_1
dihedral_coeff	 4 ebt    0.24860    0.24220   -0.09250    0.08140    0.05910    0.22190    1.53000    1.10100  # c,c,c,hc
dihedral_coeff	 5 ebt   -0.07320    0.00000    0.00000   -0.07320    0.00000    0.00000    1.53000    1.53000  # c,c,c1,c
dihedral_coeff	 6 ebt    0.00620   -0.00020    0.00360    0.00550    0.00600   -0.00090    1.53000    1.52020  # c,c,c1,c_1
dihedral_coeff	 7 ebt    0.24860    0.24220   -0.09250    0.08140    0.05910    0.22190    1.53000    1.10100  # c,c,c1,hc
dihedral_coeff	 8 ebt    0.26540    0.05030    0.10460   -0.28100    0.08160   -0.15220    1.53000    1.20200  # c,c,c_1,o_1
dihedral_coeff	 9 ebt    0.00000    0.00000    0.00000    0.00000    0.00000    0.00000    1.53000    1.36830  # c,c,c_1,o_2
dihedral_coeff	10 ebt    0.24860    0.24220   -0.09250    0.08140    0.05910    0.22190    1.53000    1.10100  # c,c1,c,hc
dihedral_coeff	11 ebt    0.26540    0.05030    0.10460   -0.28100    0.08160   -0.15220    1.53000    1.20200  # c,c1,c_1,o_1
dihedral_coeff	12 ebt    0.00000    0.00000    0.00000    0.00000    0.00000    0.00000    1.53000    1.36830  # c,c1,c_1,o_2
dihedral_coeff	13 ebt    0.00000    0.00000    0.00000    0.00000    0.00000    0.00000    1.52020    1.43000  # c,c_1,o_2,c
dihedral_coeff	14 ebt    0.00000    0.00000    0.00000    0.00000    0.00000    0.00000    1.43000    1.52020  # c,o_2,c_1,c1
dihedral_coeff	15 ebt    0.00000    0.00000    0.00000    0.00000    0.00000    0.00000    1.43000    1.20200  # c,o_2,c_1,o_1
dihedral_coeff	16 ebt    0.00620   -0.00020    0.00360    0.00550    0.00600   -0.00090    1.53000    1.52020  # c1,c,c,c_1
dihedral_coeff	17 ebt   -0.02040    0.36280   -0.44260   -0.00970   -0.03150   -0.07550    1.52020    1.10100  # c_1,c,c,hc
dihedral_coeff	18 ebt   -0.02040    0.36280   -0.44260   -0.00970   -0.03150   -0.07550    1.52020    1.10100  # c_1,c1,c,hc
dihedral_coeff	19 ebt    0.00000    0.00000    0.00000    0.00000    0.00000    0.00000    1.36830    1.10100  # c_1,o_2,c,hc
dihedral_coeff	20 ebt    0.21300    0.31200    0.07770    0.21300    0.31200    0.07770    1.10100    1.10100  # hc,c,c1,hc
dihedral_coeff	21 ebt    1.21430    0.28310    0.39160   -0.22980    0.03540    0.38530    1.10100    1.20200  # hc,c1,c_1,o_1
dihedral_coeff	22 ebt    0.00000    0.00000    0.00000    0.00000    0.00000    0.00000    1.10100    1.36830  # hc,c1,c_1,o_2

# AngleTorsion Coeffs

dihedral_coeff	 1 at    0.38860   -0.31390    0.13890    0.38860   -0.31390    0.13890  112.67000  112.67000  # c,c,c,c
dihedral_coeff	 2 at    0.38860   -0.31390    0.13890    0.38860   -0.31390    0.13890  112.67000  112.67000  # c,c,c,c1
dihedral_coeff	 3 at   -0.26070    0.32030   -0.22830    0.05150   -0.06740   -0.04740  112.67000  108.52950  # c,c,c,c_1
dihedral_coeff	 4 at   -0.24540    0.00000   -0.11360    0.31130    0.45160   -0.19880  112.67000  110.77000  # c,c,c,hc
dihedral_coeff	 5 at    0.38860   -0.31390    0.13890    0.38860   -0.31390    0.13890  112.67000  112.67000  # c,c,c1,c
dihedral_coeff	 6 at   -0.26070    0.32030   -0.22830    0.05150   -0.06740   -0.04740  112.67000  108.52950  # c,c,c1,c_1
dihedral_coeff	 7 at   -0.24540    0.00000   -0.11360    0.31130    0.45160   -0.19880  112.67000  110.77000  # c,c,c1,hc
dihedral_coeff	 8 at    0.08850   -1.37030   -0.54520    0.67500    0.59650    0.67250  108.52950  123.14510  # c,c,c_1,o_1
dihedral_coeff	 9 at    0.00000    0.00000    0.00000    0.00000    0.00000    0.00000  108.52950  100.31820  # c,c,c_1,o_2
dihedral_coeff	10 at   -0.24540    0.00000   -0.11360    0.31130    0.45160   -0.19880  112.67000  110.77000  # c,c1,c,hc
dihedral_coeff	11 at    0.08850   -1.37030   -0.54520    0.67500    0.59650    0.67250  108.52950  123.14510  # c,c1,c_1,o_1
dihedral_coeff	12 at    0.00000    0.00000    0.00000    0.00000    0.00000    0.00000  108.52950  100.31820  # c,c1,c_1,o_2
dihedral_coeff	13 at    0.00000    0.00000    0.00000    0.00000    0.00000    0.00000  100.31820  113.28800  # c,c_1,o_2,c
dihedral_coeff	14 at    0.00000    0.00000    0.00000    0.00000    0.00000    0.00000  113.28800  100.31820  # c,o_2,c_1,c1
dihedral_coeff	15 at    0.00000    0.00000    0.00000    0.00000    0.00000    0.00000  113.28800  120.79700  # c,o_2,c_1,o_1
dihedral_coeff	16 at   -0.26070    0.32030   -0.22830    0.05150   -0.06740   -0.04740  112.67000  108.52950  # c1,c,c,c_1
dihedral_coeff	17 at   -0.74660   -0.94480   -0.63210    0.01620    1.42110   -1.40920  108.52950  110.77000  # c_1,c,c,hc
dihedral_coeff	18 at   -0.74660   -0.94480   -0.63210    0.01620    1.42110   -1.40920  108.52950  110.77000  # c_1,c1,c,hc
dihedral_coeff	19 at    0.00000    0.00000    0.00000    0.00000    0.00000    0.00000  113.28800  107.68800  # c_1,o_2,c,hc
dihedral_coeff	20 at   -0.80850    0.55690   -0.24660   -0.80850    0.55690   -0.24660  110.77000  110.77000  # hc,c,c1,hc
dihedral_coeff	21 at    9.12990   -0.48470    0.35820   -1.49460    0.73080   -0.20830  107.73360  123.14510  # hc,c1,c_1,o_1
dihedral_coeff	22 at    0.00000    0.00000    0.00000    0.00000    0.00000    0.00000  107.73360  100.31820  # hc,c1,c_1,o_2

# AngleAngleTorsion Coeffs

dihedral_coeff	 1 aat  -22.04500  112.67000  112.67000  # c,c,c,c
dihedral_coeff	 2 aat  -22.04500  112.67000  112.67000  # c,c,c,c1
dihedral_coeff	 3 aat   -0.38010  112.67000  108.52950  # c,c,c,c_1
dihedral_coeff	 4 aat  -16.16400  112.67000  110.77000  # c,c,c,hc
dihedral_coeff	 5 aat  -22.04500  112.67000  112.67000  # c,c,c1,c
dihedral_coeff	 6 aat   -0.38010  112.67000  108.52950  # c,c,c1,c_1
dihedral_coeff	 7 aat  -16.16400  112.67000  110.77000  # c,c,c1,hc
dihedral_coeff	 8 aat   -8.01900  108.52950  123.14510  # c,c,c_1,o_1
dihedral_coeff	 9 aat    0.00000  108.52950  100.31820  # c,c,c_1,o_2
dihedral_coeff	10 aat  -16.16400  112.67000  110.77000  # c,c1,c,hc
dihedral_coeff	11 aat   -8.01900  108.52950  123.14510  # c,c1,c_1,o_1
dihedral_coeff	12 aat    0.00000  108.52950  100.31820  # c,c1,c_1,o_2
dihedral_coeff	13 aat    0.00000  100.31820  113.28800  # c,c_1,o_2,c
dihedral_coeff	14 aat    0.00000  113.28800  100.31820  # c,o_2,c_1,c1
dihedral_coeff	15 aat    0.00000  113.28800  120.79700  # c,o_2,c_1,o_1
dihedral_coeff	16 aat   -0.38010  112.67000  108.52950  # c1,c,c,c_1
dihedral_coeff	17 aat   -5.36240  108.52950  110.77000  # c_1,c,c,hc
dihedral_coeff	18 aat   -5.36240  108.52950  110.77000  # c_1,c1,c,hc
dihedral_coeff	19 aat    0.00000  113.28800  107.68800  # c_1,o_2,c,hc
dihedral_coeff	20 aat  -12.56400  110.77000  110.77000  # hc,c,c1,hc
dihedral_coeff	21 aat  -15.34960  107.73360  123.14510  # hc,c1,c_1,o_1
dihedral_coeff	22 aat    0.00000  107.73360  100.31820  # hc,c1,c_1,o_2

# BondBond13 Coeffs

dihedral_coeff	 1 bb13    0.00000    1.53000    1.53000  # c,c,c,c
dihedral_coeff	 2 bb13    0.00000    1.53000    1.53000  # c,c,c,c1
dihedral_coeff	 3 bb13    0.00000    1.53000    1.52020  # c,c,c,c_1
dihedral_coeff	 4 bb13    0.00000    1.53000    1.10100  # c,c,c,hc
dihedral_coeff	 5 bb13    0.00000    1.53000    1.53000  # c,c,c1,c
dihedral_coeff	 6 bb13    0.00000    1.53000    1.52020  # c,c,c1,c_1
dihedral_coeff	 7 bb13    0.00000    1.53000    1.10100  # c,c,c1,hc
dihedral_coeff	 8 bb13    0.00000    1.53000    1.20200  # c,c,c_1,o_1
dihedral_coeff	 9 bb13    0.00000    1.53000    1.36830  # c,c,c_1,o_2
dihedral_coeff	10 bb13    0.00000    1.53000    1.10100  # c,c1,c,hc
dihedral_coeff	11 bb13    0.00000    1.53000    1.20200  # c,c1,c_1,o_1
dihedral_coeff	12 bb13    0.00000    1.53000    1.36830  # c,c1,c_1,o_2
dihedral_coeff	13 bb13    0.00000    1.52020    1.43000  # c,c_1,o_2,c
dihedral_coeff	14 bb13    0.00000    1.43000    1.52020  # c,o_2,c_1,c1
dihedral_coeff	15 bb13    0.00000    1.43000    1.20200  # c,o_2,c_1,o_1
dihedral_coeff	16 bb13    0.00000    1.53000    1.52020  # c1,c,c,c_1
dihedral_coeff	17 bb13    0.00000    1.52020    1.10100  # c_1,c,c,hc
dihedral_coeff	18 bb13    0.00000    1.52020    1.10100  # c_1,c1,c,hc
dihedral_coeff	19 bb13    0.00000    1.36830    1.10100  # c_1,o_2,c,hc
dihedral_coeff	20 bb13    0.00000    1.10100    1.10100  # hc,c,c1,hc
dihedral_coeff	21 bb13    0.00000    1.10100    1.20200  # hc,c1,c_1,o_1
dihedral_coeff	22 bb13    0.00000    1.10100    1.36830  # hc,c1,c_1,o_2

# Improper Coeffs

improper_coeff	 1    0.00000    0.00000  # c,c,c,c
improper_coeff	 2    0.00000    0.00000  # c,c,c,c_1
improper_coeff	 3    0.00000    0.00000  # c,c,c,hc
improper_coeff	 4    0.00000    0.00000  # c,c,c1,hc
improper_coeff	 5    0.00000    0.00000  # c,c,hc,hc
improper_coeff	 6    0.00000    0.00000  # c,c1,hc,hc
improper_coeff	 7    0.00000    0.00000  # c,hc,hc,hc
improper_coeff	 8    0.00000    0.00000  # c,hc,hc,o_2
improper_coeff	 9    0.00000    0.00000  # c1,c,c,c_1
improper_coeff	10    0.00000    0.00000  # c1,c,c,hc
improper_coeff	11    0.00000    0.00000  # c1,c,c_1,hc
improper_coeff	12    0.00000    0.00000  # c1,c,hc,c_1
improper_coeff	13   46.92640    0.00000  # c_1,c,o_2,o_1
improper_coeff	14   46.92640    0.00000  # c_1,c1,o_2,o_1

# AngleAngle Coeffs

improper_coeff	 1 aa   -0.17290   -0.17290   -0.17290  112.67000  112.67000  112.67000  # c,c,c,c
improper_coeff	 2 aa    0.00000    0.00000    0.00000  112.67000  108.52950  108.52950  # c,c,c,c_1
improper_coeff	 3 aa   -1.31990   -1.31990    0.11840  112.67000  110.77000  110.77000  # c,c,c,hc
improper_coeff	 4 aa   -1.31990   -1.31990    0.11840  112.67000  110.77000  110.77000  # c,c,c1,hc
improper_coeff	 5 aa    0.27380   -0.48250    0.27380  110.77000  110.77000  107.66000  # c,c,hc,hc
improper_coeff	 6 aa    0.27380   -0.48250    0.27380  110.77000  110.77000  107.66000  # c,c1,hc,hc
improper_coeff	 7 aa   -0.31570   -0.31570   -0.31570  107.66000  107.66000  107.66000  # c,hc,hc,hc
improper_coeff	 8 aa    0.00000    0.00000    0.00000  107.66000  107.68800  107.68800  # c,hc,hc,o_2
improper_coeff	 9 aa    0.00000    0.00000    0.00000  112.67000  108.52950  108.52950  # c1,c,c,c_1
improper_coeff	10 aa   -1.31990   -1.31990    0.11840  112.67000  110.77000  110.77000  # c1,c,c,hc
improper_coeff	11 aa    2.04030   -1.82020    1.08270  108.52950  110.77000  107.73360  # c1,c,c_1,hc
improper_coeff	12 aa    1.08270   -1.82020    2.04030  110.77000  108.52950  107.73360  # c1,c,hc,c_1
improper_coeff	13 aa    0.00000    0.00000    0.00000  100.31820  123.14510  120.79700  # c_1,c,o_2,o_1
improper_coeff	14 aa    0.00000    0.00000    0.00000  100.31820  123.14510  120.79700  # c_1,c1,o_2,o_1


# --- Thermo Output ---
thermo_style custom step time temp press enthalpy etotal ke pe ebond eangle edihed eimp evdwl ecoul elong etail vol lx ly lz density pxx pyy pzz
thermo_modify flush yes
thermo 1000

# --- Trajectory ---
dump dump_nvt all custom 1000 nvt_softheat.dump id type mol x y z ix iy iz vx vy vz

# --- Restart Checkpointing ---
restart 10000 nvt_1.rst nvt_2.rst

# --- Initial Velocities (optional) ---
velocity all create 300.0 989366 mom yes rot yes dist gaussian

# --- SHAKE Constraints ---
# Constrains H-X bonds to allow 2fs timestep
# SHAKE disabled

# --- NVT Thermostat (Nose-Hoover) ---
# T_damp = 50.0 fs  (coupling timescale for heat exchange)
# Ramp: 300.0 K -> 630.0 K over 500000 steps
timestep 0.5
fix nvt_fix all nvt temp 300.0 630.0 50.0

run 500000

CITE-CITE-CITE-CITE-CITE-CITE-CITE-CITE-CITE-CITE-CITE-CITE-CITE

Your simulation uses code contributions which should be cited:

- GPU package (short-range, long-range and three-body potentials): doi:10.1016/j.cpc.2010.12.021, doi:10.1016/j.cpc.2011.10.012, doi:10.1016/j.cpc.2013.08.002, doi:10.1016/j.commatsci.2014.10.068, doi:10.1016/j.cpc.2016.10.020, doi:10.3233/APC200086

@Article{Brown11,
 author = {W. M. Brown and P. Wang and S. J. Plimpton and A. N. Tharrington},
 title = {Implementing Molecular Dynamics on Hybrid High Performance Computers---Short Range Forces},
 journal = {Comput.\ Phys.\ Commun.},
 year =    2011,
 volume =  182,
 pages =   {898--911},
 doi =     {10.1016/j.cpc.2010.12.021}
}

@Article{Brown12,
 author = {W. M. Brown and A. Kohlmeyer and S. J. Plimpton and A. N. Tharrington},
 title = {Implementing Molecular Dynamics on Hybrid High Performance Computers - Particle-Particle Particle-Mesh},
 journal = {Comput.\ Phys.\ Commun.},
 year =    2012,
 volume =  183,
 doi =     {10.1016/j.cpc.2011.10.012},
 pages =   {449--459}
}

@Article{Brown13,
 author = {W. M. Brown and Y. Masako},
 title = {Implementing Molecular Dynamics on Hybrid High Performance Computers---Three-Body Potentials},
 journal = {Comput.\ Phys.\ Commun.},
 year =    2013,
 volume =  184,
 pages =   {2785--2793},
 doi =     {10.1016/j.cpc.2013.08.002},
}

@Article{Trung15,
 author = {T. D. Nguyen and S. J. Plimpton},
 title = {Accelerating Dissipative Particle Dynamics Simulations for Soft Matter Systems},
 journal = {Comput.\ Mater.\ Sci.},
 year =    2015,
 doi =     {10.1016/j.commatsci.2014.10.068},
 volume =  100,
 pages =   {173--180}
}

@Article{Trung17,
 author = {T. D. Nguyen},
 title = {{GPU}-Accelerated {T}ersoff Potentials for Massively Parallel
    Molecular Dynamics Simulations},
 journal = {Comput.\ Phys.\ Commun.},
 year =    2017,
 doi =     {10.1016/j.cpc.2016.10.020},
 volume =  212,
 pages =   {113--122}
}

@inproceedings{Nikolskiy19,
 author = {V. Nikolskiy and V. Stegailov},
 title = {{GPU} Acceleration of Four-Site Water Models in {LAMMPS}},
 booktitle = {Proceedings of the International Conference on Parallel
    Computing (ParCo 2019), Prague, Czech Republic},
 doi =     {10.3233/APC200086},
 year =    2019
}

CITE-CITE-CITE-CITE-CITE-CITE-CITE-CITE-CITE-CITE-CITE-CITE-CITE

PPPM initialization ...
  using 12-bit tables for long-range coulomb
  G vector (1/distance) = 0.32263586
  grid = 45 45 45
  stencil order = 5
  estimated absolute RMS force accuracy = 0.00038748708
  estimated relative force accuracy = 1.1669058e-06
  using double precision KISS FFT
  3d grid and FFT values/proc = 140608 91125
Generated 15 of 15 mixed pair_coeff terms from sixthpower/sixthpower mixing rule
Neighbor list info ...
  update: every = 1 steps, delay = 0 steps, check = yes
  max neighbors/atom: 4000, page size: 100000
  master list distance cutoff = 11.5
  ghost atom cutoff = 11.5
  binsize = 5.75, bins = 9 9 9
  1 neighbor lists, perpetual/occasional/extra = 1 0 0
  (1) pair lj/class2/coul/long/gpu, perpetual
      attributes: full, newton on
      pair build: full/bin
      stencil: full/bin/3d
      bin: standard
Per MPI rank memory allocation (min/avg/max) = 66.71 | 66.71 | 66.71 Mbytes
   Step          Time           Temp          Press         Enthalpy        TotEng         KinEng         PotEng         E_bond        E_angle        E_dihed        E_impro         E_vdwl         E_coul         E_long         E_tail         Volume           Lx             Ly             Lz          Density          Pxx            Pyy            Pzz      
         0   0              300            7603.0448      34967.15       22671.448      5382.4487      17288.999      1377.8164      4763.0399     -1165.7275      102.02432      2074.8887      33938.543     -23801.585     -226.64459      110889.36      48.042983      48.042983      48.042983      0.59999999     7818.6516      7844.9475      7145.5354    
      1000   500            305.42714      735.92015      25178.149      23988.013      5479.8197      18508.194      2635.3979      5443.1648     -1156.9176      152.61673      1403.0851      33839.875     -23809.028     -226.64459      110889.36      48.042983      48.042983      48.042983      0.59999999     389.19061      1248.3938      570.17603    
      2000   1000           304.40609     -632.47939      23132.301      24155.151      5461.5005      18693.651      2750.5739      5403.5419     -1112.3311      149.42751      1483.4638      33829.916     -23810.941     -226.64459      110889.36      48.042983      48.042983      48.042983      0.59999999    -846.7902      -1489.9726      439.32461    
      3000   1500           306.89503     -527.72906      23537.264      24390.712      5506.1559      18884.556      2789.8432      5416.6224     -1078.6691      154.88071      1591.1602      33812.78      -23802.062     -226.64459      110889.36      48.042983      48.042983      48.042983      0.59999999    -1290.1088      12.738662     -305.81704    
      4000   2000           298.01262     -424.10128      23252.419      23938.278      5346.7922      18591.486      2674.9383      5350.1361     -1186.6757      153.31149      1560.4341      33841.753     -23802.411     -226.64459      110889.36      48.042983      48.042983      48.042983      0.59999999    -1391.472      -110.99631      230.16445    
      5000   2500           306.55071     -241.83757      23808.792      24199.894      5499.9782      18699.915      2745.6597      5345.1801     -1146.5293      169.8628       1588.3057      33806.382     -23808.946     -226.64459      110889.36      48.042983      48.042983      48.042983      0.59999999    -475.64459      139.54695     -389.41507    
      6000   3000           304.08403     -480.70518      23335.637      24113.037      5455.7223      18657.314      2757.5239      5366.9482     -1194.8806      156.27068      1574.1251      33804.786     -23807.459     -226.64459      110889.36      48.042983      48.042983      48.042983      0.59999999    -405.99492     -26.462668     -1009.658     
      7000   3500           306.58664     -465.49182      23490.673      24243.47       5500.6229      18742.847      2875.0656      5502.9312     -1306.5317      172.57365      1476.0329      33828.754     -23805.979     -226.64459      110889.36      48.042983      48.042983      48.042983      0.59999999    -707.95793      45.885151     -734.40268    
      8000   4000           303.28472     -492.27371      23221.51       24017.619      5441.3816      18576.237      2877.3237      5388.9311     -1294.6378      181.96638      1448.8504      33789.891     -23816.088     -226.64459      110889.36      48.042983      48.042983      48.042983      0.59999999    -775.85265     -274.85214     -426.11634    
      9000   4500           308.00649     -703.13661      23038.648      24175.765      5526.0971      18649.668      2966.0616      5357.4449     -1286.5644      169.5636       1417.723       33829.688     -23804.249     -226.64459      110889.36      48.042983      48.042983      48.042983      0.59999999    -541.40705     -557.09881     -1010.904     
     10000   5000           307.0171      -549.2051       23322.436      24210.615      5508.346       18702.269      3005.1889      5499.8789     -1323.0643      150.22033      1356.1733      33818.532     -23804.661     -226.64459      110889.36      48.042983      48.042983      48.042983      0.59999999    -615.75936     -764.11936     -267.73658    
     11000   5500           309.73205      156.65953      24224.932      23971.581      5557.0562      18414.525      2850.2089      5297.8632     -1324.6708      151.49216      1451.0672      33808.32      -23819.757     -226.64459      110889.36      48.042983      48.042983      48.042983      0.59999999    -398.92917      1232.7445     -363.83677    
     12000   6000           311.56571     -561.42247      23198.05       24105.987      5589.9548      18516.032      2956.0209      5384.7833     -1306.8752      166.60366      1309.9693      33821.816     -23816.286     -226.64459      110889.36      48.042983      48.042983      48.042983      0.59999999    -691.84769     -1068.7906      76.370902    
     13000   6500           306.56152     -357.82872      23472.188      24050.871      5500.1722      18550.699      2984.0939      5521.2207     -1364.3286      155.26187      1251.143       33822.15      -23818.842     -226.64459      110889.36      48.042983      48.042983      48.042983      0.59999999    -402.57625      467.10241     -1138.0123    
     14000   7000           310.14495     -837.82318      22874.298      24229.232      5564.4642      18664.768      3046.1671      5492.8306     -1312.5812      163.80134      1290.344       33804.245     -23820.038     -226.64459      110889.36      48.042983      48.042983      48.042983      0.59999999    -1204.6923     -1027.7796     -280.99761    
     15000   7500           314.04346     -124.75845      23914.215      24115.975      5634.4094      18481.565      2879.14        5425.0498     -1309.3462      171.29771      1325.7728      33802.972     -23813.321     -226.64459      110889.36      48.042983      48.042983      48.042983      0.59999999     361.62674     -306.47343     -429.42867    
     16000   8000           308.89387     -194.70594      23651.774      23966.654      5542.018       18424.636      2988.0141      5401.1114     -1383.7401      172.50141      1277.1274      33793.434     -23823.812     -226.64459      110889.36      48.042983      48.042983      48.042983      0.59999999     421.51385     -413.90979     -591.72188    
     17000   8500           311.6307      -568.34538      23117.11       24036.242      5591.1209      18445.121      3063.4271      5352.2804     -1346.2461      165.98422      1230.7928      33804.202     -23825.319     -226.64459      110889.36      48.042983      48.042983      48.042983      0.59999999    -1228.2992     -135.74083     -340.99612    
     18000   9000           315.50903     -1132.6137      22380.142      24211.814      5660.7039      18551.11       3178.7916      5530.0907     -1343.2308      168.99334      1066.6252      33777.092     -23827.252     -226.64459      110889.36      48.042983      48.042983      48.042983      0.59999999    -297.2178      -1736.5041     -1364.1192    
     19000   9500           317.13538     -388.01736      23424.376      24051.881      5689.8831      18361.998      2986.6258      5459.0675     -1345.0124      171.81166      1141.7918      33774.395     -23826.682     -226.64459      110889.36      48.042983      48.042983      48.042983      0.59999999     369.36774     -980.00373     -553.4161     
     20000   10000          314.87863     -586.7436       23192.724      24141.611      5649.3936      18492.217      3067.4049      5493.9344     -1338.0797      175.18806      1146.2548      33779.706     -23832.191     -226.64459      110889.36      48.042983      48.042983      48.042983      0.59999999     592.95498     -1179.632      -1173.5538    
     21000   10500          308.93174     -1598.575       21350.062      23935.29       5542.6975      18392.592      3099.6499      5455.4362     -1353.2982      162.2083       1071.1808      33786.884     -23829.469     -226.64459      110889.36      48.042983      48.042983      48.042983      0.59999999    -2124.4399     -1478.4792     -1192.8059    
     22000   11000          316.09405     -938.2248       22555.067      24072.371      5671.2         18401.171      3037.6969      5474.4674     -1351.3641      168.5676       1097.1401      33803.21      -23828.547     -226.64459      110889.36      48.042983      48.042983      48.042983      0.59999999    -1385.4592     -148.1224      -1281.0928    
     23000   11500          316.64792      242.83495      24512.818      24120.104      5681.1373      18438.966      3073.8672      5492.7917     -1358.8856      159.17547      1101.5253      33800.25      -23829.758     -226.64459      110889.36      48.042983      48.042983      48.042983      0.59999999    -608.02051      637.10824      699.41712    
     24000   12000          310.73188     -538.0461       23199.455      24069.587      5574.9946      18494.593      3112.0707      5530.4868     -1410.2142      167.67252      1126.1275      33799.885     -23831.436     -226.64459      110889.36      48.042983      48.042983      48.042983      0.59999999    -974.80207      220.75713     -860.09335    
     25000   12500          320.27273     -719.48565      23019.563      24183.121      5746.1718      18436.949      3053.243       5463.4601     -1301.6414      186.97595      1081.6588      33784.918     -23831.665     -226.64459      110889.36      48.042983      48.042983      48.042983      0.59999999    -743.27609     -1040.4107     -374.77012    
     26000   13000          314.87739     -1145.4509      22116.502      23968.934      5649.3714      18319.562      3136.7165      5401.874      -1388.7879      179.2836       1057.8802      33770.04      -23837.444     -226.64459      110889.36      48.042983      48.042983      48.042983      0.59999999    -1784.9502     -1292.7061     -358.69643    
     27000   13500          315.7653      -1423.8057      21716.373      24018.962      5665.3018      18353.66       3078.1205      5546.5834     -1405.2046      178.34875      1008.9271      33784.051     -23837.166     -226.64459      110889.36      48.042983      48.042983      48.042983      0.59999999    -1061.5749     -1203.7291     -2006.113     
     28000   14000          312.1934      -557.44701      23091.373      23992.88       5601.2166      18391.664      3177.49        5451.3964     -1357.6853      176.39501      1006.1544      33773.181     -23835.268     -226.64459      110889.36      48.042983      48.042983      48.042983      0.59999999    -117.24935     -1452.9707     -102.12101    
     29000   14500          318.9664      -776.63112      22778.675      24034.649      5722.7342      18311.915      3115.5443      5401.9532     -1364.8014      177.78894      1013.5914      33793.762     -23825.924     -226.64459      110889.36      48.042983      48.042983      48.042983      0.59999999    -1360.1467     -750.31601     -219.4307     
     30000   15000          324.56754     -1417.3702      22015.886      24308.068      5823.2271      18484.841      3219.6398      5543.0487     -1387.0608      180.75153      997.28388      33763.244     -23832.066     -226.64459      110889.36      48.042983      48.042983      48.042983      0.59999999    -1242.1147     -1431.0442     -1578.9517    
     31000   15500          318.49733     -740.43399      22944.478      24141.914      5714.3184      18427.595      3112.19        5497.1601     -1333.2133      189.79999      1017.52        33780.241     -23836.103     -226.64459      110889.36      48.042983      48.042983      48.042983      0.59999999    -303.16378     -1034.6803     -883.45792    
     32000   16000          319.116       -1047.6737      22336.912      24031.218      5725.4183      18305.8        3099.1133      5549.5423     -1346.2975      166.418        915.00254      33764.278     -23842.257     -226.64459      110889.36      48.042983      48.042983      48.042983      0.59999999    -1011.9588     -991.31971     -1139.7427    
     33000   16500          318.56873     -1529.2255      21650.168      24123.243      5715.5994      18407.644      3270.7806      5549.1328     -1371.8187      170.54038      866.13775      33762.139     -23839.268     -226.64459      110889.36      48.042983      48.042983      48.042983      0.59999999    -1973.9645     -1462.6699     -1151.0421    
     34000   17000          324.66769      12.017704      24030.613      24011.178      5825.0239      18186.154      3136.0844      5333.2298     -1382.9711      195.09558      975.47985      33775.206     -23845.97      -226.64459      110889.36      48.042983      48.042983      48.042983      0.59999999     176.82458      108.85999     -249.63147    
     35000   17500          326.46264     -878.49871      22785.094      24205.809      5857.2281      18348.581      3219.411       5468.3623     -1331.7183      171.73343      900.73032      33762.189     -23842.127     -226.64459      110889.36      48.042983      48.042983      48.042983      0.59999999    -1369.9141     -413.83268     -851.74934    
     36000   18000          321.88497     -563.85312      23249.633      24161.5        5775.0978      18386.403      3243.9714      5467.8808     -1344.3187      171.63807      919.25355      33772.149     -23844.171     -226.64459      110889.36      48.042983      48.042983      48.042983      0.59999999    -559.5814       25.161828     -1157.1398    
     37000   18500          330.43776     -717.39555      23178.613      24338.791      5928.5477      18410.243      3255.0371      5464.642      -1378.3429      182.01076      959.24933      33772.136     -23844.489     -226.64459      110889.36      48.042983      48.042983      48.042983      0.59999999    -1056.6303     -591.0019      -504.55449    
     38000   19000          330.24122     -1313.7175      22283.184      24407.738      5925.0215      18482.716      3223.4902      5571.5573     -1344.4159      181.55804      907.87225      33782.828     -23840.174     -226.64459      110889.36      48.042983      48.042983      48.042983      0.59999999    -1047.1014     -1633.844      -1260.2072    
     39000   19500          324.70925     -272.06774      23785.842      24225.832      5825.7696      18400.063      3149.2827      5548.6078     -1395.5565      173.10134      999.72682      33765.56      -23840.66      -226.64459      110889.36      48.042983      48.042983      48.042983      0.59999999    -1157.098      -202.89152      543.78629    
     40000   20000          334.47561     -361.80499      23856.51       24441.624      6000.9928      18440.631      3230.0729      5521.0326     -1346.2267      191.16627      904.15849      33772.337     -23831.909     -226.64459      110889.36      48.042983      48.042983      48.042983      0.59999999     37.616404      16.964995     -1139.9964    
     41000   20500          325.34455     -879.77315      22971.348      24394.123      5837.1678      18556.956      3263.8411      5612.7838     -1405.3541      192.5884       954.95359      33779.283     -23841.14      -226.64459      110889.36      48.042983      48.042983      48.042983      0.59999999    -716.7421      -1090.4106     -832.16679    
     42000   21000          326.43213     -418.62082      23500.792      24177.789      5856.6806      18321.109      3163.2996      5447.5008     -1398.1377      179.26215      982.99971      33779.402     -23833.218     -226.64459      110889.36      48.042983      48.042983      48.042983      0.59999999    -513.40077     -350.89073     -391.57095    
     43000   21500          332.10893     -1193.8767      22572.77       24503.516      5958.531       18544.985      3297.8749      5634.9372     -1412.2073      173.96203      930.7725       33756.318     -23836.672     -226.64459      110889.36      48.042983      48.042983      48.042983      0.59999999    -749.56717     -668.37055     -2163.6923    
     44000   22000          331.29952     -609.89532      23409.96       24396.287      5944.0089      18452.278      3208.114       5566.1279     -1436.8308      198.7703       1000.0693      33757.169     -23841.142     -226.64459      110889.36      48.042983      48.042983      48.042983      0.59999999    -912.43746     -334.73387     -582.51463    
     45000   22500          328.4666      -672.28234      23289.618      24376.838      5893.182       18483.656      3232.7866      5556.0904     -1412.0637      173.76276      988.79288      33779.609     -23835.322     -226.64459      110889.36      48.042983      48.042983      48.042983      0.59999999     766.99103     -1283.7743     -1500.0637    
     46000   23000          330.32557     -602.43421      23422.665      24396.926      5926.5347      18470.392      3276.5177      5543.2192     -1400.2386      176.15505      938.13922      33773.033     -23836.434     -226.64459      110889.36      48.042983      48.042983      48.042983      0.59999999    -960.69672     -611.86431     -234.74159    
     47000   23500          330.70437     -528.6739       23664.634      24519.61       5933.331       18586.279      3304.2514      5608.0127     -1391.515       164.33708      957.49645      33776.578     -23832.882     -226.64459      110889.36      48.042983      48.042983      48.042983      0.59999999    -230.89399     -1069.8209     -285.30677    
     48000   24000          326.98827     -844.60686      22898.093      24263.998      5866.6586      18397.339      3207.3825      5595.9651     -1395.8221      185.09739      870.21079      33772.11      -23837.605     -226.64459      110889.36      48.042983      48.042983      48.042983      0.59999999    -1459.4081     -499.24146     -575.17098    
     49000   24500          331.14006     -628.77551      23470.116      24486.977      5941.1479      18545.829      3277.8169      5601.0237     -1409.5315      186.06278      964.08939      33764.479     -23838.112     -226.64459      110889.36      48.042983      48.042983      48.042983      0.59999999    -1466.167      -609.64533      189.48579    
     50000   25000          339.90138     -548.80189      23782.497      24670.024      6098.3391      18571.685      3262.7991      5577.9378     -1383.7075      157.5195       1026.3204      33774.307     -23843.492     -226.64459      110889.36      48.042983      48.042983      48.042983      0.59999999    -231.9508      -981.80954     -432.64532    
     51000   25500          330.1364      -182.08516      24144.278      24438.747      5923.1408      18515.606      3255.7193      5618.6324     -1422.4865      165.5088       971.31767      33765.895     -23838.981     -226.64459      110889.36      48.042983      48.042983      48.042983      0.59999999     4.9816845      126.93881     -678.17597    
     52000   26000          341.0134      -969.55943      23214.373      24782.352      6118.2904      18664.062      3312.7497      5663.2262     -1404.0406      184.96367      972.61711      33773.433     -23838.888     -226.64459      110889.36      48.042983      48.042983      48.042983      0.59999999    -51.958284     -1956.4788     -900.24124    
     53000   26500          335.15372     -678.33399      23410.791      24507.798      6013.1589      18494.639      3247.2722      5574.5492     -1409.1074      163.23247      997.57971      33763.725     -23842.612     -226.64459      110889.36      48.042983      48.042983      48.042983      0.59999999    -406.53885      64.090984     -1692.5541    
     54000   27000          334.40893     -897.40975      23119.295      24570.593      5999.7963      18570.797      3364.501       5602.8377     -1409.9771      184.34023      912.31463      33757.074     -23840.294     -226.64459      110889.36      48.042983      48.042983      48.042983      0.59999999    -494.25384     -698.63486     -1499.3406    
     55000   27500          338.3486       518.56306      25461.649      24623.025      6070.4799      18552.545      3338.8777      5574.901      -1417.9348      181.90764      944.03925      33766.207     -23835.452     -226.64459      110889.36      48.042983      48.042983      48.042983      0.59999999     2025.1437      127.53372     -596.9882     
     56000   28000          330.06869     -1417.4693      22174.298      24466.64       5921.926       18544.714      3327.1204      5604.0324     -1408.8773      180.56558      917.71305      33763.393     -23839.233     -226.64459      110889.36      48.042983      48.042983      48.042983      0.59999999    -1776.0211     -2025.8426     -450.54413    
     57000   28500          336.47363     -350.8741       24104.284      24671.72       6036.8403      18634.88       3336.3033      5585.1991     -1412.3123      170.25506      1023.7707      33772.454     -23840.79      -226.64459      110889.36      48.042983      48.042983      48.042983      0.59999999    -777.85157     -229.17177     -45.598975    
     58000   29000          342.33302     -338.79985      24217.595      24765.505      6141.9664      18623.538      3281.8831      5653.2645     -1410.7533      181.25464      963.1139       33786.61      -23831.835     -226.64459      110889.36      48.042983      48.042983      48.042983      0.59999999    -549.48304     -547.76636      80.849834    
     59000   29500          337.23708     -675.95692      23522.843      24616.005      6050.5375      18565.468      3253.5697      5664.1784     -1364.1979      175.63739      883.22257      33785.099     -23832.042     -226.64459      110889.36      48.042983      48.042983      48.042983      0.59999999    -376.59924     -1246.7324     -404.53909    
     60000   30000          336.48602     -262.3562       24277.521      24701.806      6037.0625      18664.743      3356.7113      5701.6871     -1422.9967      179.70388      896.03176      33789.799     -23836.193     -226.64459      110889.36      48.042983      48.042983      48.042983      0.59999999    -943.81966     -173.46903      330.22009    
     61000   30500          342.31863      180.68546      25031.262      24739.056      6141.7082      18597.348      3273.5971      5671.7395     -1457.1632      188.88015      987.2192       33767.883     -23834.808     -226.64459      110889.36      48.042983      48.042983      48.042983      0.59999999     434.47282     -297.55618      405.13975    
     62000   31000          347.14867     -1161.4859      22998.731      24877.095      6228.3663      18648.729      3272.5343      5740.9725     -1402.4639      194.91163      918.35757      33756.995     -23832.579     -226.64459      110889.36      48.042983      48.042983      48.042983      0.59999999    -1336.1352     -767.99858     -1380.324     
     63000   31500          343.03203     -878.59617      23358.629      24779.501      6154.5077      18624.993      3278.8737      5716.8764     -1379.64        187.09545      913.32385      33747.749     -23839.285     -226.64459      110889.36      48.042983      48.042983      48.042983      0.59999999    -1551.9516      188.05049     -1271.8874    
     64000   32000          339.91814     -80.572704      24652.097      24782.4        6098.6398      18683.76       3375.4481      5728.7217     -1417.8521      176.4467       883.46424      33770.36      -23832.828     -226.64459      110889.36      48.042983      48.042983      48.042983      0.59999999     406.975       -214.62621     -434.06691    
     65000   32500          338.80918      77.780688      24821.417      24695.629      6078.7434      18616.886      3274.7548      5647.7104     -1371.4544      188.09013      952.82876      33766.695     -23841.739     -226.64459      110889.36      48.042983      48.042983      48.042983      0.59999999     928.29105     -926.41425      231.46527    
     66000   33000          343.7691      -911.67763      23463.747      24938.119      6167.7318      18770.388      3422.6046      5738.1683     -1407.3188      184.90106      915.38607      33758.783     -23842.136     -226.64459      110889.36      48.042983      48.042983      48.042983      0.59999999    -51.94883      -1002.1317     -1680.9523    
     67000   33500          341.05958     -571.10065      23883.343      24806.932      6119.119       18687.813      3323.9283      5743.5866     -1425.6963      187.38528      956.62215      33745.678     -23843.691     -226.64459      110889.36      48.042983      48.042983      48.042983      0.59999999    -1349.8135     -183.21134     -180.27716    
     68000   34000          341.87951     -330.78457      24228.978      24763.925      6133.8297      18630.095      3402.0308      5609.9336     -1383.6884      165.66634      932.01185      33745.075     -23840.934     -226.64459      110889.36      48.042983      48.042983      48.042983      0.59999999    -225.14058     -104.33041     -662.88271    
     69000   34500          348.87706     -1558.8433      22445.242      24966.215      6259.3763      18706.839      3482.5078      5661.5147     -1366.3365      199.57243      821.18193      33749.475     -23841.076     -226.64459      110889.36      48.042983      48.042983      48.042983      0.59999999    -1770.6865     -1459.7682     -1446.0753    
     70000   35000          341.71982     -905.53659      23384.206      24848.646      6130.9647      18717.682      3352.8393      5741.4436     -1445.8679      167.4195       953.67206      33779.779     -23831.604     -226.64459      110889.36      48.042983      48.042983      48.042983      0.59999999    -1054.109      -1345.9702     -316.53055    
     71000   35500          348.69053     -178.98857      24615.235      24904.697      6256.0296      18648.667      3357.4228      5642.8567     -1385.5905      185.77544      904.47637      33777.101     -23833.375     -226.64459      110889.36      48.042983      48.042983      48.042983      0.59999999     203.07865     -359.13975     -380.9046     
     72000   36000          356.62253      264.64731      25588.579      25160.589      6398.3415      18762.247      3409.195       5704.0704     -1428.2101      193.69216      939.88505      33774.388     -23830.773     -226.64459      110889.36      48.042983      48.042983      48.042983      0.59999999    -345.8111       879.69624      260.05679    
     73000   36500          346.67289      392.95766      25648.362      25012.868      6219.8302      18793.037      3402.8538      5694.9855     -1405.6369      176.79026      953.3234       33794.857     -23824.136     -226.64459      110889.36      48.042983      48.042983      48.042983      0.59999999    -100.68415      863.59583      415.9613     
     74000   37000          347.66686      737.52379      26153.862      24961.133      6237.6634      18723.47       3291.3506      5758.1719     -1447.5761      186.08971      1023.2283      33750.737     -23838.531     -226.64459      110889.36      48.042983      48.042983      48.042983      0.59999999     118.31429      839.40629      1254.8508    
     75000   37500          347.84964     -828.65822      23607.72       24947.832      6240.9429      18706.889      3423.2806      5771.1733     -1456.665       179.90347      865.95867      33761.479     -23838.241     -226.64459      110889.36      48.042983      48.042983      48.042983      0.59999999    -142.38504     -1399.9515     -943.63813    
     76000   38000          349.69983     -1027.9476      23384.075      25046.48       6274.138       18772.342      3477.4538      5784.9089     -1457.9391      176.27747      877.85148      33751.213     -23837.424     -226.64459      110889.36      48.042983      48.042983      48.042983      0.59999999    -1047.9169     -634.3448      -1401.5811    
     77000   38500          346.09507     -918.22112      23459.799      24944.753      6209.4632      18735.29       3413.3412      5679.3879     -1449.0283      185.48183      979.2703       33762.364     -23835.527     -226.64459      110889.36      48.042983      48.042983      48.042983      0.59999999    -128.63522     -1083.2417     -1542.7865    
     78000   39000          352.19189     -748.8097       23894.752      25105.733      6318.8493      18786.884      3401.9578      5724.4293     -1417.3982      183.56281      966.38043      33765.099     -23837.148     -226.64459      110889.36      48.042983      48.042983      48.042983      0.59999999    -1.0973909     -862.50566     -1382.8261    
     79000   39500          354.17496     -1007.8542      23564.188      25194.098      6354.4285      18839.669      3533.1894      5747.1272     -1408.407       171.71743      886.01651      33745.775     -23835.75      -226.64459      110889.36      48.042983      48.042983      48.042983      0.59999999    -868.28211     -1404.1527     -751.12786    
     80000   40000          354.33995     -226.76374      24828.958      25195.682      6357.3888      18838.293      3421.0934      5745.3559     -1396.8451      170.95864      993.01051      33748.099     -23843.379     -226.64459      110889.36      48.042983      48.042983      48.042983      0.59999999    -606.44602      720.50887     -794.35406    
     81000   40500          353.61037     -897.71093      23696.841      25148.626      6344.299       18804.327      3469.8176      5699.4317     -1450.8322      193.18541      968.12414      33758.299     -23833.698     -226.64459      110889.36      48.042983      48.042983      48.042983      0.59999999    -696.26615     -1212.5337     -784.33298    
     82000   41000          353.29235     -804.59125      23920.817      25222.008      6338.5932      18883.415      3525.7673      5793.6708     -1439.4181      190.01122      907.50015      33745.739     -23839.856     -226.64459      110889.36      48.042983      48.042983      48.042983      0.59999999    -1235.8654     -1057.2156     -120.69267    
     83000   41500          352.55765     -828.34397      23781.367      25120.971      6325.4116      18795.559      3472.0522      5708.6616     -1354.6638      169.41759      877.70789      33763.07      -23840.686     -226.64459      110889.36      48.042983      48.042983      48.042983      0.59999999    -543.22656     -563.30561     -1378.4997    
     84000   42000          357.00225     -87.733806      25162.535      25304.419      6405.1543      18899.265      3499.9173      5743.5132     -1420.2805      182.37331      957.77196      33776.325     -23840.356     -226.64459      110889.36      48.042983      48.042983      48.042983      0.59999999    -1561.9099      448.53344      850.17502    
     85000   42500          363.62341     -454.8655       24765.315      25500.927      6523.9478      18976.979      3460.4252      5870.7363     -1419.6262      181.70739      952.63027      33770.233     -23839.127     -226.64459      110889.36      48.042983      48.042983      48.042983      0.59999999    -724.98821      340.42622     -980.03452    
     86000   43000          355.65338     -312.48434      24742.271      25247.623      6380.9536      18866.67       3459.873       5779.5027     -1398.5238      186.50824      932.40507      33749.752     -23842.848     -226.64459      110889.36      48.042983      48.042983      48.042983      0.59999999    -166.42884     -1145.1926      374.16843    
     87000   43500          358.41033     -85.016835      25171.193      25308.683      6430.4175      18878.265      3422.8204      5890.1371     -1442.8         186.60271      895.72663      33766.555     -23840.776     -226.64459      110889.36      48.042983      48.042983      48.042983      0.59999999     80.695357      90.657436     -426.4033     
     88000   44000          361.83777     -846.74964      24012.711      25382.081      6491.9108      18890.17       3441.2985      5826.5743     -1355.9864      199.38404      884.73637      33736.363     -23842.2       -226.64459      110889.36      48.042983      48.042983      48.042983      0.59999999    -526.24276     -886.55477     -1127.4514    
     89000   44500          356.88984     -983.56116      23687.073      25277.696      6403.1374      18874.558      3532.6562      5753.7057     -1379.0312      189.56397      844.91422      33775.663     -23842.913     -226.64459      110889.36      48.042983      48.042983      48.042983      0.59999999    -1589.2902     -885.29318     -476.10005    
     90000   45000          358.57035     -134.65565      25131.943      25349.709      6433.2883      18916.421      3442.7868      5776.5234     -1392.9964      195.66054      947.78446      33782.643     -23835.98      -226.64459      110889.36      48.042983      48.042983      48.042983      0.59999999    -246.29525      1197.6115     -1355.2832    
     91000   45500          365.60885     -824.93659      24275.633      25609.727      6559.5696      19050.158      3582.6227      5858.3822     -1360.6203      188.38148      883.7775       33741.962     -23844.348     -226.64459      110889.36      48.042983      48.042983      48.042983      0.59999999    -298.83208     -553.84964     -1622.128     
     92000   46000          364.73901     -740.08096      24316.557      25513.421      6543.9634      18969.458      3429.017       5830.6496     -1403.0633      196.614        991.54805      33761.716     -23837.023     -226.64459      110889.36      48.042983      48.042983      48.042983      0.59999999    -391.66874     -1187.9747     -640.59943    
     93000   46500          366.40627     -298.17086      24951.361      25433.565      6573.8765      18859.689      3470.2155      5724.381      -1382.0154      193.11752      951.42727      33748.271     -23845.708     -226.64459      110889.36      48.042983      48.042983      48.042983      0.59999999     338.84038     -89.620288     -1143.7327    
     94000   47000          353.01258     -477.85427      24578.398      25351.187      6333.5737      19017.614      3575.9946      5825.5721     -1414.9754      195.83614      904.62708      33767.433     -23836.874     -226.64459      110889.36      48.042983      48.042983      48.042983      0.59999999    -726.52872      114.49441     -821.52849    
     95000   47500          358.83428     -1104.153       23549.243      25334.888      6438.0237      18896.864      3467.8606      5779.0451     -1385.2411      193.31231      936.47278      33747.001     -23841.587     -226.64459      110889.36      48.042983      48.042983      48.042983      0.59999999    -773.84041     -1395.9337     -1142.6849    
     96000   48000          368.35774     -643.74837      24596.051      25637.126      6608.8888      19028.237      3530.9858      5854.0472     -1371.426       197.84932      905.76454      33751.582     -23840.566     -226.64459      110889.36      48.042983      48.042983      48.042983      0.59999999    -777.38505      436.33437     -1590.1944    
     97000   48500          361.50949     -911.60968      23998.606      25472.868      6486.021       18986.847      3565.6682      5799.3611     -1363.212       199.95391      882.21006      33753.54      -23850.674     -226.64459      110889.36      48.042983      48.042983      48.042983      0.59999999    -205.96789     -1005.7438     -1523.1173    
     98000   49000          367.12626     -409.99704      24865.824      25528.874      6586.7943      18942.08       3453.6529      5896.5436     -1422.1888      180.30144      916.46033      33760.703     -23843.392     -226.64459      110889.36      48.042983      48.042983      48.042983      0.59999999    -118.90247     -508.33915     -602.74951    
     99000   49500          365.26974     -368.02224      25058.501      25653.669      6553.4854      19100.184      3641.9224      5892.9596     -1369.0725      181.31482      829.6831       33757.661     -23834.284     -226.64459      110889.36      48.042983      48.042983      48.042983      0.59999999    -1047.8232     -50.864482     -5.3790676    
    100000   50000          366.41779     -1024.5243      23835.02       25491.888      6574.0833      18917.805      3605.9753      5778.9684     -1417.6219      190.93111      853.67983      33743.345     -23837.473     -226.64459      110889.36      48.042983      48.042983      48.042983      0.59999999    -1765.5079     -1034.6844     -273.38055    
    101000   50500          372.32556     -696.96866      24599.19       25726.333      6680.0774      19046.256      3551.8827      5854.495      -1409.7715      197.53708      899.35585      33785.711     -23832.954     -226.64459      110889.36      48.042983      48.042983      48.042983      0.59999999    -950.43114      338.49922     -1478.9741    
    102000   51000          360.2307      -443.00972      24756.944      25473.383      6463.0776      19010.305      3482.3818      5893.9292     -1368.0435      201.93516      886.27674      33752.261     -23838.435     -226.64459      110889.36      48.042983      48.042983      48.042983      0.59999999    -511.69453     -225.4964      -591.83821    
    103000   51500          369.89193     -1542.1433      23193.824      25687.79       6636.4145      19051.375      3550.9959      5852.576      -1352.0397      199.01423      908.83063      33733.45      -23841.451     -226.64459      110889.36      48.042983      48.042983      48.042983      0.59999999    -1377.7704     -1931.7906     -1316.8688    
    104000   52000          364.16744     -1870.5765      22536.213      25561.324      6533.7085      19027.615      3595.6837      5831.4126     -1406.1183      188.43272      905.57168      33751.03      -23838.397     -226.64459      110889.36      48.042983      48.042983      48.042983      0.59999999    -2210.797      -938.69107     -2462.2415    
    105000   52500          377.77293     -101.17202      25614.953      25778.569      6777.8113      19000.758      3519.0044      5827.3484     -1379.7752      189.54799      946.7984       33742.486     -23844.652     -226.64459      110889.36      48.042983      48.042983      48.042983      0.59999999    -262.28633      826.69449     -867.92423    
    106000   53000          373.2743      -703.93924      24593.933      25732.349      6697.0992      19035.25       3543.0267      5883.4266     -1359.6439      193.20134      885.77679      33730.471     -23841.008     -226.64459      110889.36      48.042983      48.042983      48.042983      0.59999999    -1302.4924     -248.19626     -561.12901    
    107000   53500          364.73281     -1399.8788      23536.701      25800.596      6543.8522      19256.744      3593.8876      5937.9783     -1400.903       200.72514      1013.0092      33751.654     -23839.608     -226.64459      110889.36      48.042983      48.042983      48.042983      0.59999999    -747.54845     -1551.1934     -1900.8947    
    108000   54000          373.93455     -923.5235       24279.656      25773.185      6708.9451      19064.24       3477.7835      5908.3834     -1422.5071      194.46544      986.97836      33756.954     -23837.818     -226.64459      110889.36      48.042983      48.042983      48.042983      0.59999999    -1533.6348     -1118.9688     -117.96688    
    109000   54500          373.97399     -1094.7663      24135.536      25906          6709.6528      19196.348      3625.877       5989.6154     -1406.8719      185.54121      892.82168      33746.07      -23836.706     -226.64459      110889.36      48.042983      48.042983      48.042983      0.59999999    -309.16849     -1456.5382     -1518.592     
    110000   55000          372.86843     -951.04921      24285.248      25823.292      6689.8174      19133.474      3610.9309      5920.0733     -1376.9883      187.57176      887.39796      33742.315     -23837.827     -226.64459      110889.36      48.042983      48.042983      48.042983      0.59999999    -1045.7039      260.65879     -2068.1025    
    111000   55500          376.82849     -154.84146      25740.2        25990.611      6760.8667      19229.745      3676.9479      5916.2869     -1394.3296      201.88811      925.58935      33743.831     -23840.469     -226.64459      110889.36      48.042983      48.042983      48.042983      0.59999999    -59.758007      204.54269     -609.30908    
    112000   56000          374.63768     -525.86851      25040.432      25890.87       6721.5604      19169.31       3604.213       5853.7984     -1355.9815      203.36587      950.20837      33747.037     -23833.331     -226.64459      110889.36      48.042983      48.042983      48.042983      0.59999999    -483.08617     -11.731572     -1082.7878    
    113000   56500          379.32014     -978.86691      24325.885      25908.916      6805.5706      19103.346      3580.0669      5992.6354     -1438.2949      190.66855      861.87091      33759.518     -23843.119     -226.64459      110889.36      48.042983      48.042983      48.042983      0.59999999    -901.17861     -1148.7416     -886.68048    
    114000   57000          370.02224      115.03873      25928.998      25742.956      6638.7524      19104.204      3564.5478      5794.7473     -1340.0185      194.34168      963.11039      33763.732     -23836.257     -226.64459      110889.36      48.042983      48.042983      48.042983      0.59999999     472.97541      102.79805     -230.65727    
    115000   57500          373.32515     -1242.2048      23840.56       25849.463      6698.0115      19151.451      3659.9436      5876.7439     -1336.4644      192.51832      856.06698      33745.708     -23843.065     -226.64459      110889.36      48.042983      48.042983      48.042983      0.59999999    -727.28197     -1633.5644     -1365.7682    
    116000   58000          382.96366      314.69109      26490.124      25981.203      6870.9409      19110.262      3494.4105      5862.6717     -1358.8689      196.43488      982.58071      33775.376     -23842.343     -226.64459      110889.36      48.042983      48.042983      48.042983      0.59999999     939.10721      715.84569     -710.87962    
    117000   58500          379.73753     -305.17631      25455.87       25949.404      6813.0593      19136.345      3629.5168      5915.7328     -1359.3668      191.29072      852.00471      33750.513     -23843.347     -226.64459      110889.36      48.042983      48.042983      48.042983      0.59999999    -1193.4267     -313.79262      591.69035    
    118000   59000          373.92827     -363.6299       25323.286      25911.351      6708.8325      19202.519      3597.0156      5955.1537     -1376.6071      190.56991      929.02735      33756.584     -23849.225     -226.64459      110889.36      48.042983      48.042983      48.042983      0.59999999    -177.86156     -326.39325     -586.63491    
    119000   59500          376.47785      446.27299      26675.318      25953.602      6754.5757      19199.026      3597.473       5890.4234     -1346.646       190.66897      907.32209      33798.251     -23838.466     -226.64459      110889.36      48.042983      48.042983      48.042983      0.59999999     986.31321      336.58997      15.915788    
    120000   60000          382.5068      -148.42182      25865.566      26105.595      6862.744       19242.851      3540.3111      6005.8443     -1365.0603      180.97525      938.96162      33780.911     -23839.092     -226.64459      110889.36      48.042983      48.042983      48.042983      0.59999999     661.84157     -721.02197     -386.08508    
    121000   60500          379.02519     -337.61655      25577.621      26123.617      6800.2789      19323.338      3586.6582      5951.745      -1303.4757      197.2362       976.71297      33757.991     -23843.529     -226.64459      110889.36      48.042983      48.042983      48.042983      0.59999999    -676.02912     -276.88553     -59.934994    
    122000   61000          379.6032      -674.78303      25133.153      26224.417      6810.6492      19413.768      3709.9243      5976.2377     -1347.363       195.66079      964.06689      33750.267     -23835.026     -226.64459      110889.36      48.042983      48.042983      48.042983      0.59999999     26.67674      -793.68744     -1257.3384    
    123000   61500          378.35941      602.44084      26968.711      25994.439      6788.3338      19206.105      3484.8587      5967.2374     -1373.1382      200.51234      991.38155      33770.698     -23835.445     -226.64459      110889.36      48.042983      48.042983      48.042983      0.59999999     1385.1277      306.47592      115.71884    
    124000   62000          385.51818      49.574936      26251.503      26171.331      6916.7728      19254.558      3558.6119      5884.6902     -1312.9375      208.73682      1001.2343      33753.851     -23839.629     -226.64459      110889.36      48.042983      48.042983      48.042983      0.59999999     412.62235     -612.72295      348.82541    
    125000   62500          376.57906     -787.66516      24882.372      26156.19       6756.3917      19399.798      3692.5463      6046.803      -1368.6377      201.01235      927.95886      33740.132     -23840.017     -226.64459      110889.36      48.042983      48.042983      48.042983      0.59999999    -797.95456     -441.28271     -1123.7582    
    126000   63000          384.50407     -423.55161      25507.297      26192.268      6898.5781      19293.69       3642.0318      5962.4519     -1385.4914      192.48468      950.48846      33775.972     -23844.247     -226.64459      110889.36      48.042983      48.042983      48.042983      0.59999999    -672.72313      47.910248     -645.84196    
    127000   63500          383.64088     -575.93713      25455.098      26386.507      6883.0913      19503.416      3710.4356      6042.1657     -1357.0073      189.86418      982.53689      33782.036     -23846.615     -226.64459      110889.36      48.042983      48.042983      48.042983      0.59999999    -398.69944     -1109.6166     -219.49532    
    128000   64000          387.39796     -658.82438      25280.263      26345.719      6950.4988      19395.22       3704.0029      5971.8198     -1399.3481      181.60669      1012.7188      33770.097     -23845.677     -226.64459      110889.36      48.042983      48.042983      48.042983      0.59999999    -223.12004     -1379.4535     -373.89963    
    129000   64500          385.3884      -247.62149      25868.747      26269.202      6914.4443      19354.758      3709.7673      5940.0504     -1399.0482      196.28854      991.89839      33762.628     -23846.827     -226.64459      110889.36      48.042983      48.042983      48.042983      0.59999999    -582.4817      -175.33759      14.954817    
    130000   65000          390.60203     -527.85999      25572.204      26425.863      7007.9846      19417.878      3696.2817      5991.2777     -1394.9358      217.81036      991.35645      33756.838     -23840.75      -226.64459      110889.36      48.042983      48.042983      48.042983      0.59999999    -186.55153     -190.29414     -1206.7343    
    131000   65500          391.12804     -887.83255      24892.484      26328.293      7017.4221      19310.871      3757.4048      5957.6601     -1409.0216      203.23446      884.36931      33757.11      -23839.886     -226.64459      110889.36      48.042983      48.042983      48.042983      0.59999999    -261.13721     -1097.9131     -1304.4474    
    132000   66000          379.69572     -92.528408      25921.796      26071.434      6812.3092      19259.124      3611.5621      5943.1655     -1344.2221      185.2673       945.87027      33757.384     -23839.903     -226.64459      110889.36      48.042983      48.042983      48.042983      0.59999999    -81.439728     -133.1598      -62.985693    
    133000   66500          385.81686      858.64467      27758.885      26370.278      6922.1315      19448.147      3673.0771      6105.1087     -1384.8012      206.75861      960.75861      33738.85      -23851.606     -226.64459      110889.36      48.042983      48.042983      48.042983      0.59999999     701.048        1122.3256      752.56037    
    134000   67000          382.13631     -142.02407      25949.07       26178.752      6856.0969      19322.655      3609.012       5964.0569     -1315.5109      201.4622       936.49984      33771.143     -23844.008     -226.64459      110889.36      48.042983      48.042983      48.042983      0.59999999     241.00225     -713.62587      46.55142     
    135000   67500          391.92201     -221.95228      26125.48       26484.423      7031.6671      19452.756      3760.0899      6022.1363     -1386.299       202.13017      951.28968      33753.877     -23850.468     -226.64459      110889.36      48.042983      48.042983      48.042983      0.59999999     775.96406     -319.04772     -1122.7732    
    136000   68000          384.66358     -114.93091      26056.396      26242.263      6901.44        19340.823      3668.7365      6090.9807     -1422.276       200.39762      882.86732      33757.849     -23837.732     -226.64459      110889.36      48.042983      48.042983      48.042983      0.59999999    -146.27361      205.29446     -403.81358    
    137000   68500          381.96069     -1135.9138      24454.199      26291.208      6852.9461      19438.262      3759.5129      6068.336      -1368.844       188.11656      875.27344      33756.092     -23840.225     -226.64459      110889.36      48.042983      48.042983      48.042983      0.59999999    -41.886045     -1974.6185     -1391.2367    
    138000   69000          388.87847     -57.485751      26328.204      26421.17       6977.0614      19444.109      3696.1117      6052.9582     -1368.0368      202.47783      946.02993      33758.077     -23843.509     -226.64459      110889.36      48.042983      48.042983      48.042983      0.59999999    -16.343057     -394.27956      238.16536    
    139000   69500          387.98176     -913.36409      24736.833      26213.932      6960.9732      19252.959      3681.1767      5977.4206     -1384.6248      211.56767      863.40794      33747.189     -23843.178     -226.64459      110889.36      48.042983      48.042983      48.042983      0.59999999    -797.56033     -1064.5691     -877.96285    
    140000   70000          394.5066      -1063.9932      24781.955      26502.653      7078.0385      19424.614      3778.7003      6109.8568     -1410.4422      194.89509      810.81106      33781.112     -23840.319     -226.64459      110889.36      48.042983      48.042983      48.042983      0.59999999     0.85572333    -1190.9049     -2001.9304    
    141000   70500          394.92176     -1686.4069      23937.043      26664.313      7085.487       19578.826      3822.0438      6074.9766     -1361.2981      216.59651      916.45307      33751.235     -23841.181     -226.64459      110889.36      48.042983      48.042983      48.042983      0.59999999    -1693.169      -1838.3067     -1527.745     
    142000   71000          390.14438     -1255.3368      24507.87       26538.011      6999.7738      19538.237      3772.2796      6094.9304     -1340.7481      184.24042      914.46116      33754.495     -23841.422     -226.64459      110889.36      48.042983      48.042983      48.042983      0.59999999    -1115.4195     -1965.177      -685.41402    
    143000   71500          389.74332     -331.32958      25870.271      26406.099      6992.5781      19413.521      3654.691       6096.6402     -1359.4997      221.78849      901.62299      33738.303     -23840.024     -226.64459      110889.36      48.042983      48.042983      48.042983      0.59999999     559.37221     -602.53934     -950.82161    
    144000   72000          393.42421     -292.66186      26092.275      26565.57       7058.6188      19506.951      3783.2705      6073.6953     -1349.2482      206.80081      880.73761      33745.889     -23834.193     -226.64459      110889.36      48.042983      48.042983      48.042983      0.59999999    -851.1092       81.947683     -108.82405    
[...]
    465000   232500         613.32267      414.80872      35072.21       34401.378      11003.926      23397.452      5333.8444      7636.4799     -1165.6709      292.31409      1378.0622      33742.174     -23819.751     -226.64459      110889.36      48.042983      48.042983      48.042983      0.59999999     280.77596      1742.879      -779.2288     
    466000   233000         616.46763     -213.14728      33836.715      34181.419      11060.351      23121.067      5275.8185      7597.7826     -1202.939       266.80684      1289.8127      33713.278     -23819.492     -226.64459      110889.36      48.042983      48.042983      48.042983      0.59999999    -846.67099      83.225688      124.00345    
    467000   233500         615.17039     -662.74757      33170.85       34242.651      11037.077      23205.574      5276.8121      7686.2225     -1207.4984      306.57453      1193.6348      33763.355     -23813.527     -226.64459      110889.36      48.042983      48.042983      48.042983      0.59999999    -148.18588     -711.54714     -1128.5097    
    468000   234000         594.76583      36.818724      33965.275      33905.732      10670.989      23234.743      5198.4443      7711.5603     -1196.0328      272.30812      1320.6723      33752.746     -23824.955     -226.64459      110889.36      48.042983      48.042983      48.042983      0.59999999     83.684362     -502.52082      529.29263    
    469000   234500         613.99602     -510.46817      33564.95       34390.483      11016.007      23374.476      5356.2176      7817.3851     -1315.3125      286.8846       1301.6597      33748.3       -23820.658     -226.64459      110889.36      48.042983      48.042983      48.042983      0.59999999    -623.71064     -415.49408     -492.19978    
    470000   235000         608.9499      -98.247879      34133.149      34292.036      10925.472      23366.564      5322.6474      7802.1278     -1253.4913      265.57121      1311.9895      33735.432     -23817.713     -226.64459      110889.36      48.042983      48.042983      48.042983      0.59999999     182.1932       35.708927     -512.64577    
    471000   235500         622.60277      493.789        35643.634      34845.075      11170.425      23674.65       5401.8641      7874.8922     -1213.3911      289.84949      1425.6991      33728.413     -23832.677     -226.64459      110889.36      48.042983      48.042983      48.042983      0.59999999    -537.59272      719.31053      1299.6492    
    472000   236000         608.02617      15.484515      34293.13       34268.088      10908.899      23359.189      5455.1705      7643.9477     -1234.3753      287.44181      1285.0154      33739.42      -23817.431     -226.64459      110889.36      48.042983      48.042983      48.042983      0.59999999     324.23442     -20.289587     -257.49128    
    473000   236500         611.91395     -358.58578      33868.933      34448.841      10978.651      23470.189      5340.7516      7736.2754     -1173.2278      292.48483      1330.0824      33756.514     -23812.691     -226.64459      110889.36      48.042983      48.042983      48.042983      0.59999999    -126.32761     -1370.3981      420.96832    
    474000   237000         614.14177     -985.24915      32836.387      34429.74       11018.622      23411.118      5512.7037      7661.9679     -1220.6295      260.67906      1277.7742      33742.579     -23823.957     -226.64459      110889.36      48.042983      48.042983      48.042983      0.59999999    -893.25439     -956.21356     -1106.2795    
    475000   237500         613.06138     -1199.3142      32561.32       34500.86       10999.238      23501.621      5481.1409      7686.5649     -1175.4322      257.0597       1328.8927      33743.589     -23820.193     -226.64459      110889.36      48.042983      48.042983      48.042983      0.59999999    -1259.7588     -2043.6647     -294.51902    
    476000   238000         615.89635      1148.8748      36304.072      34446.103      11050.102      23396.001      5316.0148      7746.3506     -1244.3112      284.45009      1345.4061      33761.49      -23813.4       -226.64459      110889.36      48.042983      48.042983      48.042983      0.59999999    -606.95479      2283.6901      1769.8893    
    477000   238500         606.89041      402.5          35031.095      34380.168      10888.522      23491.647      5494.4666      7761.6323     -1215.137       255.10002      1305.2606      33712.2       -23821.876     -226.64459      110889.36      48.042983      48.042983      48.042983      0.59999999     909.05294     -522.7893       821.23636    
    478000   239000         614.68318     -556.72009      33569.451      34469.783      11028.336      23441.447      5325.0822      7737.9466     -1136.1567      308.38992      1255.497       33765.577     -23814.888     -226.64459      110889.36      48.042983      48.042983      48.042983      0.59999999    -304.57714     -549.11515     -816.46799    
    479000   239500         615.2537      -1928.9724      31257.905      34377.454      11038.572      23338.882      5301.1971      7728.4508     -1212.8434      289.97057      1333.8449      33719.078     -23820.816     -226.64459      110889.36      48.042983      48.042983      48.042983      0.59999999    -810.20662     -2700.675      -2276.0357    
    480000   240000         616.93765     -969.936        33129.305      34697.893      11068.784      23629.109      5420.8482      7729.5792     -1198.2948      280.21601      1459.2977      33756.955     -23819.492     -226.64459      110889.36      48.042983      48.042983      48.042983      0.59999999    -432.52619     -1987.8211     -489.4607     
    481000   240500         614.31668     -1251.8665      32698.27       34722.798      11021.76       23701.038      5517.1212      7753.9837     -1179.3845      293.63683      1393.19        33744.597     -23822.107     -226.64459      110889.36      48.042983      48.042983      48.042983      0.59999999    -1750.496      -848.18595     -1156.9175    
    482000   241000         609.11569     -247.53566      34077.188      34477.505      10928.447      23549.058      5319.5876      7843.666      -1168.1853      271.20523      1365.3832      33744.04      -23826.639     -226.64459      110889.36      48.042983      48.042983      48.042983      0.59999999     449.59414      43.951819     -1236.1529    
    483000   241500         615.42364     -944.84527      33139.738      34667.749      11041.621      23626.128      5526.2489      7667.0754     -1097.0931      280.66523      1332.3047      33739.872     -23822.945     -226.64459      110889.36      48.042983      48.042983      48.042983      0.59999999    -1598.6625     -1177.8777     -57.995564    
    484000   242000         621.51424     -305.02966      34351.236      34844.532      11150.895      23693.637      5539.6428      7887.1867     -1185.4499      290.57167      1254.7204      33733.834     -23826.868     -226.64459      110889.36      48.042983      48.042983      48.042983      0.59999999    -1550.4828      28.884529      606.50934    
    485000   242500         618.42069     -1049.9659      32988.486      34686.499      11095.392      23591.107      5477.3858      7749.9812     -1128.8419      287.92772      1298.5584      33730.972     -23824.876     -226.64459      110889.36      48.042983      48.042983      48.042983      0.59999999    -849.53018     -1499.923      -800.44465    
    486000   243000         616.06874      381.14483      35199.279      34582.889      11053.195      23529.694      5416.5818      7725.5225     -1158.7538      276.77875      1369.116       33732.566     -23832.117     -226.64459      110889.36      48.042983      48.042983      48.042983      0.59999999     647.56667      472.00235      23.865471    
    487000   243500         618.47007      545.8587       35538.28       34655.513      11096.278      23559.235      5394.0417      7790.3801     -1189.2637      293.85753      1356.7055      33733.916     -23820.402     -226.64459      110889.36      48.042983      48.042983      48.042983      0.59999999     489.12724      303.01292      845.43594    
    488000   244000         625.80097     -462.0116       34169.664      34916.832      11227.805      23689.027      5550.1681      7757.2305     -1153.8461      269.57238      1357.75        33740.045     -23831.892     -226.64459      110889.36      48.042983      48.042983      48.042983      0.59999999     240.61882     -1047.3855     -579.26811    
    489000   244500         626.91357      58.678807      35109.409      35014.513      11247.767      23766.746      5618.4214      7767.5904     -1195.5636      291.56906      1395.3077      33723.269     -23833.848     -226.64459      110889.36      48.042983      48.042983      48.042983      0.59999999    -301.08669     -135.82548      612.94859    
    490000   245000         623.52555      560.11734      35622.892      34717.066      11186.981      23530.085      5406.2648      7759.3026     -1196.9587      287.45446      1380.8229      33726.775     -23833.576     -226.64459      110889.36      48.042983      48.042983      48.042983      0.59999999     347.55021      834.1792       498.62262    
    491000   245500         638.78357     -1135.5236      33259.275      35095.652      11460.733      23634.92       5512.8749      7695.2693     -1131.0129      306.35095      1334.7286      33744.518     -23827.809     -226.64459      110889.36      48.042983      48.042983      48.042983      0.59999999    -1915.541      -118.41453     -1372.6154    
    492000   246000         622.60214     -612.01854      33964.056      34953.817      11170.414      23783.403      5533.3697      7859.5772     -1179.4067      298.79991      1333.3521      33762.121     -23824.41      -226.64459      110889.36      48.042983      48.042983      48.042983      0.59999999    -548.66005     -482.31129     -805.08427    
    493000   246500         626.62129      58.928501      35163.264      35067.965      11242.523      23825.442      5526.6182      7891.1102     -1182.3539      318.67119      1315.5973      33780.812     -23825.013     -226.64459      110889.36      48.042983      48.042983      48.042983      0.59999999     773.26036     -483.92916     -112.5457     
    494000   247000         617.01897     -1833.7375      31797.312      34762.846      11070.243      23692.603      5541.4704      7721.1711     -1171.0445      311.31432      1365.3794      33750.429     -23826.116     -226.64459      110889.36      48.042983      48.042983      48.042983      0.59999999    -2927.828      -1616.5476     -956.83682    
    495000   247500         618.42175      616.00626      35887.296      34891.086      11095.411      23795.675      5516.6904      7787.9285     -1147.3933      285.31106      1430.9323      33748.384     -23826.179     -226.64459      110889.36      48.042983      48.042983      48.042983      0.59999999     278.74553      860.21921      709.05405    
    496000   248000         624.29248      545.42162      35604.698      34722.638      11200.741      23521.897      5550.544       7697.6152     -1255.9697      287.42566      1328.752       33734.607     -23821.077     -226.64459      110889.36      48.042983      48.042983      48.042983      0.59999999     1174.3167      400.5203       61.427829    
    497000   248500         631.83874     -710.80071      33945.807      35095.319      11336.132      23759.187      5565.8852      7896.3919     -1205.9385      268.58029      1323.437       33737.451     -23826.62      -226.64459      110889.36      48.042983      48.042983      48.042983      0.59999999    -987.92286     -1013.7804     -130.69885    
    498000   249000         619.67153      335.80962      35481.056      34937.982      11117.834      23820.148      5572.7837      7773.7458     -1143.9286      295.48666      1387.3367      33770.678     -23835.955     -226.64459      110889.36      48.042983      48.042983      48.042983      0.59999999    -451.1517       258.09562      1200.4849    
    499000   249500         627.23437      149.29316      35504.829      35263.391      11253.523      24009.868      5615.3012      7986.9779     -1146.0067      270.31932      1375.0017      33737.875     -23829.601     -226.64459      110889.36      48.042983      48.042983      48.042983      0.59999999     168.33281      290.65881     -11.112132    
    500000   250000         627.27453      174.63523      35281.935      34999.513      11254.243      23745.27       5544.8885      7828.6859     -1194.4762      282.43411      1387.1364      33721.619     -23825.018     -226.64459      110889.36      48.042983      48.042983      48.042983      0.59999999     1114.8799      32.208597     -623.18277    
Loop time of 47860.7 on 1 procs for 500000 steps with 6020 atoms

Performance: 0.451 ns/day, 53.179 hours/ns, 10.447 timesteps/s, 62.891 katom-step/s
43.2% CPU use with 1 MPI tasks x 1 OpenMP threads

MPI task timing breakdown:
Section |  min time  |  avg time  |  max time  |%varavg| %total
---------------------------------------------------------------
Pair    | 1198.6     | 1198.6     | 1198.6     |   0.0 |  2.50
Bond    | 12367      | 12367      | 12367      |   0.0 | 25.84
Kspace  | 31492      | 31492      | 31492      |   0.0 | 65.80
Neigh   | 2426.5     | 2426.5     | 2426.5     |   0.0 |  5.07
Comm    | 168.42     | 168.42     | 168.42     |   0.0 |  0.35
Output  | 22.216     | 22.216     | 22.216     |   0.0 |  0.05
Modify  | 132.13     | 132.13     | 132.13     |   0.0 |  0.28
Other   |            | 54.02      |            |       |  0.11

Nlocal:           6020 ave        6020 max        6020 min
Histogram: 1 0 0 0 0 0 0 0 0 0
Nghost:          12099 ave       12099 max       12099 min
Histogram: 1 0 0 0 0 0 0 0 0 0
Neighs:              0 ave           0 max           0 min
Histogram: 1 0 0 0 0 0 0 0 0 0
FullNghs:  2.57782e+06 ave 2.57782e+06 max 2.57782e+06 min
Histogram: 1 0 0 0 0 0 0 0 0 0

Total # of neighbors = 2577818
Ave neighs/atom = 428.20897
Ave special neighs/atom = 5.717608
Neighbor list builds = 11683
Dangerous builds = 0

# --- Cleanup ---
unfix nvt_fix

undump dump_nvt

# --- Write Output ---
write_dump all custom nvt_softheat_last.dump id type mol x y z xu yu zu vx vy vz modify sort id
write_data /home/arz2/PolyJarvis/data/PMMA1/lammps/nvt_softheat/nvt_softheat_out.data
System init for write_data ...
PPPM initialization ...
  using 12-bit tables for long-range coulomb
  G vector (1/distance) = 0.32263586
  grid = 45 45 45
  stencil order = 5
  estimated absolute RMS force accuracy = 0.00038748708
  estimated relative force accuracy = 1.1669058e-06
  using double precision KISS FFT
  3d grid and FFT values/proc = 140608 91125
Generated 15 of 15 mixed pair_coeff terms from sixthpower/sixthpower mixing rule

print "STAGE COMPLETE: NVT T=300.0->630.0K steps=500000"
STAGE COMPLETE: NVT T=300.0->630.0K steps=500000
quit

Ave neighs/atom = 428.20897
Ave special neighs/atom = 5.717608
Neighbor list builds = 11683
Dangerous builds = 0
System init for write_data ...
PPPM initialization ...
  using 12-bit tables for long-range coulomb
  G vector (1/distance) = 0.32263586
  grid = 45 45 45
  stencil order = 5
  estimated absolute RMS force accuracy = 0.00038748708
  estimated relative force accuracy = 1.1669058e-06
  using double precision KISS FFT
  3d grid and FFT values/proc = 140608 91125


---------------------------------------------------------------------
    Device Time Info (average) for kspace: 
---------------------------------------------------------------------
Data Out:        75.9208 s.
Data In:         428.9397 s.
Kernel (map):    25.6317 s.
Kernel (rho):    261.4864 s.
Force interp:    39.3828 s.
Total rho:       363.0389 s.
Total interp:    468.3224 s.
Force copy:      18.4858 s.
Total:           849.8472 s.
CPU Poisson:     31406.6658 s.
CPU Data Cast:   27.8499 s.
CPU Idle Time:   13.0067 s.
Max Mem / Proc:  40.50 MB.
---------------------------------------------------------------------


--------------------------------------------------------------------------
- Using acceleration for pppm:
-  with 1 proc(s) per device.
-  with 1 thread(s) per proc.
-  Horizontal vector operations: ENABLED
-  Shared memory system: No
--------------------------------------------------------------------------
Device 0: Quadro RTX 6000, 72 CUs, 17/24 GB, 1.8 GHZ (Mixed Precision)
--------------------------------------------------------------------------

Initializing Device and compiling on process 0...Done.
Initializing Device 0 on core 0...Done.



---------------------------------------------------------------------
      Device Time Info (average): 
---------------------------------------------------------------------
Data Transfer:   14.8909 s.
Neighbor copy:   146.5249 s.
Neighbor unpack: 0.0000 s.
Force calc:      82.8986 s.
Device Overhead: 8.6704 s.
CPU Cast/Pack:   46.3225 s.
CPU Driver_Time: 6.4211 s.
CPU Idle_Time:   8.4935 s.
Average split:   1.0000.
Max Mem / Proc:  21.69 MB.
Prefetch mode:   None.
Vector width:    32.
Lanes / atom:    8.
Pair block:      256.
Neigh block:     128.
Neigh mode:      Host.
---------------------------------------------------------------------


--------------------------------------------------------------------------
- Using acceleration for lj/class2/coul/long:
-  with 1 proc(s) per device.
-  with 1 thread(s) per proc.
-  Horizontal vector operations: ENABLED
-  Shared memory system: No
--------------------------------------------------------------------------
Device 0: Quadro RTX 6000, 72 CUs, 17/24 GB, 1.8 GHZ (Mixed Precision)
--------------------------------------------------------------------------

Initializing Device and compiling on process 0...Done.
Initializing Device 0 on core 0...Done.

Generated 15 of 15 mixed pair_coeff terms from sixthpower/sixthpower mixing rule
STAGE COMPLETE: NVT T=300.0->630.0K steps=500000
Cuda driver error 4 in call at file '/home/arz2/lammps/lib/gpu/geryon/nvd_timer.h' in line 98.
Cuda driver error 4 in call at file '/home/arz2/lammps/lib/gpu/geryon/nvd_timer.h' in line 99.
Cuda driver error 4 in call at file '/home/arz2/lammps/lib/gpu/geryon/nvd_timer.h' in line 98.
Cuda driver error 4 in call at file '/home/arz2/lammps/lib/gpu/geryon/nvd_timer.h' in line 99.
Cuda driver error 4 in call at file '/home/arz2/lammps/lib/gpu/geryon/nvd_timer.h' in line 98.
Cuda driver error 4 in call at file '/home/arz2/lammps/lib/gpu/geryon/nvd_timer.h' in line 99.
Cuda driver error 4 in call at file '/home/arz2/lammps/lib/gpu/geryon/nvd_timer.h' in line 98.
Cuda driver error 4 in call at file '/home/arz2/lammps/lib/gpu/geryon/nvd_timer.h' in line 99.
Cuda driver error 4 in call at file '/home/arz2/lammps/lib/gpu/geryon/nvd_timer.h' in line 98.
Cuda driver error 4 in call at file '/home/arz2/lammps/lib/gpu/geryon/nvd_timer.h' in line 99.
Cuda driver error 4 in call at file '/home/arz2/lammps/lib/gpu/geryon/nvd_timer.h' in line 98.
Cuda driver error 4 in call at file '/home/arz2/lammps/lib/gpu/geryon/nvd_timer.h' in line 99.
Cuda driver error 4 in call at file '/home/arz2/lammps/lib/gpu/geryon/nvd_timer.h' in line 98.
Cuda driver error 4 in call at file '/home/arz2/lammps/lib/gpu/geryon/nvd_timer.h' in line 99.
Cuda driver error 4 in call at file '/home/arz2/lammps/lib/gpu/geryon/nvd_timer.h' in line 98.
Cuda driver error 4 in call at file '/home/arz2/lammps/lib/gpu/geryon/nvd_timer.h' in line 99.
Cuda driver error 4 in call at file '/home/arz2/lammps/lib/gpu/geryon/nvd_timer.h' in line 98.
Cuda driver error 4 in call at file '/home/arz2/lammps/lib/gpu/geryon/nvd_timer.h' in line 99.
Cuda driver error 4 in call at file '/home/arz2/lammps/lib/gpu/geryon/nvd_timer.h' in line 98.
Cuda driver error 4 in call at file '/home/arz2/lammps/lib/gpu/geryon/nvd_timer.h' in line 99.
