units real
atom_style full
boundary p p p

# --- Force Field Styles ---
pair_style lj/class2/coul/long 9.5 9.5
kspace_style pppm 1e-6
dielectric 1.000000
bond_style class2
angle_style class2
dihedral_style class2
improper_style class2
special_bonds lj/coul 0 0 1
pair_modify mix sixthpower tail yes
neighbor 2.0 bin
neigh_modify delay 0 every 1 check yes
neigh_modify one 4000
# KOKKOS: package loaded via -pk kokkos on the command line

read_data /home/arz2/PolyJarvis/data/PSU2/lammps/equil/npt_extend/npt_extend_out.data
Reading data file ...
  orthogonal box = (5.9813462 5.9813462 5.9813462) to (55.912235 55.912235 55.912235)
  1 by 1 by 1 MPI processor grid
  reading atoms ...
  10820 atoms
  reading velocities ...
  10820 velocities
  scanning bonds ...
  4 = max bonds/atom
  scanning angles ...
  16 = max angles/atom
  scanning dihedrals ...
  38 = max dihedrals/atom
  scanning impropers ...
  12 = max impropers/atom
  orthogonal box = (5.9813462 5.9813462 5.9813462) to (55.912235 55.912235 55.912235)
  1 by 1 by 1 MPI processor grid
  reading bonds ...
  11610 bonds
  reading angles ...
  19600 angles
  reading dihedrals ...
  29180 dihedrals
  reading impropers ...
  8000 impropers
Finding 1-2 1-3 1-4 neighbors ...
  special bond factors lj:    0        0        1       
  special bond factors coul:  0        0        1       
     4 = max # of 1-2 neighbors
    10 = max # of 1-3 neighbors
    14 = max # of special neighbors
  special bonds CPU = 0.006 seconds
  read_data CPU = 0.435 seconds


# --- Thermo Output ---
thermo_style custom step time temp press enthalpy etotal ke pe ebond eangle edihed eimp evdwl ecoul elong etail vol lx ly lz density pxx pyy pzz
thermo_modify flush yes
thermo 100

# --- Trajectory ---
dump dump_npt all custom 1000 /home/arz2/PolyJarvis/data/PSU2/lammps/mechanical/bm_series/bm_P-500/bm_P-500.dump id type mol x y z ix iy iz vx vy vz

# --- Restart Checkpointing ---
restart 10000 npt_1.rst npt_2.rst

# --- Initial Velocities (optional) ---
# Velocities read from data file

# --- SHAKE Constraints ---
fix shake_fix all shake 1e-4 1000 0 m 1.008
Finding SHAKE clusters ...
    3220 = # of size 2 clusters
       0 = # of size 3 clusters
     400 = # of size 4 clusters
       0 = # of frozen angles
  find clusters CPU = 0.003 seconds

# --- NPT Thermostat + Barostat (Nose-Hoover) ---
# T_damp = 100.0 fs  (heat bath coupling)
# P_damp = 1000.0 fs  (pressure bath coupling, ~10x T_damp typical)
# Ramp: T=300.0->300.0K  P=-500.0->-500.0atm
timestep 1.0
fix npt_fix all npt temp 300.0 300.0 100.0 iso -500.0 -500.0 1000.0

run 500000
PPPM Kokkos initialization ...
  using 12-bit tables for long-range coulomb
  G vector (1/distance) = 0.30191443
  grid = 36 36 36
  stencil order = 5
  estimated absolute RMS force accuracy = 0.00029044865
  estimated relative force accuracy = 8.7467747e-07
  using double precision cuFFT
  3d grid and FFT values/proc = 79507 46656
Generated 28 of 28 mixed pair_coeff terms from sixthpower/sixthpower mixing rule
Neighbor list info ...
  update: every = 1 steps, delay = 0 steps, check = yes
  max neighbors/atom: 4000, page size: 100000
  master list distance cutoff = 11.5
  ghost atom cutoff = 11.5
  binsize = 11.5, bins = 5 5 5
  1 neighbor lists, perpetual/occasional/extra = 1 0 0
  (1) pair lj/class2/coul/long/kk, perpetual
      attributes: full, newton off, kokkos_device
      pair build: full/bin/kk/device
      stencil: full/bin/3d
      bin: kk/device
Per MPI rank memory allocation (min/avg/max) = 65.42 | 65.42 | 65.42 Mbytes
   Step          Time           Temp          Press         Enthalpy        TotEng         KinEng         PotEng         E_bond        E_angle        E_dihed        E_impro         E_vdwl         E_coul         E_long         E_tail         Volume           Lx             Ly             Lz          Density          Pxx            Pyy            Pzz      
         0   0              344.90778      795.03201      24305.963      22862.624      9608.3225      13254.302      3516.4212      5119.9153      3722.403       378.2402      -440.05572      8148.7202     -7191.3425     -878.4708       124482.38      49.930889      49.930889      49.930889      1.1809204      1094.7831     -741.19071      2031.5036    
       100   100            299.79027     -946.30844      19828.278      21551.156      8351.4545      13199.701      3541.2776      5036.0183      3873.7282      374.93923     -578.6311       8146.8821     -7194.5129     -875.97036      124837.72      49.978353      49.978353      49.978353      1.1775591     -1738.8863     -886.16259     -213.8764     
       200   200            301.44481     -692.59168      20163.16       21429.871      8397.5461      13032.325      3508.2516      5123.4194      3685.2583      363.59258     -598.84549      8144.7548     -7194.1064     -871.98894      125407.72      50.054303      50.054303      50.054303      1.1722069     -990.9314      -580.59624     -506.2474     
       300   300            297.78971     -953.11337      19688.872      21438.034      8295.7236      13142.31       3562.3301      5004.4732      3782.8828      381.99248     -535.65064      8140.8597     -7194.5774     -869.01197      125837.32      50.111395      50.111395      50.111395      1.168205      -859.5971      -1173.0711     -826.67185    
       400   400            300.88817     -891.58239      19868.303      21508.51       8382.0396      13126.471      3534.2865      5027.6751      3771.4115      390.11236     -545.49807      8142.9662     -7194.483      -866.90961      126142.49      50.151871      50.151871      50.151871      1.1653788     -964.58089     -541.10438     -1169.0619    
       500   500            301.60184     -621.68089      20442.324      21584.918      8401.9205      13182.997      3541.7162      5016.4737      3774.3421      376.08633     -484.84998      8151.2551     -7192.0265     -867.7343       126022.61      50.135978      50.135978      50.135978      1.1664874      111.8246      -1257.239      -719.62821    
       600   600            300.44042      1032.9108      23521.378      21625.667      8369.5663      13256.101      3625.4866      5075.2858      3660.8988      379.68018     -432.45301      8140.0417     -7192.8396     -868.96398      125844.27      50.112317      50.112317      50.112317      1.1681405      934.14373      941.55666      1223.0321    
       700   700            304.4656      -767.45279      20155.309      21562.2        8481.6983      13080.502      3498.1875      5030.3655      3773.0493      381.28511     -543.48979      8135.9831     -7194.8785     -869.96605      125699.32      50.093069      50.093069      50.093069      1.1694875     -454.47633     -1714.7013     -133.18073    
       800   800            296.01297     -1063.793       19459.776      21406.339      8246.2277      13160.111      3441.2708      5055.553       3811.0403      376.01267     -464.25751      8134.9613     -7194.4695     -871.56493      125468.73      50.062419      50.062419      50.062419      1.1716369     -342.90353     -1322.599      -1525.8765    
       900   900            296.30123      1046.5732      23321.664      21408.127      8254.2581      13153.869      3521.4091      4994.8473      3714.7946      383.11673     -394.34258      8131.6068     -7197.5635     -872.25576      125369.35      50.049199      50.049199      50.049199      1.1725656      875.02938      1481.5938      783.09644    
      1000   1000           302.32658     -627.57582      20383.746      21532.187      8422.1103      13110.077      3529.7297      4985.9327      3772.9652      370.12448     -497.22366      8142.6728     -7194.1248     -871.50246      125477.72      50.063615      50.063615      50.063615      1.1715529     -815.91219      15.233848     -1082.0491    
      1100   1100           300.83946     -43.305625      21496.702      21576.009      8380.6825      13195.327      3542.8572      5013.2765      3802.3202      384.10859     -502.50049      8148.6091     -7193.3445     -870.84793      125572.03      50.076154      50.076154      50.076154      1.170673      -260.32333     -277.34941      407.75586    
      1200   1200           300.35414     -280.65267      20992.643      21507.657      8367.1627      13140.494      3516.5759      5017.8595      3766.3685      383.60348     -507.09468      8154.6072     -7191.4257     -869.08354      125826.96      50.110019      50.110019      50.110019      1.1683012      258.32673     -1135.8778      35.593074    
      1300   1300           297.3747      -522.84944      20351.391      21311.023      8284.1624      13026.86       3467.119       4883.8306      3822.0921      373.45814     -471.60856      8144.6795     -7192.7105     -868.92691      125849.64      50.11303       50.11303       50.11303       1.1680906     -1218.7826     -41.929485     -307.83622    
      1400   1400           296.89926      383.91728      22061.223      21356.989      8270.9179      13086.071      3544.1308      5046.4219      3670.6767      369.60743     -509.7015       8157.5023     -7192.5666     -869.42392      125777.7       50.103479      50.103479      50.103479      1.1687588      381.82337     -136.47087      906.39935    
      1500   1500           301.55417     -565.23203      20457.652      21494.243      8400.5925      13093.65       3533.4416      5004.3074      3795.3277      367.18228     -552.33104      8138.6217     -7192.8992     -869.62197      125749.05      50.099675      50.099675      50.099675      1.169025       592.0437      -2766.7393      478.9995     
      1600   1600           301.91981     -48.580826      21460.126      21549.056      8410.7786      13138.277      3534.8597      5030.9592      3769.1281      373.12626     -520.53         8144.132      -7193.3982     -871.22727      125517.35      50.068885      50.068885      50.068885      1.171183       1484.9788     -651.12651     -979.59476    
      1700   1700           301.63379      85.16126       21683.844      21528.139      8402.8106      13125.329      3563.3926      4968.2072      3749.4402      373.55221     -479.18666      8142.3803     -7192.4572     -872.2684       125367.54      50.048957      50.048957      50.048957      1.1725826      239.83309     -331.96996      347.62065    
      1800   1800           297.74938     -736.54281      20063.617      21409.579      8294.6002      13114.979      3412.4376      5045.2244      3864.2658      389.9132      -546.03749      8142.4715     -7193.2959     -872.72244      125302.31      50.040276      50.040276      50.040276      1.1731929     -1169.4974     -105.04648     -935.08458    
      1900   1900           296.64927     -1643.3822      18302.505      21300.169      8263.9536      13036.216      3358.2465      5003.6545      3899.3613      379.46754     -559.07796      8147.9186     -7193.3548     -874.31254      125074.43      50.009922      50.009922      50.009922      1.1753305     -853.53077     -2234.9287     -1841.6872    
      2000   2000           294.95781     -464.4495       20457.883      21305.264      8216.8337      13088.431      3503.2598      5007.9348      3795.2267      383.34461     -545.84689      8136.3544     -7191.8428     -874.11914      125102.1       50.01361       50.01361       50.01361       1.1750705      58.125899     -1344.0393     -107.43514    
      2100   2100           298.46041     -1262.3586      19192.861      21497.366      8314.4077      13182.958      3386.0998      5131.8061      3864.3816      383.76121     -539.96719      8148.7666     -7191.8903     -873.60723      125175.41      50.023377      50.023377      50.023377      1.1743823     -1308.4838     -259.42863     -2219.1635    
      2200   2200           304.22135     -519.36073      20615.701      21563.772      8474.894       13088.878      3463.6899      5001.2137      3872.1629      388.93153     -587.40826      8142.8919     -7192.6035     -873.65346      125168.78      50.022494      50.022494      50.022494      1.1744445     -1450.2041      216.85326     -324.73131    
      2300   2300           303.78125     -1062.3587      19566.149      21506.361      8462.6338      13043.727      3435.4268      4964.924       3919.4585      373.9566      -582.72517      8127.5714     -7194.8849     -873.23906      125228.18      50.030406      50.030406      50.030406      1.1738874     -998.61006     -1521.448      -667.01814    
      2400   2400           297.75585     -777.66512      19964.393      21384.47       8294.7804      13089.689      3449.8922      4971.0543      3882.518       383.49788     -548.86592      8144.0534     -7192.4608     -873.35728      125211.23      50.028148      50.028148      50.028148      1.1740463      178.54955     -1116.2096     -1395.3353    
      2500   2500           298.09117     -227.34458      20923.649      21338.931      8304.1216      13034.81       3501.483       4976.1786      3767.7551      371.95867     -527.47364      8139.9421     -7195.0341     -873.0768       125251.46      50.033505      50.033505      50.033505      1.1736693      91.374229      424.18669     -1197.5946    
      2600   2600           302.74944     -751.22128      20166.232      21539.33       8433.8902      13105.44       3517.9739      5051.6195      3768.66        380.01992     -553.97392      8139.4116     -7198.2707     -872.52396      125330.82      50.04407       50.04407       50.04407       1.1729261     -978.73851     -789.34593     -485.57942    
      2700   2700           299.34727     -238.58377      21179.833      21616.545      8339.1137      13277.432      3541.1131      5072.2843      3861.3195      373.4534      -516.71891      8140.1759     -7194.1955     -871.27797      125510.05      50.067914      50.067914      50.067914      1.1712511     -149.75185     -377.7901      -188.20936    
      2800   2800           301.98216     -701.2405       20275.49       21559.35       8412.5156      13146.834      3477.3958      5046.678       3845.2871      376.54877     -547.17532      8142.441      -7194.3412     -871.08522      125537.82      50.071607      50.071607      50.071607      1.170992      -1114.4168     -1080.6298      91.325205    
      2900   2900           297.59667     -109.64088      21246.81       21447.37       8290.3461      13157.024      3528.9358      4949.3752      3821.8293      387.32039     -473.19926      8138.2889     -7195.526      -871.84397      125428.57      50.057077      50.057077      50.057077      1.172012      -296.80759     -59.19497       27.079927    
      3000   3000           297.44033     -371.55793      20704.904      21384.143      8285.9906      13098.152      3467.7272      5013.7315      3811.5731      374.84473     -514.61548      8142.6733     -7197.7819     -872.39921      125348.74      50.046455      50.046455      50.046455      1.1727584     -602.44771     -558.30296      46.076885    
      3100   3100           299.13472     -693.13226      20226.315      21493.132      8333.1924      13159.94       3592.6952      5035.6287      3742.2611      374.68732     -536.26868      8145.0042     -7194.0682     -872.59613      125320.45      50.04269       50.04269       50.04269       1.1730231     -945.93086     -526.84947     -606.61647    
      3200   3200           303.49254      607.02388      22752.283      21644.344      8454.5912      13189.753      3537.8807      5028.5118      3815.0525      380.9545      -522.0808       8143.3806     -7193.9468     -873.77732      125151.04      50.020131      50.020131      50.020131      1.174611       134.36726      1385.7182      300.98619    
      3300   3300           301.99038     -528.1608       20597.073      21560.711      8412.7446      13147.966      3488.5153      5019.3765      3791.3933      382.66186     -499.5945       8155.3928     -7189.779      -874.10493      125104.13      50.013881      50.013881      50.013881      1.1750514      375.34685     -1470.9964     -488.83284    
      3400   3400           299.04613     -321.93486      20877.268      21464.747      8330.7245      13134.022      3523.8125      5014.7363      3776.6165      369.88909     -510.5907       8149.6489     -7190.0902     -873.95118      125126.14      50.016813      50.016813      50.016813      1.1748447     -264.84243     -267.01813     -433.94403    
      3500   3500           297.49879     -372.53518      20771.24       21451.778      8287.6194      13164.158      3558.3401      5093.7596      3696.5797      382.66042     -532.29564      8154.9913     -7189.8769     -873.02419      125259         50.03451       50.03451       50.03451       1.1735986      226.88046     -718.58493     -625.90107    
      3600   3600           299.59909     -1236.0523      19330.303      21590.574      8346.1288      13244.445      3570.3836      4979.3706      3897.1552      377.78936     -541.42655      8152.6197     -7191.4466     -872.14235      125385.66      50.051368      50.051368      50.051368      1.1724131     -1485.0716     -1397.7305     -825.35496    
      3700   3700           303.7306       148.32268      21978.321      21706.978      8461.223       13245.755      3528.744       5061.2679      3769.1444      369.11502     -421.33962      8132.8757     -7194.0525     -871.76601      125439.78      50.058569      50.058569      50.058569      1.1719072     -221.41808      71.70326       594.68286    
      3800   3800           300.55273     -11.683909      21602.973      21624.378      8372.6948      13251.683      3504.7257      5037.5712      3845.392       383.56236     -466.00487      8136.6136     -7190.177      -870.52125      125619.15      50.082417      50.082417      50.082417      1.1702339     -892.33532     -239.96895      1097.2525    
      3900   3900           300.16982     -612.7804       20401.021      21525.495      8362.028       13163.467      3466.7982      5093.7922      3817.2055      370.99872     -530.30669      8137.9559     -7192.9764     -869.0937       125825.49      50.109824      50.109824      50.109824      1.1683148     -748.44844     -1353.6291      263.73634    
      4000   4000           299.1579      -1036.6163      19563.216      21465.217      8333.8381      13131.379      3463.3749      5087.5299      3796.7928      371.88506     -540.19785      8144.7067     -7192.7123     -869.19718      125810.51      50.107835      50.107835      50.107835      1.168454      -1109.7866     -877.00427     -1123.0581    
      4100   4100           297.45217      482.52626      22313.352      21429.864      8286.3206      13143.544      3561.4328      5001.8845      3728.5234      368.99435     -463.14535      8141.5116     -7195.6577     -871.02652      125546.28      50.072732      50.072732      50.072732      1.1709131      174.51382      512.78105      760.28392    
      4200   4200           295.74687     -182.49347      21066.47       21400.07       8238.8149      13161.255      3454.3766      4975.2549      3852.8359      390.18321     -458.45336      8141.6902     -7194.6327     -872.43608      125343.44      50.04575       50.04575       50.04575       1.172808      -565.09917     -752.68172      770.3005     
      4300   4300           300.74011     -659.8754       20233.525      21439.322      8377.9147      13061.407      3431.8823      4933.5983      3890.354       372.28927     -519.48767      8145.4829     -7192.7123     -872.76844      125295.71      50.039397      50.039397      50.039397      1.1732548     -536.28521     -791.66997     -651.671      
      4400   4400           301.7221      -1060.9286      19623.65       21564.397      8405.2708      13159.126      3464.854       5049.5053      3849.9672      364.54092     -530.88016      8150.6723     -7189.533      -871.82286      125431.6       50.057481      50.057481      50.057481      1.1719836     -742.16389     -1135.7439     -1304.8779    
      4500   4500           302.59689     -1671.8024      18554.892      21617.298      8429.6403      13187.658      3480.3175      5037.5971      3897.6289      383.52368     -561.65183      8143.3558     -7193.1132     -870.62915      125603.58      50.080348      50.080348      50.080348      1.1703789     -1115.5452     -1719.1076     -2180.7546    
      4600   4600           297.33989     -136.62475      21245.686      21495.931      8283.1928      13212.739      3469.0964      5037.148       3879.5758      369.23546     -504.52249      8152.7565     -7190.5512     -870.71311      125591.47      50.078739      50.078739      50.078739      1.1704918      482.18091     -864.90055     -27.154602    
      4700   4700           297.21692     -1058.8776      19459.003      21398.431      8279.7669      13118.665      3490.7014      5062.519       3792.4763      384.41722     -576.16185      8155.9168     -7191.2044     -870.72904      125589.17      50.078433      50.078433      50.078433      1.1705132     -1739.4432     -361.62466     -1075.5651    
      4800   4800           296.99321     -210.92377      21027.093      21413.039      8273.5351      13139.504      3456.1468      5096.4082      3763.1463      360.6683      -495.08989      8148.7371     -7190.5132     -871.58545      125465.77      50.062026      50.062026      50.062026      1.1716645      407.08123     -282.72908     -757.12345    
      4900   4900           297.04482     -1071.1192      19531.198      21490.604      8274.9728      13215.632      3465.9079      5042.9017      3907.5205      384.7227      -529.25755      8135.8961     -7192.0598     -871.81498      125432.74      50.057632      50.057632      50.057632      1.171973      -1847.3361      114.84162     -1480.8631    
      5000   5000           299.0752       216.98498      21949.008      21551.3        8331.5345      13219.765      3560.2166      5036.1692      3741.6694      377.17558     -453.85892      8150.4458     -7192.0523     -870.11461      125677.86      50.090218      50.090218      50.090218      1.1696872     -646.08978      382.47461      914.57011    
      5100   5100           298.16641      268.18328      22073.392      21580.985      8306.2175      13274.767      3534.2569      5055.8551      3791.2214      387.95566     -442.274        8141.4026     -7193.6506     -868.59724      125897.41      50.119369      50.119369      50.119369      1.1676474     -997.97523      593.79414      1208.7309    
      5200   5200           299.66143     -787.33893      20126.08       21574.523      8347.8655      13226.658      3571.5524      5039.715       3821.2883      387.10067     -542.90976      8141.8278     -7191.9164     -866.9047       126143.21      50.151965      50.151965      50.151965      1.1653722     -874.42914     -334.41211     -1153.1755    
      5300   5300           297.39268     -60.793604      21401.937      21513.671      8284.6634      13229.008      3569.6286      5092.3974      3734.1428      383.32547     -496.6688       8139.2697     -7193.0873     -867.72418      126024.08      50.136173      50.136173      50.136173      1.1664738     -195.97046     -472.38506      485.97471    
      5400   5400           297.95672     -980.05764      19631.864      21429.177      8300.3762      13128.801      3491.3576      5058.5865      3762.7296      373.26035     -505.62647      8142.7418     -7194.2482     -869.63872      125746.63      50.099353      50.099353      50.099353      1.1690475     -362.48135     -1151.4429     -1426.2487    
      5500   5500           292.16188     -94.818562      21018.077      21191.571      8138.9454      13052.625      3520.9999      5082.1982      3649.9526      363.41967     -525.71574      8155.1303     -7193.3596     -871.60545      125462.89      50.061643      50.061643      50.061643      1.1716914      1392.9484     -705.51953     -971.88459    
      5600   5600           294.13172      998.2652       23083.85       21261.453      8193.8205      13067.632      3513.1262      5023.997       3709.3365      363.39808     -486.21159      8137.058      -7193.072      -873.60275      125176.05      50.023462      50.023462      50.023462      1.1743763      1740.7927      912.72427      341.27862    
      5700   5700           301.06205     -1267.2928      19118.371      21433.847      8386.8833      13046.964      3480.6791      4987.6275      3833.6755      375.27467     -579.85951      8142.5628     -7192.9964     -872.86664      125281.61      50.03752       50.03752       50.03752       1.1733868      313.42317     -2747.8903     -1367.4113    
      5800   5800           302.43561      67.369077      21657.31       21534.158      8425.1475      13109.01       3519.4009      5021.6495      3776.7791      372.77818     -532.48946      8145.1007     -7194.2087     -872.42802      125344.6       50.045904      50.045904      50.045904      1.1727971      135.11748     -230.1688       297.15855    
      5900   5900           300.9363      -652.15686      20399.33       21592.869      8383.3803      13209.489      3520.8686      5066.6327      3801.8293      380.57835     -510.49809      8143.9449     -7193.8666     -871.41804      125489.87      50.065232      50.065232      50.065232      1.1714394     -1342.1821     -390.28799     -224.00049    
      6000   6000           301.97801     -895.76887      19908.999      21551.195      8412.3998      13138.795      3457.5069      5028.6471      3844.3394      377.85666     -517.96684      8140.4085     -7191.9963     -869.92532      125705.21      50.093851      50.093851      50.093851      1.1694328     -233.84232     -863.16032     -1590.304     
      6100   6100           301.64074     -426.2382       20606.318      21387.938      8403.0043      12984.934      3406.9528      4977.0692      3830.394       374.52836     -568.97653      8152.4089     -7187.4431     -869.69643      125738.29      50.098245      50.098245      50.098245      1.1691251     -45.043942     -967.24959     -266.42106    
      6200   6200           296.35479     -646.65784      20188.344      21375.712      8255.7501      13119.962      3503.3059      5012.6945      3782.1197      368.66055     -508.81145      8151.5126     -7189.5195     -868.56073      125902.7       50.120071      50.120071      50.120071      1.1675984     -418.54003     -672.78164     -848.65186    
      6300   6300           298.20809     -306.65548      20882.362      21445.308      8307.3787      13137.929      3501.3837      5035.0052      3782.6314      382.85271     -512.79754      8142.1203     -7193.2664     -868.75018      125875.24      50.116428      50.116428      50.116428      1.167853      -776.0933      -34.374256     -109.49889    
      6400   6400           300.28941     -890.45484      19856.152      21488.679      8365.3595      13123.32       3467.2725      5008.8303      3845.0377      376.81823     -538.55353      8155.4276     -7191.5133     -869.88682      125710.77      50.09459       50.09459       50.09459       1.169381      -761.93189     -1702.894      -206.53863    
      6500   6500           299.45748      567.8423       22541.679      21501.981      8342.1839      13159.797      3569.9015      5031.4958      3731.6697      372.89643     -493.33513      8141.8581     -7194.689      -871.02714      125546.19      50.07272       50.07272       50.07272       1.1709139      649.53706      484.10248      569.88735    
      6600   6600           298.04195     -538.93983      20549.143      21535.906      8302.7504      13233.155      3545.6327      5039.2392      3817.5421      377.33572     -497.54875      8142.8721     -7191.9178     -871.04143      125544.13      50.072446      50.072446      50.072446      1.1709332     -140.0889      -965.68862     -511.04196    
      6700   6700           299.90835     -595.28463      20590.409      21681.436      8354.7441      13326.692      3525.2567      5173.866       3824.6749      383.22379     -531.59122      8141.5109     -7190.2492     -870.16222      125670.98      50.089305      50.089305      50.089305      1.1697512     -776.42744     -562.05247     -447.37399    
      6800   6800           302.97912     -1381.769       19246.974      21779.834      8440.2884      13339.546      3468.7497      5095.3846      3938.6923      379.00028     -487.98706      8139.7932     -7194.0871     -870.03222      125689.76      50.091799      50.091799      50.091799      1.1695765     -1338.1072     -1652.9895     -1154.2104    
      6900   6900           302.92133     -548.95219      20630.749      21636.255      8438.6784      13197.576      3494.9858      5110.3104      3772.2617      379.3084      -522.67506      8154.245      -7190.8601     -870.68514      125595.51      50.079275      50.079275      50.079275      1.1704542     -509.74098     -696.03698     -441.07863    
      7000   7000           301.80954     -311.2005       20975.78       21544.744      8407.7066      13137.037      3443.2465      5071.4811      3783.0497      382.13389     -496.53193      8143.7766     -7190.1186     -872.30171      125362.75      50.04832       50.04832       50.04832       1.1726273     -106.51308      7.8399575     -834.92839    
      7100   7100           300.5162       5.632592       21463.664      21453.376      8371.6771      13081.698      3521.8352      4997.1229      3777.5659      369.2011      -527.23857      8135.8432     -7192.6313     -873.08261      125250.62      50.033394      50.033394      50.033394      1.1736771     -626.332       -226.5194       869.74917    
      7200   7200           297.76353     -287.96605      20847.7        21373.356      8294.9944      13078.362      3501.0942      4952.4035      3820.0976      372.32444     -521.18278      8145.3282     -7191.7036     -873.67616      125165.53      50.022061      50.022061      50.022061      1.174475      -888.28619     -789.27202      813.66005    
      7300   7300           299.19878      200.50049      21771.3        21405.001      8334.977       13070.024      3522.0021      5012.927       3732.3295      374.61335     -522.04952      8144.0803     -7193.879      -872.95245      125269.3       50.035881      50.035881      50.035881      1.1735021     -710.67591      1286.5901      25.587287    
      7400   7400           303.75275      34.1161        21632.764      21570.482      8461.8399      13108.642      3527.6231      5037.9282      3743.5818      386.67566     -541.42816      8145.9861     -7191.7246     -873.5889       125178.03      50.023727      50.023727      50.023727      1.1743577      700.30365     -260.37531     -337.58004    
      7500   7500           298.46045     -510.92694      20692.688      21625.828      8314.4088      13311.419      3574.9241      5095.3639      3868.6614      390.99373     -566.35408      8140.1496     -7192.3198     -873.21899      125231.06      50.030789      50.030789      50.030789      1.1738604     -237.51336     -266.05282     -1029.2146    
      7600   7600           299.26662     -118.04419      21348.413      21564.156      8336.8668      13227.289      3504.3381      5169.0624      3773.4357      381.26019     -562.13257      8152.7231     -7191.3976     -872.60886      125318.62      50.042447      50.042447      50.042447      1.1730402      182.039       -725.66291      189.49133    
      7700   7700           297.8892      -710.22077      20206.847      21505.725      8298.4953      13207.229      3522.7235      5048.8562      3815.0929      381.32871     -513.4663       8142.0943     -7189.4        -872.03997      125400.38      50.053327      50.053327      50.053327      1.1722755     -1153.6407     -857.80682     -119.2148     
      7800   7800           299.78587     -1364.4686      18999.105      21494.642      8351.3321      13143.31       3497.4244      4986.0693      3871.4836      384.63626     -557.51313      8150.1383     -7188.9288     -871.98834      125407.8       50.054314      50.054314      50.054314      1.1722061     -1846.3937     -1099.4319     -1147.5802    
      7900   7900           302.4405      -279.95167      20973.75       21484.899      8425.2839      13059.616      3443.0568      5007.6537      3774.4087      376.34456     -490.21389      8139.1045     -7190.7387     -873.46636      125195.59      50.026066      50.026066      50.026066      1.174193      -1689.6224      461.3749       388.39254    
      8000   8000           301.95571     -1115.2803      19444.538      21478.391      8411.7787      13066.613      3425.4746      4950.6554      3893.8535      374.47365     -534.81372      8148.8893     -7191.9201     -874.53181      125043.07      50.005742      50.005742      50.005742      1.1756252     -1911.1146     -865.90715     -568.81903    
      8100   8100           298.37277      20.253278      21432.962      21396.074      8311.9664      13084.108      3466.9282      4963.2384      3825.9722      381.01549     -508.83591      8147.2839     -7191.4947     -875.64026      124884.78      49.984632      49.984632      49.984632      1.1771153     -603.2373       566.85563      97.141509    
      8200   8200           297.28407     -1220.8677      19119.227      21343.131      8281.6376      13061.493      3470.0944      5058.2068      3758.2754      359.30061     -552.1126       8155.5122     -7187.7833     -875.51522      124902.61      49.987012      49.987012      49.987012      1.1769472     -1215.9688     -1650.4604     -796.17381    
      8300   8300           300.31899     -774.92525      20020.587      21432.45       8366.1834      13066.266      3479.2285      4976.0396      3837.3897      373.27105     -572.7974       8160.3207     -7187.1857     -875.34322      124927.16      49.990286      49.990286      49.990286      1.176716       333.45347     -1725.1306     -933.09864    
      8400   8400           301.99635      583.37915      22638.962      21574.996      8412.9107      13162.085      3495.9608      5044.2201      3789.7645      378.73694     -516.32867      8160.165      -7190.4335     -874.4486       125054.97      50.007328      50.007328      50.007328      1.1755134     -611.87417      13.452897      2348.5587    
      8500   8500           304.67487     -255.96628      21109.236      21577.108      8487.528       13089.58       3554.8225      4949.8302      3803.6344      387.8305      -572.86357      8155.4792     -7189.1533     -872.50282      125333.85      50.044474      50.044474      50.044474      1.1728977     -366.33659     -843.73794      442.1757     
      8600   8600           301.18497     -189.43346      21180.203      21527.008      8390.3077      13136.7        3564.0013      4972.949       3760.471       383.85548     -503.6381       8150.2225     -7191.1608     -871.1284       125531.6       50.070779      50.070779      50.070779      1.1710501     -312.91773      547.95814     -803.3408     
      8700   8700           300.68537      9.3154224      21400.577      21383.504      8376.3901      13007.114      3474.1864      5018.1959      3697.2777      385.14407     -519.10069      8144.1345     -7192.7237     -870.18954      125667.04      50.08878       50.08878       50.08878       1.169788      -151.73211      445.9176      -266.23922    
      8800   8800           295.23184     -570.91172      20209.863      21257.517      8224.4673      13033.05       3442.9008      5008.1782      3755.5174      367.51675     -490.40605      8145.1484     -7195.8057     -869.08475      125826.79      50.109996      50.109996      50.109996      1.1683028     -413.74405     -774.54564     -524.44545    
      8900   8900           296.69273     -729.76832      20014.301      21354.488      8265.1644      13089.323      3501.0087      4976.593       3763.5004      366.92114     -471.21306      8145.7492     -7193.2363     -868.42184      125922.84      50.122743      50.122743      50.122743      1.1674117     -889.84547     -682.86644     -616.59303    
      9000   9000           292.49447     -832.57022      19946.301      21473.608      8148.2107      13325.398      3519.517       5223.5242      3770.6827      375.69749     -525.89402      8154.4481     -7192.5776     -869.37193      125785.22      50.104478      50.104478      50.104478      1.1686889     -825.03164     -1438.3932     -234.28588    
      9100   9100           301.73904     -1063.0988      19614.406      21557.355      8405.7427      13151.613      3448.4567      5001.2939      3848.1424      386.60935     -485.3495       8144.554      -7192.0943     -872.61641      125317.54      50.042303      50.042303      50.042303      1.1730504     -1521.1108     -226.51207     -1441.6736    
      9200   9200           302.83808     -321.12192      21004.473      21589.688      8436.3595      13153.329      3556.2583      4990.7564      3812.7154      375.12638     -535.9331       8145.8629     -7191.4574     -875.11545      124959.67      49.994622      49.994622      49.994622      1.1764098     -1158.0178     -1117.8642      1312.5162    
      9300   9300           300.97434      329.98807      22086.268      21485.586      8384.4399      13101.146      3484.9829      5011.3272      3798.5322      372.38257     -516.26331      8143.6792     -7193.4948     -876.1228       124816         49.975454      49.975454      49.975454      1.177764      -82.829927      76.814532      995.97962    
      9400   9400           295.87472     -1094.0253      19333.851      21329.112      8242.3764      13086.735      3469.6503      4964.3106      3867.7433      375.92658     -536.89587      8139.9556     -7193.9552     -874.45778      125053.65      50.007153      50.007153      50.007153      1.1755257     -1321.3643     -1450.946      -509.76565    
      9500   9500           296.00509      267.22862      21850.08       21361.11       8246.0083      13115.101      3561.9968      4959.2979      3771.7908      382.47481     -514.61168      8148.1731     -7194.0203     -871.58833      125465.36      50.061971      50.061971      50.061971      1.1716683      1287.6553     -1.5966381     -484.3728     
      9600   9600           298.8067      -1501.9222      18679.71       21437.167      8324.0546      13113.113      3425.8677      5041.0007      3866.7559      385.01185     -577.61281      8163.1791     -7191.0898     -868.65976      125888.35      50.118167      50.118167      50.118167      1.1677315     -1363.0828     -1199.7839     -1942.8999    
      9700   9700           300.29422      153.66817      21794.132      21511.798      8365.4935      13146.305      3537.5188      4994.725       3784.1961      375.55949     -501.56442      8145.6619     -7189.7919     -868.02604      125980.25      50.13036       50.13036       50.13036       1.1668796     -101.69312      8.40494        554.29268    
      9800   9800           303.18139     -972.79176      19797.402      21583.107      8445.9233      13137.184      3463.1905      4989.2534      3848.1829      386.38526     -498.64754      8141.4097     -7192.59       -868.80279      125867.62      50.115416      50.115416      50.115416      1.1679238     -1267.9945     -464.21221     -1186.1685    
      9900   9900           302.74795     -1348.249       19079.673      21550.093      8433.8485      13116.244      3369.8033      5068.2819      3843.698       379.27867     -498.31653      8147.1198     -7193.6209     -870.38304      125639.1       50.085068      50.085068      50.085068      1.1700481     -628.19954     -816.84334     -2599.704     
     10000   10000          295.84153     -302.57511      20817.894      21371.578      8241.4518      13130.126      3529.8197      5008.881       3755.889       389.1748      -493.47349      8135.9726     -7196.1373     -871.52946      125473.83      50.063098      50.063098      50.063098      1.1715892      688.54228     -941.99693     -654.27067    
     10100   10100          297.83028     -560.44265      20313.297      21338.568      8296.8538      13041.714      3384.8121      4997.6643      3798.2165      377.54936     -482.23847      8156.4337     -7190.7232     -871.77299      125438.78      50.058436      50.058436      50.058436      1.1719166      162.55173     -610.20565     -1233.674     
     10200   10200          297.87325     -451.07365      20604.724      21432.049      8298.0509      13133.998      3417.4461      5035.1167      3866.4704      374.209       -510.16965      8143.978      -7193.052      -869.52532      125763.03      50.101531      50.101531      50.101531      1.1688951      180.94667     -510.16004     -1024.0076    
     10300   10300          299.42833     -706.78284      20204.557      21503.263      8341.3718      13161.891      3507.8644      5005.5355      3837.2389      383.37193     -527.52207      8148.0141     -7192.6117     -867.93346      125993.69      50.132143      50.132143      50.132143      1.1667551     -328.71655     -117.99024     -1673.6417    
     10400   10400          299.2597      -923.98561      19827.654      21525.08       8336.6742      13188.406      3439.9679      5071.1574      3851.2197      373.0562      -514.16165      8159.5581     -7192.392      -868.13148      125964.95      50.128331      50.128331      50.128331      1.1670213     -2259.9413      631.24885     -1143.2644    
     10500   10500          301.10408     -441.7587       20709.6        21519.811      8388.0542      13131.757      3497.5949      5071.9024      3715.9111      366.16468     -467.96314      8139.429      -7191.2824     -869.55676      125758.48      50.100927      50.100927      50.100927      1.1689373     -1362.4171      766.21053     -729.06949    
     10600   10600          300.50401     -817.13266      20001.911      21497.079      8371.3377      13125.741      3397.6177      5066.9906      3864.1655      384.11404     -552.65196      8154.0258     -7188.5209     -871.59302      125464.68      50.061881      50.061881      50.061881      1.1716747     -2558.0026      513.43804     -406.83348    
     10700   10700          298.85596     -37.259264      21349.642      21417.695      8325.4269      13092.269      3494.7077      5062.1646      3756.6533      384.79278     -570.97685      8155.5909     -7190.6639     -873.16942      125238.17      50.031736      50.031736      50.031736      1.1737938     -1538.1965      227.6689       1198.7498    
     10800   10800          293.87562     -428.58697      20575.551      21356.778      8186.6863      13170.092      3458.4916      5034.8959      3867.8051      394.06558     -525.90545      8133.4424     -7192.7033     -874.92869      124986.35      49.998179      49.998179      49.998179      1.1761588      38.505827     -959.93795     -364.32878    
     10900   10900          297.71856     -1004.7431      19599.963      21431.185      8293.7417      13137.443      3426.7183      5077.8634      3869.0335      367.78199     -564.84275      8153.051      -7192.1624     -875.03464      124971.21      49.996161      49.996161      49.996161      1.1763012     -943.82572     -1845.946      -224.45754    
     11000   11000          302.34107     -119.05221      21373.133      21590.203      8422.514       13167.689      3495.201       5112.8382      3771.1504      384.98556     -545.74878      8143.1456     -7193.8834     -874.68077      125021.77      50.002903      50.002903      50.002903      1.1758255      376.65003     -478.77182     -255.03484    
     11100   11100          300.45227     -602.59561      20517.51       21616.438      8369.8964      13246.542      3484.6433      5135.5633      3841.9373      380.97528     -544.51131      8141.6611     -7193.7271     -874.51616      125045.31      50.00604       50.00604       50.00604       1.1756042     -218.64639     -1599.257       10.116515    
     11200   11200          299.47729     -785.96548      20112.065      21545.995      8342.7358      13203.259      3472.8591      5022.1697      3874.37        388.29949     -500.26612      8141.056      -7195.2295     -874.15175      125097.43      50.012988      50.012988      50.012988      1.1751143      27.688936     -1650.9156     -734.66981    
     11300   11300          298.09434      43.66778       21514.586      21434.87       8304.2099      13130.66       3427.4709      5061.876       3838.207       392.37073     -548.64788      8151.0078     -7191.6243     -873.63361      125171.63      50.022873      50.022873      50.022873      1.1744178      1055.1453     -1287.0558      362.9138     
     11400   11400          297.14784     -1096.5506      19409.718      21413.031      8277.8427      13135.188      3513.6807      5039.5162      3811.7327      379.12162     -573.25401      8155.2987     -7190.908      -872.95343      125269.16      50.035862      50.035862      50.035862      1.1735034     -358.13337     -2312.8476     -618.67085    
     11500   11500          300.00888     -500.75236      20507.571      21421.638      8357.5444      13064.094      3518.8603      4963.3982      3838.6967      380.8474      -593.72867      8144.1853     -7188.1653     -873.68696      125163.98      50.021855      50.021855      50.021855      1.1744895     -924.4383      -308.56027     -269.25851    
     11600   11600          298.89661      80.153364      21598.536      21452.312      8326.5594      13125.753      3587.6324      4953.1902      3763.0104      377.76019     -516.17215      8150.845      -7190.513      -874.21112      125088.94      50.011855      50.011855      50.011855      1.1751941     -242.32442      681.05068     -198.26617    
     11700   11700          300.2787      -388.37796      20847.161      21555.802      8365.0612      13190.74       3534.5734      4949.658       3856.6339      399.97648     -509.7759       8151.1659     -7191.4914     -874.05634      125111.09      50.014807      50.014807      50.014807      1.1749861     -864.90516      170.17779     -470.40651    
     11800   11800          302.48968     -166.32094      21360.828      21665.039      8426.6537      13238.385      3612.4689      5012.3297      3802.9102      384.17559     -538.90798      8155.6304     -7190.2217     -871.93308      125415.75      50.055372      50.055372      50.055372      1.1721318     -887.98782      258.07001      130.95499    
     11900   11900          302.06172     -232.56815      21188.928      21614.967      8414.7319      13200.235      3515.1389      5030.4937      3794.7543      378.54283     -482.74369      8152.3706     -7188.322      -870.58738      125609.61      50.081149      50.081149      50.081149      1.1703228     -1296.5268      283.13963      315.68273    
     12000   12000          296.44704     -948.59655      19666.106      21406.541      8258.32        13148.221      3510.343       5037.3394      3804.0991      371.66067     -535.12826      8147.1089     -7187.2016     -869.23004      125805.75      50.107204      50.107204      50.107204      1.1684981     -2472.4151      112.95097     -486.32548    
     12100   12100          295.72284      878.17337      23010.235      21399.458      8238.1456      13161.312      3513.8034      5063.5804      3685.884       375.06263     -445.66853      8158.4434     -7189.7932     -869.47237      125770.69      50.102548      50.102548      50.102548      1.1688239     -38.644929      400.54437      2272.6207    
     12200   12200          299.81779     -1430.5806      18885.546      21511.045      8352.2213      13158.824      3445.4152      5028.3201      3897.8066      383.62862     -552.25516      8144.6848     -7188.7762     -868.98353      125841.44      50.111941      50.111941      50.111941      1.1681667     -812.53752     -2312.8307     -1166.3735    
     12300   12300          301.86204      102.36638      21783.825      21595.988      8409.1691      13186.819      3549.914       5017.795       3724.755       390.78954     -446.52547      8140.6753     -7190.5848     -869.13219      125819.92      50.109084      50.109084      50.109084      1.1683666     -409.59864      93.981356      622.71641    
     12400   12400          298.30394     -1104.9723      19546.743      21575.041      8310.049       13264.992      3500.1678      5017.2735      3896.522       389.93995     -499.09808      8152.0774     -7191.8902     -868.82191      125864.85      50.115049      50.115049      50.115049      1.1679495     -1241.237      -1194.5652     -879.11471    
     12500   12500          299.11815     -739.4858       20047.453      21404.181      8332.7309      13071.45       3517.5484      4870.6033      3823.9373      395.07661     -505.88889      8159.4862     -7189.313      -869.25739      125801.8       50.106678      50.106678      50.106678      1.1685349     -916.24031     -1282.4923     -19.72478     
     12600   12600          292.8544       426.54351      22100.955      21319.434      8158.2374      13161.196      3530.4133      5023.2989      3771.5513      387.05856     -503.53739      8143.3128     -7190.9012     -870.42949      125632.39      50.084177      50.084177      50.084177      1.1701105      511.61508     -574.21587      1342.2313    
     12700   12700          301.38997     -329.88878      20832.35       21435.478      8396.0184      13039.46       3388.6797      5034.2726      3805.1859      384.14243     -529.62075      8149.8582     -7193.0582     -872.30631      125362.09      50.048232      50.048232      50.048232      1.1726335     -1877.3155      16.688742      870.96041    
     12800   12800          297.80375     -133.96704      21266.505      21511.337      8296.1148      13215.222      3577.7639      5029.6939      3738.0054      384.17014     -471.65704      8151.496      -7194.2501     -872.6521       125312.41      50.04162       50.04162       50.04162       1.1730984     -521.94254     -769.85548      889.89689    
     12900   12900          301.51357     -1078.9776      19535.499      21508.588      8399.4616      13109.126      3447.0826      5040.1534      3823.7804      379.28486     -531.33156      8142.803      -7192.6462     -872.12144      125388.66      50.051768      50.051768      50.051768      1.172385      -1525.019      -994.37165     -717.54216    
     13000   13000          298.98889     -905.92631      19821.274      21477.44       8329.1301      13148.31       3424.083       5012.9835      3939.3089      387.62838     -579.24148      8154.4848     -7190.9376     -872.36891      125353.09      50.047035      50.047035      50.047035      1.1727177     -783.58583     -1187.8384     -746.35465    
     13100   13100          299.99412      734.62683      22741.788      21399.825      8357.1333      13042.691      3446.5273      4954.1272      3781.9233      373.85182     -463.27533      8140.4378     -7190.9008     -873.046        125255.87      50.034093      50.034093      50.034093      1.1736279      423.65631      1643.2176      137.00659    
     13200   13200          295.43622     -1048.5999      19436.033      21354.89       8230.1608      13124.729      3533.0459      4941.3263      3856.6176      380.96454     -542.52014      8146.0259     -7190.7311     -871.52206      125474.9       50.063239      50.063239      50.063239      1.1715793     -501.26228     -737.2794      -1907.2579    
     13300   13300          300.14032     -88.969226      21335.803      21498.942      8361.2062      13137.735      3512.6406      4967.4842      3794.458       378.62891     -481.66918      8154.4874     -7188.2945     -869.75238      125730.2       50.097171      50.097171      50.097171      1.1692003     -170.62551      21.103408     -117.38558    
     13400   13400          301.08946     -57.564194      21498.798      21604.674      8387.647       13217.027      3554.8974      5034.1049      3765.343       385.93964     -483.80649      8150.4207     -7189.8725     -867.09511      126115.51      50.148294      50.148294      50.148294      1.1656282      645.39013     -166.42873     -651.65398    
     13500   13500          302.21766     -705.849        20291.407      21589.173      8419.0758      13170.098      3458.9883      5034.8807      3843.6122      387.28153     -514.30756      8149.1196     -7189.4772     -867.41373      126069.18      50.142153      50.142153      50.142153      1.1660565     -1525.7657     -29.198988     -562.58229    
     13600   13600          298.0964       85.873131      21636.64       21479.106      8304.2672      13174.839      3566.9174      5058.2028      3728.1025      387.83624     -534.08474      8156.875      -7189.0101     -869.34819      125788.66      50.104934      50.104934      50.104934      1.168657       189.8927      -231.57365      299.30035    
     13700   13700          300.41434     -397.81433      20625.344      21352.386      8368.8396      12983.547      3439.026       4939.962       3812.9213      369.30722     -548.73732      8157.9473     -7186.8797     -872.63315      125315.13      50.041983      50.041983      50.041983      1.1730729     -512.0945      -196.21953     -485.12896    
     13800   13800          300.39305     -457.89327      20506.057      21341.56       8368.2466      12973.313      3422.4337      4922.1999      3869.3976      387.44041     -599.40717      8160.3027     -7189.054      -874.03278      125114.46      50.015257      50.015257      50.015257      1.1749544     -1549.4083      823.21166     -647.48318    
     13900   13900          300.41408     -537.39717      20549.436      21528.81       8368.8323      13159.978      3517.8282      5005.8809      3800.6512      378.11159     -507.54614      8156.4952     -7191.4433     -875.1002       124961.85      49.994913      49.994913      49.994913      1.1763893     -223.43217     -354.10134     -1034.658     
     14000   14000          301.31934     -1142.7454      19527.06       21611.65       8394.0509      13217.599      3473.5012      5068.3306      3895.8461      384.68458     -558.86744      8147.3213     -7193.217      -874.25845      125082.17      50.010953      50.010953      50.010953      1.1752578     -1294.8224     -656.26346     -1477.1504    
     14100   14100          302.52931     -490.6613       20622.28       21517.677      8427.7578      13089.919      3480.2975      5003.6102      3786.3857      371.50238     -518.36306      8157.6746     -7191.1882     -873.93187      125128.91      50.017182      50.017182      50.017182      1.1748188     -1136.9333     -387.03865      51.988013    
     14200   14200          297.23617      31.609032      21460.55       21402.75       8280.3034      13122.447      3493.4028      5014.7627      3812.695       376.24303     -530.19852      8148.7012     -7193.1594     -872.16294      125382.7       50.050974      50.050974      50.050974      1.1724408      798.19032     -1815.5212      1112.1579    
     14300   14300          298.12799     -1226.9721      19172.46       21421.243      8305.1473      13116.095      3526.3204      5029.6083      3814.4939      375.84112     -597.13458      8157.8052     -7190.8392     -870.15844      125671.53      50.089377      50.089377      50.089377      1.1697462     -1432.0014     -1257.6497     -991.26504    
     14400   14400          301.4994      -20.162901      21495.457      21532.438      8399.0668      13133.371      3543.2384      5011.4487      3749.8844      404.99872     -525.17092      8141.6422     -7192.67       -869.52175      125763.55      50.1016        50.1016        50.1016        1.1688903      631.42817     -388.15826     -303.75861    
     14500   14500          300.89933     -547.70801      20635.267      21639.101      8382.3502      13256.751      3441.2746      5019.9428      3905.4524      387.43077     -452.7669       8146.2155     -7190.7986     -870.15841      125671.53      50.089378      50.089378      50.089378      1.1697461     -1123.8532     -503.0469      -16.223927    
     14600   14600          308.41747     -206.59234      21443.115      21821.224      8591.7882      13229.435      3533.9454      5000.4679      3860.2383      375.07014     -492.26534      8142.0118     -7190.0328     -871.3817       125495.11      50.065927      50.065927      50.065927      1.1713906     -406.84057     -309.13488      96.198426    
     14700   14700          302.01014     -294.38132      21190.674      21728.226      8413.2948      13314.931      3566.2187      5083.6785      3846.1057      379.41369     -525.71425      8156.9604     -7191.7315     -873.37468      125208.74      50.027816      50.027816      50.027816      1.1740697     -1207.5626      13.831282      310.58733    
     14800   14800          298.45017     -37.665032      21513.317      21582.054      8314.1226      13267.932      3569.2551      5075.7456      3815.074       383.00365     -536.32975      8151.15       -7189.9667     -873.88621      125135.45      50.018053      50.018053      50.018053      1.1747574     -195.64819      1013.9221     -931.26904    
     14900   14900          298.07638      127.26685      21705.769      21473.655      8303.7096      13169.946      3453.7854      5022.4374      3859.5212      381.99045     -495.54715      8141.045      -7193.2866     -874.4303       125057.58      50.007677      50.007677      50.007677      1.1754888     -217.7118       761.10652     -161.59417    
     15000   15000          300.48347     -1788.9321      18144.191      21410.29       8370.7653      13039.524      3386.0833      4955.4388      3947.4627      371.79969     -566.96907      8138.7483     -7193.0392     -873.52554      125187.11      50.024936      50.024936      50.024936      1.1742725     -2066.2724     -1953.4658     -1347.0581    
     15100   15100          299.19119      373.55443      22097.703      21415.57       8334.7656      13080.804      3471.964       4965.7111      3752.8679      380.95042     -445.267        8146.4595     -7191.8821     -873.36513      125210.11      50.027998      50.027998      50.027998      1.1740569      365.85352      767.84052     -13.030761    
     15200   15200          303.11832     -1546.5526      18743.048      21573.456      8444.1662      13129.29       3463.8024      5012.0752      3886.5056      366.50465     -552.51297      8141.8563     -7188.9412     -871.41845      125489.81      50.065224      50.065224      50.065224      1.17144       -1698.5107     -1343.0693     -1598.0776    
     15300   15300          300.47008     -35.218364      21580.371      21644.869      8370.3926      13274.476      3540.8264      5109.5929      3791.7033      395.89371     -524.51985      8153.0654     -7192.0856     -870.8283       125574.86      50.07653       50.07653       50.07653       1.1706467      323.90246     -281.0859      -148.47165    
     15400   15400          301.00036     -318.70705      20988.639      21572.832      8385.1649      13187.667      3462.5132      5036.1254      3847.5614      386.81672     -507.36546      8151.2968     -7189.2807     -870.05359      125686.67      50.091389      50.091389      50.091389      1.1696052      550.47543     -1023.7046     -482.89196    
     15500   15500          299.28533     -1351.775       19002.941      21482.813      8337.3881      13145.425      3428.022       4958.041       3910.3093      388.80932     -498.9909       8148.9233     -7189.6887     -869.33292      125790.87      50.105227      50.105227      50.105227      1.1686364     -463.46034     -2321.338      -1270.5265    
     15600   15600          299.46163     -150.2945       21198.289      21474.214      8342.2994      13131.914      3484.6072      5004.0105      3777.6269      380.96856     -479.32398      8152.4171     -7188.3921     -868.68718      125884.37      50.117639      50.117639      50.117639      1.1677684      1464.6826     -1757.451      -158.11508    
     15700   15700          302.10358     -1275.4179      19142.475      21483.276      8415.8979      13067.378      3411.6752      4989.1174      3889.6206      378.89623     -556.27649      8146.032      -7191.6868     -868.95853      125845.06      50.112422      50.112422      50.112422      1.1681331     -1573.7677     -1010.5944     -1241.8917    
     15800   15800          302.0619       992.94851      23315.254      21497.572      8414.7368      13082.835      3495.7601      4982.9059      3721.0459      398.15922     -483.3389       8159.5836     -7191.281      -871.20424      125520.67      50.069327      50.069327      50.069327      1.171152       2043.3138      213.53695      721.99476    
     15900   15900          302.28492     -1058.669       19606.941      21540.113      8420.9498      13119.163      3474.1458      5014.2886      3834.4749      379.59954     -541.97314      8150.6291     -7192.0019     -873.37512      125208.67      50.027808      50.027808      50.027808      1.1740703     -337.00476     -1288.1537     -1550.8486    
     16000   16000          299.19172      821.22328      23032.059      21537.147      8334.7803      13202.367      3487.0587      5096.543       3752.8144      386.67998     -485.00619      8155.8521     -7191.5749     -876.10663      124818.3       49.975762      49.975762      49.975762      1.1777423      409.29375      1860.4855      193.89063    
     16100   16100          298.52628     -1228.1074      19212.768      21448.066      8316.2427      13131.824      3409.2652      5116.7124      3861.8269      359.60545     -555.41944      8136.3052     -7196.4722     -876.21759      124802.49      49.973652      49.973652      49.973652      1.1778914     -959.34703     -1719.2766     -1005.6986    
     16200   16200          296.44297     -400.30784      20632.344      21362.067      8258.2067      13103.86       3485.7542      5048.4936      3786.5326      379.65706     -544.33679      8143.0221     -7195.263      -874.87763      124993.64      49.999152      49.999152      49.999152      1.1760901     -637.06457      242.79597     -806.65492    
     16300   16300          298.45118     -1630.1194      18359.427      21342.638      8314.1507      13028.487      3487.5959      5054.0659      3791.2561      366.00993     -621.33995      8146.0577     -7195.1584     -871.45813      125484.1       50.064464      50.064464      50.064464      1.1714933     -1817.4198     -1847.6642     -1225.2743    
     16400   16400          299.52813     -383.9369       20759.228      21463.535      8344.1519      13119.383      3443.1281      5073.5106      3789.2231      374.89648     -506.21183      8138.5809     -7193.7444     -869.37834      125784.29      50.104355      50.104355      50.104355      1.1686975     -325.97337     -326.89433     -498.943      
     16500   16500          300.92795     -1220.0058      19359.324      21601.516      8383.1477      13218.368      3500.0537      4992.2501      3862.2482      389.09206     -471.72099      8140.6566     -7194.2113     -867.76125      126018.69      50.135459      50.135459      50.135459      1.1665236     -2060.9193     -295.68231     -1303.4157    
     16600   16600          303.18335     -244.96942      21152.856      21602.937      8445.9778      13156.959      3451.5782      5030.0252      3798.6381      387.9318      -457.92862      8138.2042     -7191.4896     -868.02443      125980.49      50.130391      50.130391      50.130391      1.1668774     -521.13216     -1129.605       915.82892    
     16700   16700          300.4958      -211.59731      21134.662      21523.303      8371.1091      13152.194      3478.1169      5076.4492      3768.191       381.16278     -502.14852      8143.2678     -7192.8454     -868.3061       125939.62      50.12497       50.12497       50.12497       1.1672561     -812.19559      347.63228     -170.22863    
     16800   16800          296.34839     -1361.5623      18860.428      21357.563      8255.5717      13101.992      3509.8278      4994.0211      3803.3444      376.88269     -527.06635      8138.2358     -7193.2537     -869.57387      125756.01      50.100599      50.100599      50.100599      1.1689603     -1846.4729     -243.80272     -1994.4111    
     16900   16900          296.79659      950.26152      23024.211      21284.617      8268.0576      13016.559      3534.8861      5008.1998      3648.3567      380.63609     -512.50298      8147.9512     -7190.9675     -871.17714      125524.58      50.069846      50.069846      50.069846      1.1711156      306.15023      1017.1199      1527.5144    
     17000   17000          299.06048     -288.18946      20829.76       21356.788      8331.1244      13025.664      3510.7487      4927.2848      3784.7557      380.07654     -532.06379      8145.419      -7190.5574     -872.07768      125394.95      50.052605      50.052605      50.052605      1.1723262     -85.093198     -581.13332     -198.34185    
     17100   17100          296.64514      426.20683      22232.265      21453.166      8263.8386      13189.327      3513.4972      5006.716       3781.209       386.17432     -444.09324      8136.9381     -7191.1143     -872.44572      125342.06      50.045566      50.045566      50.045566      1.1728209      709.04828      645.03354     -75.461349    
     17200   17200          298.91194     -1007.915       19689.5        21535.718      8326.9864      13208.732      3520.6623      5025.6248      3829.2997      388.00244     -500.86494      8137.5619     -7191.5546     -870.667        125598.12      50.079623      50.079623      50.079623      1.1704298     -515.07454     -1200.1564     -1308.5141    
     17300   17300          302.80754     -1217.5589      19324.973      21556.74       8435.5086      13121.231      3465.3417      5045.5148      3823.6044      372.80328     -546.1278       8150.6745     -7190.5797     -870.06634      125684.83      50.091144      50.091144      50.091144      1.1696224     -657.3717      -1205.4313     -1789.8736    
     17400   17400          300.22325     -1166.0821      19370.038      21507.132      8363.5163      13143.615      3456.9767      5111.5196      3851.794       376.8517      -611.23165      8151.3312     -7193.626      -870.195        125666.25      50.088676      50.088676      50.088676      1.1697953     -456.84997     -1939.0682     -1102.3281    
     17500   17500          297.21649      208.25307      21713.361      21332.06       8279.755       13052.305      3508.7621      5003.7814      3690.8809      373.85822     -472.45461      8139.9012     -7192.4242     -871.03305      125545.34      50.072606      50.072606      50.072606      1.1709219      298.67522     -221.30821      547.39222    
     17600   17600          300.15358      196.36991      21705.882      21346.199      8361.5754      12984.623      3452.5591      4994.1555      3694.3591      366.21225     -469.13677      8138.1349     -7191.6608     -870.69301      125594.37      50.079124      50.079124      50.079124      1.1704648     -459.77326      915.1942       133.68881    
     17700   17700          298.59489     -490.39769      20580.663      21479.229      8318.1542      13161.074      3553.2482      5026.706       3780.5799      375.06191     -534.30982      8150.946      -7191.1579     -870.38214      125639.23      50.085086      50.085086      50.085086      1.1700469      28.392026     -442.43194     -1057.1531    
     17800   17800          301.43085      129.75138      21781.33       21543.477      8397.1573      13146.319      3507.2038      5040.8671      3775.7417      380.44122     -512.09596      8147.6969     -7193.5353     -869.9882       125696.12      50.092644      50.092644      50.092644      1.1695173     -81.021657     -271.84917      742.12498    
     17900   17900          301.47883     -680.12227      20297.618      21545.337      8398.494       13146.843      3554.6392      4980.3239      3802.6454      369.98194     -517.00761      8147.8766     -7191.6167     -869.32369      125792.2       50.105404      50.105404      50.105404      1.168624      -1263.3836     -354.50361     -422.47961    
     18000   18000          299.71284      770.25242      22921.714      21510.473      8349.2976      13161.175      3539.2705      5064.4468      3666.9874      383.55981     -461.27755      8159.5662     -7191.3781     -870.44808      125629.71      50.083821      50.083821      50.083821      1.1701355     -63.697653      1459.5296      914.92534    
     18100   18100          300.01441     -345.41821      20869.877      21501.996      8357.6984      13144.298      3535.9799      5019.2994      3799.9568      376.69285     -553.23215      8158.3197     -7192.7188     -871.47959      125481.01      50.064053      50.064053      50.064053      1.1715222     -438.98831     -60.213811     -537.05251    
     18200   18200          303.16125     -767.86367      20216.432      21619.862      8445.3622      13174.5        3437.2215      5039.3501      3921.1102      380.89488     -561.6512       8149.9513     -7192.3773     -872.57871      125322.95      50.043023      50.043023      50.043023      1.1729997     -1228.1918     -143.16759     -932.23163    
     18300   18300          306.11665     -672.62956      20469.581      21697.407      8527.6925      13169.715      3456.2496      5061.7916      3862.0142      369.81267     -538.46607      8148.5511     -7190.2384     -873.67567      125165.6       50.02207       50.02207       50.02207       1.1744743     -2222.7429      578.24693     -373.39269    
     18400   18400          301.59029     -911.74619      19924.927      21590.094      8401.5988      13188.496      3503.7448      5012.3265      3844.8312      380.79099     -504.17654      8143.8791     -7192.9004     -873.22696      125229.92      50.030637      50.030637      50.030637      1.1738711     -503.08423     -1038.1648     -1193.9896    
     18500   18500          298.00733     -670.21974      20233.489      21460.611      8301.7861      13158.825      3553.9369      4983.6764      3819.0222      384.23212     -537.20338      8148.6968     -7193.5363     -871.04519      125543.59      50.072374      50.072374      50.072374      1.1709382     -957.56595     -379.32459     -673.76868    
     18600   18600          300.47723      462.83043      22295.19       21445.602      8370.5917      13075.01       3525.5054      4969.7409      3714.5091      383.10648     -468.24963      8143.3149     -7192.9169     -868.80985      125866.6       50.11528       50.11528       50.11528       1.1679333      24.054058      310.76964      1053.6676    
     18700   18700          298.84784     -729.56171      20156.015      21498.689      8325.2007      13173.488      3532.6586      5050.9061      3796.3429      377.4606      -531.85107      8140.1061     -7192.135      -866.56769      126192.27      50.158466      50.158466      50.158466      1.1649191     -678.02012     -1033.3285     -477.33651    
     18800   18800          299.32841     -2006.2205      17944.082      21635.228      8338.5881      13296.64       3529.1843      5097.6899      3899.5326      379.32422     -561.33645      8144.233      -7191.9871     -866.81925      126155.64      50.153613      50.153613      50.153613      1.1652573     -2225.5528     -1550.3807     -2242.728     
     18900   18900          303.99362     -393.3443       21031.705      21753.294      8468.5501      13284.744      3490.9928      5085.3656      3818.7356      384.27044     -441.94699      8142.0293     -7194.7027     -869.34927      125788.5       50.104913      50.104913      50.104913      1.1686584      1045.2294     -638.92784     -1586.3344    
     19000   19000          304.09413     -1053.5007      19798.159      21727.778      8471.35        13256.428      3499.9461      5141.856       3834.3803      386.19825     -570.73894      8155.2706     -7190.4837     -870.71146      125591.71      50.07877       50.07877       50.07877       1.1704896     -548.52094     -1730.8517     -881.12954    
     19100   19100          297.25768     -488.12544      20621.078      21514.575      8280.9024      13233.673      3545.5006      4980.2302      3853.1212      381.45543     -470.11012      8137.6531     -7194.1776     -871.2633       125512.16      50.068195      50.068195      50.068195      1.1712314     -586.14869      152.84327     -1031.0709    
     19200   19200          298.61219      105.36212      21645.972      21453.134      8318.636       13134.498      3542.209       5021.1554      3728.9382      370.01816     -474.82644      8142.3016     -7195.2982     -871.36858      125497         50.066179      50.066179      50.066179      1.1713729      139.62197      11.293951      165.17044    
     19300   19300          299.38726     -901.51685      19806.786      21456.118      8340.2277      13115.89       3449.6574      5075.283       3801.4391      384.02957     -541.75091      8141.7346     -7194.5023     -871.71983      125446.43      50.059453      50.059453      50.059453      1.1718451     -1560.2973      26.700868     -1170.9541    
     19400   19400          300.92124     -1188.5377      19333.139      21508.991      8382.9606      13126.03       3539.8189      5002.0577      3776.5717      385.72065     -534.32163      8150.5839     -7194.4008     -871.15343      125527.99      50.0703        50.0703        50.0703        1.1710837     -1300.0782     -1471.5037     -794.03122    
     19500   19500          303.72846      1063.1144      23567.979      21621.123      8461.1634      13159.96       3563.7005      5059.5014      3650.2624      376.00491     -429.68547      8135.3441     -7195.1682     -870.87785      125567.71      50.075581      50.075581      50.075581      1.1707133      1631.4345      248.83042      1309.0782    
     19600   19600          304.29796     -639.84042      20486.475      21661.101      8477.0282      13184.072      3582.0319      5008.6683      3783.4976      387.10701     -519.55331      8136.3879     -7194.0669     -868.72687      125878.62      50.116876      50.116876      50.116876      1.1678217     -15.786398     -796.81462     -1106.9202    
     19700   19700          300.66948      415.95415      22289.013      21524.937      8375.9472      13148.989      3560.4739      5034.9896      3681.1678      374.2249      -458.88611      8149.6168     -7192.5975     -868.20014      125954.99      50.127009      50.127009      50.127009      1.1671136      509.77414      193.13681      544.9515     
     19800   19800          297.96927     -1614.6966      18440.29       21407.593      8300.7257      13106.867      3398.8995      5045.7827      3867.1208      374.08579     -521.32442      8134.8883     -7192.5858     -867.84119      126007.09      50.133919      50.133919      50.133919      1.1666311     -1772.0773     -1456.2881     -1615.7244    
     19900   19900          297.46665     -1275.583       19123.981      21464.284      8286.7238      13177.56       3470.0396      5063.5396      3852.7168      364.01451     -531.78532      8152.36       -7193.3248     -869.25582      125802.02      50.106708      50.106708      50.106708      1.1685328     -1977.4148     -692.91603     -1156.418     
     20000   20000          296.786       -643.65514      20378.898      21557.198      8267.7627      13289.435      3547.5924      5105.1135      3828.536       371.97696     -496.05299      8128.121      -7195.8518     -871.18144      125523.96      50.069763      50.069763      50.069763      1.1711214      6.3359457     -505.25574     -1432.0456    
     20100   20100          302.14949     -745.30778      20254.032      21615.715      8417.177       13198.538      3502.4943      5063.3576      3832.9115      364.28041     -504.63155      8132.8977     -7192.7717     -872.91255      125275.02      50.036643      50.036643      50.036643      1.1734485     -1652.7081     -786.74652      203.53125    
     20200   20200          300.63545     -104.19917      21389.721      21580.061      8374.9992      13205.062      3539.4965      5147.9864      3753.2473      374.9909      -564.73101      8147.032      -7192.9601     -873.06084      125253.75      50.03381       50.03381       50.03381       1.1736478      137.44607     -138.86318     -311.18039    
     20300   20300          298.13069     -717.87623      20096.906      21409.63       8305.2226      13104.407      3457.6515      5119.3402      3750.7707      360.76046     -533.24075      8141.9208     -7192.7956     -872.14205      125385.7       50.051374      50.051374      50.051374      1.1724127     -767.29325     -362.54586     -1023.7896    
     20400   20400          296.84835     -865.21391      19785.3        21371.051      8269.4997      13101.551      3450.8937      5109.4139      3790.8251      377.88292     -584.84117      8149.7941     -7192.417      -870.16073      125671.2       50.089333      50.089333      50.089333      1.1697492      339.93642     -1649.6598     -1285.9183    
     20500   20500          299.96416     -862.59471      19889.84       21469.689      8356.2988      13113.39       3465.1632      5039.5986      3804.996       371.29787     -532.28611      8157.9392     -7193.3185     -870.76785      125583.58      50.077689      50.077689      50.077689      1.1705654     -1752.889      -283.91378     -550.9813     
     20600   20600          301.82708     -215.99512      21206.651      21601.445      8408.1954      13193.25       3539.4194      5046.1785      3772.9372      377.2423      -505.26073      8156.0575     -7193.3241     -872.53675      125328.98      50.043825      50.043825      50.043825      1.1729433     -1931.4774      638.75753      644.73452    
     20700   20700          301.89508      589.14019      22676.268      21601.442      8410.0895      13191.352      3558.6853      5123.2451      3711.6531      375.01225     -531.16714      8148.1442     -7194.2205     -874.16134      125096.06      50.012805      50.012805      50.012805      1.1751272      685.30771      735.43041      346.68244    
     20800   20800          302.87603     -862.54328      19941.525      21513.707      8437.4165      13076.291      3527.2602      5009.869       3759.688       365.11556     -543.42209      8151.5668     -7193.7867     -874.96204      124981.58      49.997544      49.997544      49.997544      1.1762036     -1878.999      -12.344401     -696.28647    
     20900   20900          304.23401      218.37879      21836.361      21438.381      8475.2468      12963.134      3430.8367      5024.8298      3729.7681      360.58043     -527.66683      8138.9075     -7194.1213     -875.10616      124961         49.994799      49.994799      49.994799      1.1763973      429.56683     -371.75565      597.32519    
     21000   21000          297.87042      52.325363      21528.678      21433.314      8297.9721      13135.342      3498.8666      4984.1532      3797.6961      380.27243     -485.40665      8147.0303     -7187.2705     -875.0561       124968.15      49.995753      49.995753      49.995753      1.17633        550.57069      109.22497     -502.81957    
     21100   21100          299.22066     -664.62326      20241.539      21454.239      8335.5865      13118.653      3539.7681      5017.2781      3787.9092      369.33096     -548.80225      8146.1216     -7192.9529     -874.04339      125112.94      50.015054      50.015054      50.015054      1.1749687     -995.28977     -1536.5976      538.01754    
     21200   21200          297.18768     -71.158849      21441.764      21571.793      8278.9525      13292.841      3657.7284      5067.0102      3743.075       378.13041     -499.94239      8139.7971     -7192.9578     -872.76676      125295.95      50.039429      50.039429      50.039429      1.1732525      647.26502     -35.315463     -825.4261     
[...]
    495200   495200         294.66343     -638.05359      20021.339      21185.83       8208.6328      12977.197      3529.9122      4965.3925      3717.4989      374.9477      -553.72988      8137.4509     -7194.2754     -873.84045      125142         50.018926      50.018926      50.018926      1.1746959     -431.80074     -476.67238     -1005.6877    
    495300   495300         298.59614     -480.04619      20552.415      21428.879      8318.1888      13110.69       3441.0659      5065.6389      3785.2883      379.52822     -503.58799      8137.7681     -7195.0112     -873.49427      125191.59      50.025533      50.025533      50.025533      1.1742305     -1273.7423      380.74795     -547.14424    
    495400   495400         304.1247      -931.704        19844.592      21549.02       8472.2016      13076.818      3523.7782      4978.8948      3809.2547      370.70907     -551.51662      8139.5587     -7193.8605     -871.7872       125436.74      50.058164      50.058164      50.058164      1.1719357     -1360.6741     -701.64583     -732.79208    
    495500   495500         299.78692     -515.07183      20626.955      21570.136      8351.3612      13218.775      3479.9645      5145.2096      3760.0901      391.64133     -499.90767      8136.1726     -7194.3959     -870.93115      125560.03      50.074559      50.074559      50.074559      1.1707849     -957.24459     -713.68076      125.70987    
    495600   495600         299.31847     -1573.7011      18695.062      21580.294      8338.3113      13241.983      3454.0266      5111.411       3866.4787      381.43083     -516.2478       8139.7912     -7194.9075     -869.86639      125713.72      50.094982      50.094982      50.094982      1.1693536     -1735.5317     -1342.299      -1643.2727    
    495700   495700         299.43631     -1046.663       19626.997      21545.963      8341.5942      13204.369      3483.0408      5025.0082      3875.8175      385.52863     -512.70301      8142.7247     -7195.0475     -869.8627       125714.25      50.095053      50.095053      50.095053      1.1693486     -717.03516     -194.39058     -2228.5634    
    495800   495800         300.14586     -117.49738      21241.338      21456.701      8361.3605      13095.341      3425.8948      5061.9805      3741.4336      375.11516     -455.22007      8138.3176     -7192.181      -870.09832      125680.21      50.090531      50.090531      50.090531      1.1696653      49.183255     -93.727938     -307.94746    
    495900   495900         298.02136     -323.92798      20800.465      21393.742      8302.1769      13091.565      3511.8448      5066.9404      3711.0658      371.97708     -525.83681      8148.8416     -7193.2681     -870.76776      125583.59      50.077691      50.077691      50.077691      1.1705653     -175.62851      350.10503     -1146.2605    
    496000   496000         300.64784     -7.6803003      21478.33       21492.392      8375.3443      13117.048      3440.5902      5010.1858      3776.4681      375.21446     -421.07351      8132.5366     -7196.8738     -871.01947      125547.3       50.072867      50.072867      50.072867      1.1709036     -1060.1943      440.30688      596.84653    
    496100   496100         305.25841     -258.18221      21173.793      21646.832      8503.7841      13143.048      3514.3394      5010.8475      3788.9705      385.58332     -499.85781      8139.3356     -7196.1707     -870.44299      125630.44      50.083918      50.083918      50.083918      1.1701287     -551.8034      -85.16252      -137.5807     
    496200   496200         303.82645     -12.556374      21591.796      21614.788      8463.8932      13150.895      3500.4941      5014.9909      3798.5429      376.63505     -482.97329      8137.011      -7193.8058     -870.95035      125557.26      50.074191      50.074191      50.074191      1.1708107     -1220.4366      667.02781      515.73972    
    496300   496300         301.99975     -259.15689      21032.944      21507.251      8413.0056      13094.246      3522.2689      4981.3281      3798.176       372.86113     -525.98482      8137.9601     -7192.3636     -871.39337      125493.43      50.065704      50.065704      50.065704      1.1714063     -1185.2139      174.17089      233.57233    
    496400   496400         301.54913     -507.93043      20535.734      21465.318      8400.4522      13064.866      3405.5515      5029.5864      3838.602       385.71986     -535.10337      8135.9031     -7195.3935     -871.41793      125489.89      50.065234      50.065234      50.065234      1.1714393     -2235.7798      505.78511      206.20341    
    496500   496500         301.46478     -240.85664      21014.59       21454.751      8398.1023      13056.649      3463.8465      4989.7404      3813.9832      386.72827     -535.63981      8133.7814     -7195.7911     -872.68674      125307.44      50.040958      50.040958      50.040958      1.1731449     -943.19039      420.73686     -200.11639    
    496600   496600         298.74004     -636.43817      20270.961      21432.844      8322.1975      13110.647      3496.6253      5013.1333      3793.9719      371.32623     -506.39604      8139.3993     -7197.4133     -873.58452      125178.66      50.02381       50.02381       50.02381       1.1743518      266.18643     -863.62594     -1311.875     
    496700   496700         301.12096     -143.39148      21230.834      21492.529      8388.5244      13104.004      3493.9049      5091.4293      3744.234       380.45428     -522.9288       8116.6003     -7199.6896     -873.856        125139.77      50.018629      50.018629      50.018629      1.1747168      314.94217     -345.89671     -399.21991    
    496800   496800         307.60612      246.89797      22161.347      21710.045      8569.1857      13140.859      3540.1032      5021.8385      3750.3744      390.30418     -509.24642      8143.1346     -7195.6494     -872.49059      125335.61      50.044708      50.044708      50.044708      1.1728813     -410.77103      988.09578      163.36916    
    496900   496900         304.07512      29.296606      21732.63       21678.947      8470.8203      13208.127      3559.9803      4975.1794      3852.4916      392.66816     -525.13067      8145.3788     -7192.4411     -870.33912      125645.44      50.085911      50.085911      50.085911      1.1699891     -500.1027       405.83124      182.16128    
    497000   497000         299.05651     -320.81555      20944.955      21533.113      8331.0137      13202.099      3596.6898      4999.5978      3780.5552      385.96323     -515.53582      8147.8753     -7193.0463     -869.90706      125707.84      50.094201      50.094201      50.094201      1.1694082     -360.71738      65.161496     -666.89077    
    497100   497100         302.87502     -1116.8334      19418.793      21465.662      8437.3884      13028.273      3413.4797      4984.2404      3812.4922      378.67647     -494.19672      8130.5056     -7196.9243     -870.18084      125668.29      50.088947      50.088947      50.088947      1.1697763     -1533.8003     -1537.6156     -279.08427    
    497200   497200         298.63318     -93.281651      21275.883      21446.705      8319.2208      13127.485      3515.2794      4968.9552      3806.6591      388.97247     -497.08301      8142.3807     -7197.6793     -870.88844      125566.19      50.075378      50.075378      50.075378      1.1707275     -659.76752     -162.83278      542.75535    
    497300   497300         300.32013     -308.89379      20937.013      21502.606      8366.2152      13136.391      3476.8552      4954.3138      3864.8405      380.00879     -490.85905      8149.6383     -7198.4063     -870.99585      125550.7       50.073319      50.073319      50.073319      1.1708719     -665.06254     -658.61612      396.99728    
    497400   497400         303.81848      11.934319      21704.501      21682.635      8463.671       13218.964      3478.1088      5033.8952      3873.9421      387.11959     -495.68035      8137.539      -7195.9602     -870.4214       125633.56      50.084333      50.084333      50.084333      1.1700997     -73.137298      53.090281      55.849974    
    497500   497500         303.52813     -994.30517      19877.129      21699.65       8455.5826      13244.068      3469.1561      5043.5223      3913.5903      389.86016     -510.94011      8135.0274     -7196.1487     -870.07827      125683.11      50.090916      50.090916      50.090916      1.1696384     -860.9934      -1152.2008     -969.72134    
    497600   497600         302.5358      -488.90519      20692.9        21588.959      8427.9385      13161.02       3489.4582      5057.4142      3793.6642      375.92182     -507.50343      8147.2935     -7195.2281     -870.16069      125671.2       50.089334      50.089334      50.089334      1.1697492     -686.19511     -254.27907     -526.24138    
    497700   497700         296.99745     -26.871958      21444.526      21493.735      8273.6532      13220.082      3515.3537      4953.172       3836.7922      389.07597     -417.12992      8138.4066     -7195.5886     -870.89359      125565.44      50.075279      50.075279      50.075279      1.1707344      137.7886      -1107.0914      888.68688    
    497800   497800         301.35234      114.91105      21729.63       21519.118      8394.97        13124.148      3543.8665      5005.8579      3736.9829      378.86275     -500.34239      8150.8681     -7191.9475     -870.55664      125614.04      50.081739      50.081739      50.081739      1.1702815      1472.3829     -1024.2118     -103.43797    
    497900   497900         301.18458      103.88936      21770.313      21579.816      8390.2966      13189.519      3538.5183      4995.0052      3758.5249      376.91863     -431.23958      8144.9113     -7193.1193     -869.74877      125730.72      50.09724       50.09724       50.09724       1.1691954      1752.6383     -1295.4875     -145.48273    
    498000   498000         299.75607     -1047.7605      19705.844      21631.536      8350.5019      13281.034      3528.7466      5107.0365      3812.2233      386.67542     -498.40242      8137.7736     -7193.0193     -867.73341      126022.74      50.135995      50.135995      50.135995      1.1664862     -1127.4167     -722.69167     -1293.1732    
    498100   498100         299.96353     -939.50948      19806.503      21532.59       8356.2811      13176.309      3473.9459      5055.3743      3817.4112      384.24624     -511.68904      8148.6958     -7191.6753     -868.05966      125975.37      50.129713      50.129713      50.129713      1.1669248     -391.80603     -1905.1195     -521.60288    
    498200   498200         299.68609     -153.7584       21121.972      21404.12       8348.5525      13055.568      3452.8379      4942.4923      3806.8816      387.25676     -475.83423      8137.4159     -7195.4825     -869.10681      125823.59      50.109572      50.109572      50.109572      1.1683325     -47.41996      -784.18708      370.33185    
    498300   498300         295.76708      409.07988      22191.718      21441.903      8239.3778      13202.526      3582.7846      4942.4749      3786.2343      383.59919     -445.32118      8146.4766     -7193.7229     -870.0922       125681.09      50.090648      50.090648      50.090648      1.1696571      804.87201      330.44071      91.926908    
    498400   498400         301.40982     -316.63652      21010.121      21590.518      8396.5713      13193.947      3571.8541      5008.291       3783.5577      371.3736      -489.70484      8139.3461     -7190.7707     -870.05465      125686.52      50.091369      50.091369      50.091369      1.1696066     -1120.0439      857.35336     -687.219      
    498500   498500         301.03128     -1170.1688      19461.027      21606.46       8386.0262      13220.433      3518.8484      5045.0298      3856.4277      387.03512     -526.554        8133.3786     -7193.7321     -869.85073      125715.98      50.095283      50.095283      50.095283      1.1693325     -1155.8481     -1049.8587     -1304.7998    
    498600   498600         300.888       -605.59953      20440.595      21548.467      8382.0348      13166.433      3454.4156      5068.7635      3835.2783      384.24879     -522.03171      8139.4225     -7193.6644     -871.77967      125437.82      50.058308      50.058308      50.058308      1.1719256     -1838.8913     -271.96413      294.05687    
    498700   498700         295.02201     -912.78693      19797.346      21463.113      8218.622       13244.491      3548.1383      5087.2682      3853.1548      389.36204     -578.26312      8139.5348     -7194.7039     -873.90917      125132.16      50.017615      50.017615      50.017615      1.1747882     -355.70996     -1262.3692     -1120.2816    
    498800   498800         301.19795     -340.51617      20807.288      21426.638      8390.6691      13035.969      3379.2894      4986.3745      3870.5866      387.22112     -521.33477      8128.7201     -7194.8878     -876.82492      124716.05      49.962111      49.962111      49.962111      1.1787078     -617.88381      654.08093     -1057.7456    
    498900   498900         299.47512     -700.61408      20160.75       21434.898      8342.6751      13092.223      3532.1327      4962.9665      3831.0755      377.72158     -559.4708       8142.3408     -7194.5433     -876.94015      124699.66      49.959923      49.959923      49.959923      1.1788628     -846.02172     -758.87299     -496.94752    
    499000   499000         304.34426     -78.500619      21424.838      21567.739      8478.3181      13089.421      3482.3343      4952.667       3817.539       384.48287     -491.03472      8137.696      -7194.2637     -876.09399      124820.1       49.976002      49.976002      49.976002      1.1777253     -359.63632      1316.6648     -1192.5303    
    499100   499100         302.02208     -1356.517       19166.986      21646.267      8413.6276      13232.639      3487.2605      5062.6906      3855.5298      390.94437     -509.08608      8137.9497     -7192.6494     -872.59089      125321.2       50.04279       50.04279       50.04279       1.1730161     -1434.537      -1060.2195     -1574.7946    
    499200   499200         301.33429     -718.42811      20245.035      21561.104      8394.4675      13166.637      3479.5744      4969.2481      3836.8935      387.36605     -453.93808      8141.6414     -7194.1488     -870.59408      125608.64      50.081021      50.081021      50.081021      1.1703318     -919.44697     -212.55591     -1023.2815    
    499300   499300         299.32111      170.74117      21743.049      21429.967      8338.3848      13091.582      3516.4812      5013.735       3750.3415      376.62815     -516.57973      8143.7691     -7192.7928     -869.74444      125731.35      50.097323      50.097323      50.097323      1.1691896      750.54641      358.37624     -596.69916    
    499400   499400         298.72088     -309.19399      20851.172      21417.299      8321.6639      13095.635      3466.2549      4978.8858      3789.9044      369.0257      -467.9993       8154.8423     -7195.2791     -871.02112      125547.06      50.072835      50.072835      50.072835      1.1709059     -106.11608     -778.21092     -43.254963    
    499500   499500         299.65668     -1252.1915      19214.603      21503.119      8347.7329      13155.387      3502.7474      5039.6174      3821.8603      385.60108     -535.29163      8135.734      -7194.882      -872.62524      125316.27      50.042134      50.042134      50.042134      1.1730623     -739.2337      -2033.278      -984.06269    
    499600   499600         301.53286     -228.67263      21156.409      21574.196      8399.999       13174.197      3512.7901      5018.1676      3780.5486      390.61366     -467.0948       8134.623      -7195.4508     -872.90999      125275.39      50.036692      50.036692      50.036692      1.173445       434.96672     -578.92078     -542.06381    
    499700   499700         299.63949     -938.156        19844.896      21560.37       8347.2542      13213.116      3446.5764      4942.2392      3968.9246      400.08446     -499.98555      8149.3598     -7194.0831     -872.17206      125381.38      50.0508        50.0508        50.0508        1.172453      -110.28379     -2043.8244     -660.35984    
    499800   499800         298.31805     -985.63074      19727.92       21534.242      8310.442       13223.8        3563.183       5008.3438      3839.4042      393.95538     -546.3662       8157.3102     -7192.0305     -870.22229      125662.31      50.088152      50.088152      50.088152      1.169832      -719.75428     -1855.7275     -381.41042    
    499900   499900         301.84656     -71.966015      21318.059      21449.933      8408.7379      13041.195      3451.085       5016.4602      3754.2346      373.25069     -506.72317      8146.352      -7193.4641     -870.31986      125648.22      50.08628       50.08628       50.08628       1.1699632      394.41738      8.1588256     -618.47425    
    500000   500000         297.31877     -897.92488      19715.458      21360.533      8282.6044      13077.929      3435.8506      4985.5319      3823.1859      370.49028     -492.44528      8146.2919     -7190.9766     -870.49305      125623.22      50.082958      50.082958      50.082958      1.170196       278.66167     -1109.2942     -1863.1421    
Loop time of 2799.99 on 1 procs for 500000 steps with 10820 atoms

Performance: 15.429 ns/day, 1.556 hours/ns, 178.572 timesteps/s, 1.932 Matom-step/s
99.9% CPU use with 1 MPI tasks x 1 OpenMP threads

MPI task timing breakdown:
Section |  min time  |  avg time  |  max time  |%varavg| %total
---------------------------------------------------------------
Pair    | 1344.9     | 1344.9     | 1344.9     |   0.0 | 48.03
Bond    | 388.43     | 388.43     | 388.43     |   0.0 | 13.87
Kspace  | 511.44     | 511.44     | 511.44     |   0.0 | 18.27
Neigh   | 134.62     | 134.62     | 134.62     |   0.0 |  4.81
Comm    | 18.457     | 18.457     | 18.457     |   0.0 |  0.66
Output  | 13.735     | 13.735     | 13.735     |   0.0 |  0.49
Modify  | 283.99     | 283.99     | 283.99     |   0.0 | 10.14
Other   |            | 104.4      |            |       |  3.73

Nlocal:          10820 ave       10820 max       10820 min
Histogram: 1 0 0 0 0 0 0 0 0 0
Nghost:          22823 ave       22823 max       22823 min
Histogram: 1 0 0 0 0 0 0 0 0 0
Neighs:              0 ave           0 max           0 min
Histogram: 1 0 0 0 0 0 0 0 0 0
FullNghs:   5.9284e+06 ave  5.9284e+06 max  5.9284e+06 min
Histogram: 1 0 0 0 0 0 0 0 0 0

Total # of neighbors = 5928396
Ave neighs/atom = 547.91091
Ave special neighs/atom = 5.7689464
Neighbor list builds = 16539
Dangerous builds = 0

# --- Cleanup ---
unfix npt_fix
unfix shake_fix
undump dump_npt

# --- Write Output ---
write_dump all custom /home/arz2/PolyJarvis/data/PSU2/lammps/mechanical/bm_series/bm_P-500/bm_P-500_last.dump id type mol x y z xu yu zu vx vy vz modify sort id
write_data /home/arz2/PolyJarvis/data/PSU2/lammps/mechanical/bm_series/bm_P-500/bm_P-500_out.data
System init for write_data ...
PPPM Kokkos initialization ...
  using 12-bit tables for long-range coulomb
  G vector (1/distance) = 0.30166425
  grid = 36 36 36
  stencil order = 5
  estimated absolute RMS force accuracy = 0.00029311549
  estimated relative force accuracy = 8.8270861e-07
  using double precision cuFFT
  3d grid and FFT values/proc = 79507 46656
Generated 28 of 28 mixed pair_coeff terms from sixthpower/sixthpower mixing rule

print "STAGE COMPLETE: NPT T=300.0->300.0K P=-500.0->-500.0atm steps=500000"
STAGE COMPLETE: NPT T=300.0->300.0K P=-500.0->-500.0atm steps=500000
quit
