units real
atom_style full
boundary p p p

# --- Force Field Styles ---
pair_style lj/class2/coul/long 9.5 9.5
kspace_style pppm 1e-6
dielectric 1.000000
bond_style class2
angle_style class2
dihedral_style class2
improper_style class2
special_bonds lj/coul 0 0 1
pair_modify mix sixthpower tail yes
neighbor 2.0 bin
neigh_modify delay 0 every 1 check yes
neigh_modify one 4000
package gpu 1 neigh yes

read_data /home/arz2/PolyJarvis/data/PLA1/lammps/equil/npt_prod300/npt_prod300_out.data
Reading data file ...
  orthogonal box = (4.585882 4.585882 4.585882) to (41.047241 41.047241 41.047241)
  2 by 1 by 2 MPI processor grid
  reading atoms ...
  4520 atoms
  reading velocities ...
  4520 velocities
  scanning bonds ...
  4 = max bonds/atom
  scanning angles ...
  6 = max angles/atom
  scanning dihedrals ...
  12 = max dihedrals/atom
  scanning impropers ...
  4 = max impropers/atom
  orthogonal box = (4.585882 4.585882 4.585882) to (41.047241 41.047241 41.047241)
  2 by 1 by 2 MPI processor grid
  reading bonds ...
  4510 bonds
  reading angles ...
  8000 angles
  reading dihedrals ...
  9970 dihedrals
  reading impropers ...
  4500 impropers
Finding 1-2 1-3 1-4 neighbors ...
  special bond factors lj:    0        0        1       
  special bond factors coul:  0        0        1       
     4 = max # of 1-2 neighbors
     6 = max # of 1-3 neighbors
    10 = max # of special neighbors
  special bonds CPU = 0.001 seconds
  read_data CPU = 0.204 seconds


# --- Thermo Output ---
thermo_style custom step time temp press enthalpy etotal ke pe ebond eangle edihed eimp evdwl ecoul elong etail vol lx ly lz density pxx pyy pzz
thermo_modify flush yes
thermo 500

# --- Velocity initialization at T_START (once only — Rule A) ---
velocity all create 600.0 324127 mom yes rot yes dist gaussian

# --- Temperature staircase (inherits momenta across steps — Rule A) ---
variable temps index 600 580 560 540 520 500 480 460 440 420 400 380 360 340 320 300 280 260 240 220
label TEMP_LOOP
  timestep 1.0
  fix npt_tg all npt temp ${temps} ${temps} 100.0 iso 1.0 1.0 1000.0
  fix npt_tg all npt temp 600 ${temps} 100.0 iso 1.0 1.0 1000.0
  fix npt_tg all npt temp 600 600 100.0 iso 1.0 1.0 1000.0
  run 125000

CITE-CITE-CITE-CITE-CITE-CITE-CITE-CITE-CITE-CITE-CITE-CITE-CITE

Your simulation uses code contributions which should be cited:

- GPU package (short-range, long-range and three-body potentials): doi:10.1016/j.cpc.2010.12.021, doi:10.1016/j.cpc.2011.10.012, doi:10.1016/j.cpc.2013.08.002, doi:10.1016/j.commatsci.2014.10.068, doi:10.1016/j.cpc.2016.10.020, doi:10.3233/APC200086

@Article{Brown11,
 author = {W. M. Brown and P. Wang and S. J. Plimpton and A. N. Tharrington},
 title = {Implementing Molecular Dynamics on Hybrid High Performance Computers---Short Range Forces},
 journal = {Comput.\ Phys.\ Commun.},
 year =    2011,
 volume =  182,
 pages =   {898--911},
 doi =     {10.1016/j.cpc.2010.12.021}
}

@Article{Brown12,
 author = {W. M. Brown and A. Kohlmeyer and S. J. Plimpton and A. N. Tharrington},
 title = {Implementing Molecular Dynamics on Hybrid High Performance Computers - Particle-Particle Particle-Mesh},
 journal = {Comput.\ Phys.\ Commun.},
 year =    2012,
 volume =  183,
 doi =     {10.1016/j.cpc.2011.10.012},
 pages =   {449--459}
}

@Article{Brown13,
 author = {W. M. Brown and Y. Masako},
 title = {Implementing Molecular Dynamics on Hybrid High Performance Computers---Three-Body Potentials},
 journal = {Comput.\ Phys.\ Commun.},
 year =    2013,
 volume =  184,
 pages =   {2785--2793},
 doi =     {10.1016/j.cpc.2013.08.002},
}

@Article{Trung15,
 author = {T. D. Nguyen and S. J. Plimpton},
 title = {Accelerating Dissipative Particle Dynamics Simulations for Soft Matter Systems},
 journal = {Comput.\ Mater.\ Sci.},
 year =    2015,
 doi =     {10.1016/j.commatsci.2014.10.068},
 volume =  100,
 pages =   {173--180}
}

@Article{Trung17,
 author = {T. D. Nguyen},
 title = {{GPU}-Accelerated {T}ersoff Potentials for Massively Parallel
    Molecular Dynamics Simulations},
 journal = {Comput.\ Phys.\ Commun.},
 year =    2017,
 doi =     {10.1016/j.cpc.2016.10.020},
 volume =  212,
 pages =   {113--122}
}

@inproceedings{Nikolskiy19,
 author = {V. Nikolskiy and V. Stegailov},
 title = {{GPU} Acceleration of Four-Site Water Models in {LAMMPS}},
 booktitle = {Proceedings of the International Conference on Parallel
    Computing (ParCo 2019), Prague, Czech Republic},
 doi =     {10.3233/APC200086},
 year =    2019
}

CITE-CITE-CITE-CITE-CITE-CITE-CITE-CITE-CITE-CITE-CITE-CITE-CITE

PPPM initialization ...
  using 12-bit tables for long-range coulomb
  G vector (1/distance) = 0.33469742
  grid = 40 40 40
  stencil order = 5
  estimated absolute RMS force accuracy = 0.00041952969
  estimated relative force accuracy = 1.2634012e-06
  using double precision KISS FFT
  3d grid and FFT values/proc = 34263 16000
Generated 21 of 21 mixed pair_coeff terms from sixthpower/sixthpower mixing rule
Per MPI rank memory allocation (min/avg/max) = 16.82 | 16.82 | 16.82 Mbytes
   Step          Time           Temp          Press         Enthalpy        TotEng         KinEng         PotEng         E_bond        E_angle        E_dihed        E_impro         E_vdwl         E_coul         E_long         E_tail         Volume           Lx             Ly             Lz          Density          Pxx            Pyy            Pzz      
         0   0              600            4330.3188      23526.509      20465.291      8082.1684      12383.123      2125.9279      3713.6708     -3993.9481      139.98551     -2478.0239      44134.189     -31258.679     -390.16362      48472.852      36.46136       36.46136       36.46136       1.2350444      2318.5395      5313.205       5359.212     
       500   500            578.73102      850.31665      24980.059      24349.998      7795.6692      16554.328      3889.1631      5246.322      -3703.3499      316.16037     -2044.3412      44098.066     -31247.692     -372.23625      50807.366      37.037548      37.037548      37.037548      1.1782961      2073.3929      205.61723      271.93982    
      1000   1000           589.30438      1423.4149      25697.224      24612.983      7938.0953      16674.887      3772.9947      5313.9445     -3739.2746      303.74293     -1892.9021      44143.577     -31227.195     -362.09845      52229.838      37.380023      37.380023      37.380023      1.1462054      1724.3405     -729.64527      3275.5495    
      1500   1500           604.05067      1536.5451      26066.432      24896.318      8136.732       16759.586      3705.1952      5477.7613     -3769.1349      312.19915     -1942.6754      44199.536     -31223.296     -362.19152      52216.417      37.376821      37.376821      37.376821      1.1465         1578.0834     -202.51643      3234.0682    
      2000   2000           607.73033      438.61878      25436.367      25102.893      8186.2981      16916.595      3824.7738      5502.8181     -3786.201       275.73807     -1887.8323      44201.823     -31214.524     -362.78253      52131.351      37.356513      37.356513      37.356513      1.1483708     -701.67364     -2358.4313      4375.9613    
      2500   2500           598.83206     -900.45866      24383.078      25070.613      8066.4359      17004.177      3793.6998      5546.829      -3605.4141      283.82396     -1925.5558      44132.227     -31221.433     -361.23539      52354.625      37.409768      37.409768      37.409768      1.1434734     -1775.0418     -1072.7807      146.44649    
      3000   3000           589.37598     -223.24579      24589.404      24758.944      7939.0598      16819.884      3763.2696      5451.067      -3686.9257      306.60412     -1908.1911      44127.206     -31233.147     -363.1906       52072.778      37.342517      37.342517      37.342517      1.1496625     -1370.9399     -560.6874       1261.89      
      3500   3500           597.02923      689.78577      25287.353      24765.381      8042.1513      16723.23       3731.8405      5344.9924     -3683.4443      276.30471     -1863.6973      44143.315     -31226.082     -364.4922       51886.826      37.298014      37.298014      37.298014      1.1537827      1707.5574     -883.5554       1245.3553    
      4000   4000           599.05786      933.76478      25522.957      24813.293      8069.4774      16743.816      3686.5239      5503.5099     -3707.3223      299.39196     -1956.0515      44141.344     -31223.58      -362.91565      52112.229      37.351945      37.351945      37.351945      1.1487922      18.419955      2501.5853      281.28913    
      4500   4500           590.54522      1335.3106      25790.25       24773.981      7954.8099      16819.171      3804.2507      5430.2847     -3710.4876      342.57435     -1951.4982      44130.61      -31226.563     -362.40553      52185.582      37.369462      37.369462      37.369462      1.1471774      557.93339      2736.0083      711.99007    
      5000   5000           596.00226      972.44392      25411.029      24673.526      8028.3177      16645.208      3741.4487      5404.9644     -3783.0293      308.89672     -1965.842       44161.405     -31222.636     -363.68187      52002.436      37.325694      37.325694      37.325694      1.1512176      340.06762      1408.2922      1168.972     
      5500   5500           599.75448     -1066.0774      24138.35       24947.877      8078.8611      16869.016      3771.5956      5398.8942     -3645.253       280.41099     -1915.0418      44204.654     -31226.244     -363.22745      52067.495      37.341254      37.341254      37.341254      1.1497792     -3179.9793     -687.96763      669.71479    
      6000   6000           605.49187      2103.5799      26621.609      25000.409      8156.1455      16844.263      3674.07        5445.7156     -3719.6374      330.87095     -1826.3569      44160.371     -31220.77      -357.88512      52844.733      37.526141      37.526141      37.526141      1.1328683      10.479792      2119.7224      4180.5376    
      6500   6500           598.26741      1635.5908      26106.534      24844.546      8058.8299      16785.716      3704.5722      5429.0963     -3711.2867      300.13521     -1883.0925      44173.054     -31226.763     -357.47078      52905.985      37.540634      37.540634      37.540634      1.1315567      2170.0933      674.83514      2061.8441    
      7000   7000           595.93945      91.528304      24840.636      24770.937      8027.4716      16743.466      3559.0364      5247.8324     -3574.1179      315.24629     -1792.0893      44212.805     -31225.248     -362.19999      52215.196      37.376529      37.376529      37.376529      1.1465268     -1253.9375      2233.2693     -704.74692    
      7500   7500           587.29894     -320.75042      24517.231      24766.005      7911.0815      16854.924      3727.0757      5408.723      -3755.6482      319.62241     -1813.8148      44185.574     -31216.608     -355.61693      53181.785      37.605754      37.605754      37.605754      1.1256885     -1303.2158     -410.9489       751.91342    
      8000   8000           594.17792     -1281.8379      23994.41       24987.876      8003.7433      16984.133      3801.7446      5456.535      -3674.6094      304.15957     -1852.1928      44165.972     -31217.477     -355.87838      53142.715      37.596543      37.596543      37.596543      1.1265161     -489.7613      -831.35996     -2524.3923    
      8500   8500           597.05199     -1440.6743      23892.503      25005.185      8042.4578      16962.727      3888.7547      5497.7666     -3743.4215      293.32901     -1873.8683      44122.182     -31222.015     -357.1217       52957.699      37.552862      37.552862      37.552862      1.1304517     -4435.954       1266.8624     -1152.9314    
      9000   9000           598.44981     -302.59344      24851.792      25085.102      8061.2869      17023.815      3830.5346      5458.9283     -3657.6389      288.57672     -1879.1453      44194.751     -31212.191     -357.72379      52868.565      37.531781      37.531781      37.531781      1.1323576     -1407.6118      1.3201129      498.51131    
      9500   9500           594.75487      1288.0404      25812.457      24822.412      8011.515       16810.897      3642.2381      5362.5294     -3656.2444      305.61182     -1858.8349      44226.046     -31210.449     -358.83587      52704.718      37.492969      37.492969      37.492969      1.1358779      3433.9264      2551.7481     -2121.5533    
     10000   10000          594.7559       228.11395      25016.925      24840.931      8011.5289      16829.402      3774.4755      5384.1487     -3702.6591      281.94017     -1853.8054      44168.194     -31222.892     -357.49929      52901.765      37.539636      37.539636      37.539636      1.131647       387.76882     -1283.7152      1580.2882    
     10500   10500          598.82668      989.11232      25675.642      24915.94       8066.3635      16849.577      3712.1245      5505.833      -3735.625       283.49203     -1837.9647      44132.665     -31210.948     -359.10665      52664.977      37.483543      37.483543      37.483543      1.136735      -168.66029      2519.3044      616.69289    
     11000   11000          599.71169      2168.6124      26618.192      24955.198      8078.2847      16876.914      3704.7253      5450.1156     -3686.0509      286.56135     -1864.2319      44191.903     -31206.109     -359.67701      52581.464      37.463719      37.463719      37.463719      1.1385404      4024.2551     -234.43485      2716.0168    
     11500   11500          598.00939      881.49359      25584.389      24910.059      8055.3543      16854.705      3673.3083      5483.5525     -3661.7265      306.37315     -1914.7722      44185.323     -31217.353     -360.55188      52453.876      37.433393      37.433393      37.433393      1.1413098      950.06413      1094.3611      600.05556    
     12000   12000          587.59871     -489.92188      24412.811      24789.858      7915.1195      16874.739      3665.5685      5552.3761     -3693.3716      299.57859     -1884.6903      44147.599     -31212.321     -358.38725      52770.692      37.508607      37.508607      37.508607      1.1344578     -1028.6197     -706.83833      265.69243    
     12500   12500          601.49983     -775.29593      24421.002      25025.394      8102.3714      16923.023      3771.6923      5443.2503     -3636.7345      307.34101     -1935.8337      44182.448     -31209.141     -353.81015      53453.366      37.669659      37.669659      37.669659      1.1199692     -2353.085       849.095       -821.89781    
     13000   13000          591.18955      2011.6723      26355.422      24810.52       7963.4891      16847.031      3629.8177      5537.0815     -3664.9496      317.72985     -1866.7767      44121.2       -31227.072     -359.15129      52658.431      37.48199       37.48199       37.48199       1.1368763      3948.8144      1486.755       599.44739    
     13500   13500          589.16874     -1878.4783      23402.734      24858.914      7936.2683      16922.646      3709.868       5463.0773     -3654.6633      293.87139     -1846.3761      44173.912     -31217.043     -355.80506      53153.666      37.599125      37.599125      37.599125      1.126284      -3232.4457     -1863.4331     -539.556      
     14000   14000          604.67883      408.34039      25274.21       24958.98       8145.1935      16813.787      3753.7931      5423.1928     -3714.5173      302.58492     -1860.2397      44130.718     -31221.745     -357.28637      52933.292      37.547091      37.547091      37.547091      1.130973       150.5032       849.62857      224.8894     
     14500   14500          605.65086     -1179.2046      24148.851      25052.462      8158.287       16894.175      3777.391       5404.3773     -3691.9021      293.31492     -1852.5135      44178.022     -31214.515     -359.93906      52543.181      37.454625      37.454625      37.454625      1.13937       -2103.7546     -2493.7497      1059.8904    
     15000   15000          603.30204     -322.05122      24830.746      25081.027      8126.6477      16954.38       3695.2946      5588.6626     -3660.2136      305.55219     -1894.9503      44141.446     -31221.412     -354.90929      53287.823      37.630731      37.630731      37.630731      1.1234484      56.485643     -444.81132     -577.82799    
     15500   15500          583.99574      771.31182      25392.936      24800.877      7866.5865      16934.29       3688.5544      5502.4301     -3693.3925      326.78712     -1860.7034      44182.423     -31211.809     -359.32378      52633.153      37.475991      37.475991      37.475991      1.1374223      1590.4956     -508.24938      1231.6893    
     16000   16000          596.12807      984.24467      25588.848      24826.61       8030.0123      16796.597      3746.1888      5410.7937     -3742.6567      269.23457     -1847.0328      44184.579     -31224.51      -356.15024      53102.149      37.586974      37.586974      37.586974      1.1273766      3348.5313     -311.84949     -83.947768    
     16500   16500          589.21622     -1429.566       23792.554      24903.804      7936.9078      16966.896      3671.5028      5448.5693     -3602.836       325.86055     -1866.6955      44190.407     -31199.912     -354.82451      53300.555      37.633728      37.633728      37.633728      1.1231801     -2094.0354     -553.87565     -1640.7871    
     17000   17000          600.56734      1759.0252      26331.67       24969.783      8089.8106      16879.972      3719.5825      5405.9666     -3682.5676      310.36042     -1824.3222      44161.577     -31210.625     -356.24788      53087.596      37.58354       37.58354       37.58354       1.1276857      192.83572      1589.9839      3494.2561    
     17500   17500          600.48659     -1433.2656      23887.142      25009.78       8088.7229      16921.057      3759.9558      5481.9282     -3678.0659      294.48622     -1867.7247      44150.616     -31220.139     -352.13435      53707.749      37.729321      37.729321      37.729321      1.1146645     -249.51931     -2837.4797     -1212.7977    
     18000   18000          600.87701      766.26633      25372.661      24788.523      8093.982       16694.542      3636.556       5322.4284     -3634.0329      309.53484     -1892.5866      44178.527     -31225.885     -361.81433      52270.853      37.389805      37.389805      37.389805      1.145306       60.222033      2259.846      -21.268997    
     18500   18500          588.39661     -152.03788      24913.637      25029.673      7925.8674      17103.805      3879.6011      5615.3651     -3701.9684      307.54975     -1903.5432      44131.208     -31224.407     -361.39457      52331.565      37.404275      37.404275      37.404275      1.1439773      60.297757     -1682.333       1165.9216    
     19000   19000          604.71421     -1372.9115      24168.558      25227.312      8145.6701      17081.642      3835.5392      5632.6398     -3711.7083      319.18957     -1913.4108      44133.581     -31214.188     -357.65841      52878.23       37.534068      37.534068      37.534068      1.1321506     -1393.4701     -1802.8976     -922.36695    
     19500   19500          625.51654     -1048.0471      24385.699      25197.005      8425.8834      16771.121      3796.9763      5384.4503     -3684.6853      297.59594     -1905.8513      44111.531     -31228.896     -356.30137      53079.627      37.581659      37.581659      37.581659      1.127855       1084.1773     -2566.0504     -1662.2682    
     20000   20000          602.98394     -1610.1715      23611.324      24843.143      8122.3628      16720.78       3676.5836      5392.7119     -3711.3909      300.53094     -1923.8363      44197.799     -31211.618     -360.53417      52456.452      37.434006      37.434006      37.434006      1.1412537     -1268.2612      434.29229     -3996.5455    
     20500   20500          589.30209     -305.02397      24556.27       24793.463      7938.0645      16855.398      3773.6247      5374.7335     -3681.5269      268.55146     -1796.5907      44139.342     -31222.736     -354.69484      53320.04       37.638314      37.638314      37.638314      1.1227696     -1482.2176      480.84141      86.304219    
     21000   21000          587.78439     -37.915266      24772.53       24801.905      7917.6207      16884.284      3702.6535      5457.4985     -3659.9411      286.3463      -1808.4998      44134.224     -31227.998     -356.01049      53122.994      37.591892      37.591892      37.591892      1.1269343      2188.5943     -1603.2108     -699.1293     
     21500   21500          606.88529     -1127.3493      24155.618      25030.472      8174.9151      16855.557      3747.084       5437.6102     -3725.2451      306.13607     -1904.9417      44215.495     -31220.582     -355.42196      53210.959      37.612629      37.612629      37.612629      1.1250713     -553.74089     -1348.7132     -1479.5939    
     22000   22000          592.9388       648.09696      25528.309      25034.325      7987.052       17047.273      3807.4289      5415.9158     -3614.1218      291.14994     -1829.6648      44195.27      -31218.705     -361.86604      52263.384      37.388024      37.388024      37.388024      1.1454697     -672.92908      1928.3915      688.82843    
     22500   22500          598.76221     -1557.7579      23740.285      24942.81       8065.495       16877.315      3732.5025      5421.7115     -3605.2234      262.12328     -1856.3676      44144.763     -31222.194     -357.29501      52932.011      37.546789      37.546789      37.546789      1.1310003     -3336.1217     -1472.7669      135.61478    
     23000   23000          602.36183     -169.84705      24980.2        25111.451      8113.9829      16997.468      3767.3265      5549.9521     -3670.9338      312.26518     -1848.2912      44117.305     -31230.155     -356.92388      52987.05       37.559798      37.559798      37.559798      1.1298255      151.26507     -2901.2236      2240.4174    
     23500   23500          598.74256      827.66625      25821.216      25191.969      8065.2302      17126.739      3727.5112      5623.5921     -3580.2164      317.20944     -1899.6092      44168.368     -31230.117     -362.79015      52130.256      37.356251      37.356251      37.356251      1.1483949      2353.6215     -337.35168      466.72898    
     24000   24000          613.95223     -663.9415       24617.335      25127.347      8270.1089      16857.238      3717.5242      5493.062      -3586.1374      291.85257     -1988.6149      44143.085     -31213.533     -359.06305      52671.372      37.48506       37.48506       37.48506       1.136597      -593.71587     -139.58856     -1258.5201    
     24500   24500          594.09214     -881.26391      24402.863      25082.914      8002.5879      17080.326      3902.103       5492.5746     -3677.1988      302.69698     -1809.0907      44086.724     -31217.483     -357.42556      52912.678      37.542217      37.542217      37.542217      1.1314136      773.83406     -1869.7343     -1547.8915    
     25000   25000          597.88936      1261.3788      25945.949      24969.871      8053.7375      16916.134      3743.8827      5451.4074     -3665.1443      295.53435     -1915.713       44209.928     -31203.762     -356.43669      53059.474      37.576903      37.576903      37.576903      1.1282834      2310.8721      598.69403      874.57037    
     25500   25500          589.669        1023.716       25414.773      24628.781      7943.0069      16685.774      3526.0149      5419.9526     -3689.7981      298.07635     -1832.177       44179.794     -31216.089     -359.23813      52645.701      37.478969      37.478969      37.478969      1.1371512      1456.8599      422.09795      1192.19      
     26000   26000          604.79358     -282.2511       24940.775      25160.339      8146.7393      17013.6        3851.1605      5472.3282     -3655.8798      273.42909     -1848.4556      44143.172     -31222.155     -354.56553      53339.487      37.642889      37.642889      37.642889      1.1223603      732.79502     -1459.5423     -120.00603    
     26500   26500          596.14872     -955.70729      24408.521      25153.896      8030.2906      17123.605      3850.2122      5479.7889     -3641.4428      305.67616     -1860.0151      44207.124     -31217.738     -353.64833      53477.825      37.675403      37.675403      37.675403      1.1194569     -2916.1178      1623.7048     -1574.7089    
     27000   27000          593.55337      1771.4462      26359.138      25004.036      7995.3305      17008.705      3742.5501      5499.1411     -3688.9611      289.27421     -1855.3352      44241.101     -31219.064     -360.5596       52452.752      37.433126      37.433126      37.433126      1.1413342      2477.0988      1535.7742      1301.4657    
     27500   27500          602.14332      39.86747       25092.899      25062.2        8111.0395      16951.161      3657.8022      5466.2896     -3634.27        308.7117      -1823.3218      44198.077     -31222.128     -358.19691      52798.734      37.515249      37.515249      37.515249      1.1338553     -1504.3789      2172.016      -548.03461    
     28000   28000          588.14152      752.83827      25534.196      24949.982      7922.4314      17027.55       3547.1791      5506.0368     -3554.9199      295.81283     -1782.205       44223.899     -31208.253     -355.42732      53210.157      37.612441      37.612441      37.612441      1.1250882      2422.2516      51.382992     -215.11977    
     28500   28500          589.67263     -441.26058      24425.189      24768.443      7943.0559      16825.388      3742.934       5381.6626     -3652.5039      305.80859     -1858.0349      44117.525     -31212.004     -354.56814      53339.094      37.642796      37.642796      37.642796      1.1223686     -841.1743      -1350.1721      867.56459    
     29000   29000          605.63786     -769.95742      24430.277      25020.882      8158.1119      16862.77       3593.2651      5502.7009     -3646.6963      319.20632     -1894.7515      44212.305     -31223.259     -359.5759       52596.248      37.46723       37.46723       37.46723       1.1382204      134.04923     -1110.0462     -1333.8753    
     29500   29500          596.47645     -886.9669       24388.453      25075.28       8034.7051      17040.575      3854.2537      5459.4171     -3649.1732      292.05638     -1895.2734      44178.424     -31199.13      -356.18962      53096.279      37.585589      37.585589      37.585589      1.1275013     -2036.7678     -924.50586      300.37298    
     30000   30000          605.41965      8.3316984      24852.804      24846.342      8155.1726      16691.169      3585.45        5373.8291     -3700.1305      303.86858     -1885.8804      44226.005     -31211.973     -355.60346      53183.8        37.606229      37.606229      37.606229      1.1256458      1011.2797      137.48063     -1123.7653    
     30500   30500          598.03459      1926.5903      26381.69       24886.604      8055.6937      16830.91       3661.6884      5432.5763     -3658.6908      269.42405     -1820.832       44156.351     -31209.607     -355.42194      53210.963      37.61263       37.61263       37.61263       1.1250712      2114.6994      1366.743       2298.3285    
     31000   31000          612.16688      708.27005      25657.3        25112.931      8246.0596      16866.871      3710.8103      5505.8724     -3645.0852      287.73379     -1950.6577      44159.513     -31201.316     -358.86114      52701.007      37.492089      37.492089      37.492089      1.1359578      1409.2228      720.40452     -4.8171852    
     31500   31500          611.91451      1695.1364      26315.785      25014.447      8242.6602      16771.787      3654.04        5335.5942     -3612.685       282.31427     -1828.2402      44144.1       -31203.337     -359.28242      52639.212      37.477429      37.477429      37.477429      1.1372914      833.70117      3820.135       431.57298    
     32000   32000          603.20791     -2095.8599      23213.105      24846.623      8125.3799      16721.243      3673.4156      5424.7049     -3695.8874      310.73432     -1908.4918      44135.676     -31218.908     -353.88286      53442.383      37.667079      37.667079      37.667079      1.1201993     -1406.0483     -3548.0723     -1333.4592    
     32500   32500          593.90037      1218.6692      25711.001      24772.963      8000.0046      16772.959      3714.2371      5409.7622     -3689.6432      274.26707     -1904.8784      44176.744     -31207.53      -358.33278      52778.714      37.510507      37.510507      37.510507      1.1342854      363.10845      3110.547       182.35206    
     33000   33000          604.71333      1091.9035      25638.849      24807.116      8145.6583      16661.457      3722.2657      5352.4403     -3756.5733      292.59333     -1845.6974      44126.314     -31229.885     -362.09428      52230.44       37.380166      37.380166      37.380166      1.1461922      1010.3879      742.55805      1522.7646    
     33500   33500          598.58385     -2934.9988      22821.787      25112.543      8063.0925      17049.451      3786.7895      5560.0701     -3585.7645      294.11767     -1945.0798      44156.04      -31216.723     -353.38684      53517.396      37.684694      37.684694      37.684694      1.1186292     -1598.1338     -3442.7934     -3764.0693    
     34000   34000          597.99661     -2023.9749      23391.322      24973.394      8055.1821      16918.211      3756.2815      5445.8257     -3627.4218      298.88826     -1869.2042      44137.813     -31223.971     -352.85815      53597.581      37.703505      37.703505      37.703505      1.1169557     -2389.5619     -714.62157     -2967.7413    
     34500   34500          599.52983      1525.6447      26178.058      25000.422      8075.8351      16924.587      3765.3113      5470.5583     -3640.0919      298.33243     -1860.0501      44115.617     -31225.09      -357.32518      52927.542      37.545732      37.545732      37.545732      1.1310958      2769.8677      1101.3636      705.70274    
     35000   35000          603.19559      737.43746      25609.336      25037.245      8125.2139      16912.031      3714.9379      5461.7606     -3642.6817      293.35043     -1871.5455      44174.111     -31217.902     -355.53417      53194.165      37.608672      37.608672      37.608672      1.1254265      907.1423       1.1860964      1303.984     
     35500   35500          592.32733     -72.58581       24974.111      25030.279      7978.8154      17051.463      3746.3846      5450.8965     -3641.4107      277.18322     -1808.7857      44241.396     -31214.201     -356.44021      53058.95       37.576779      37.576779      37.576779      1.1282945     -762.88267     -380.12749      925.25272    
     36000   36000          590.52943     -810.04427      24457.133      25090.76       7954.5972      17136.162      3812.4397      5521.5304     -3648.211       280.02556     -1804.0817      44182.031     -31207.571     -352.61132      53635.1        37.712301      37.712301      37.712301      1.1161743      319.82833     -672.0819      -2077.8792    
     36500   36500          596.57519      734.61974      25465.032      24900.986      8036.0352      16864.951      3663.2804      5405.8557     -3621.8618      291.08928     -1848.7874      44187.264     -31211.889     -359.2275       52647.26       37.479339      37.479339      37.479339      1.1371175      1533.578       1407.7087     -737.42747    
     37000   37000          600.19726     -276.71002      24655.695      24867.855      8084.8255      16783.029      3775.5768      5324.3446     -3673.1324      265.29549     -1885.0178      44189.199     -31213.236     -359.73555      52572.907      37.461687      37.461687      37.461687      1.1387257      235.41044     -1578.7002      513.15969    
     37500   37500          582.74012      27.075531      24782.067      24761.003      7849.6729      16911.33       3727.1611      5409.6425     -3707.5502      283.12087     -1807.2744      44223.482     -31217.252     -354.52855      53345.051      37.644198      37.644198      37.644198      1.1222432      850.52407     -569.10617     -200.19131    
     38000   38000          602.51079     -834.71912      24266.54       24917.538      8115.9894      16801.549      3813.6992      5440.9148     -3758.6094      273.27233     -1863.3562      44109.408     -31213.78      -353.65668      53476.563      37.675107      37.675107      37.675107      1.1194834     -852.94531     -298.82724     -1352.3848    
     38500   38500          601.29192     -1274.6281      24110.845      25089.895      8099.5709      16990.324      3798.6831      5500.6133     -3640.0109      300.29898     -1914.3117      44155.591     -31210.54      -359.08725      52667.823      37.484218      37.484218      37.484218      1.1366736     -5202.811      -117.52276      1496.4496    
     39000   39000          606.87544     -1061.7171      24310.482      25133.236      8174.7824      16958.454      3742.8971      5415.8236     -3567.0577      322.58474     -1927.4349      44182.889     -31211.248     -355.92617      53135.58       37.59486       37.59486       37.59486       1.1266673     -1689.6681     -1316.8521     -178.6311     
     39500   39500          607.40537     -1390.9652      24284.166      25372.712      8181.9208      17190.791      3846.475       5570.0415     -3660.1845      303.79517     -1831.6441      44172.098     -31209.789     -352.44445      53660.495      37.718252      37.718252      37.718252      1.1156461     -2890.651      -756.45459     -525.79007    
     40000   40000          611.72347      1387.5695      26308.161      25227.047      8240.0868      16986.96       3626.2035      5477.1033     -3653.5557      291.63193     -1802.0986      44241.411     -31193.735     -354.00079      53424.58       37.662896      37.662896      37.662896      1.1205726      1490.3045     -76.396652      2748.8007    
     40500   40500          600.74516      396.71286      25272.093      24965.543      8092.2058      16873.337      3727.0254      5411.022      -3672.9408      263.5702      -1894.6008      44249.41      -31210.149     -356.94099      52984.511      37.559198      37.559198      37.559198      1.1298797     -413.61792     -1766.5003      3370.2567    
     41000   41000          595.21389      1976.9959      26364.201      24830.419      8017.6982      16812.721      3537.1599      5530.1535     -3681.3485      282.25724     -1849.7994      44210.782     -31216.483     -355.51941      53196.374      37.609193      37.609193      37.609193      1.1253797      404.50523      4469.9823      1056.5002    
     41500   41500          592.39043     -1581.3675      23711.114      24937.274      7979.6654      16957.608      3678.5303      5485.7204     -3646.3759      285.53122     -1797.4188      44172.261     -31220.64      -355.7189       53166.541      37.602161      37.602161      37.602161      1.1260112     -2223.9676     -157.9605      -2362.1743    
     42000   42000          599.93612      1270.9982      26133.725      25148.635      8081.3079      17067.327      3743.6954      5602.7631     -3728.5692      312.0083      -1817.0894      44164.934     -31210.415     -355.86902      53144.113      37.596873      37.596873      37.596873      1.1264864      1028.6415      1714.6873      1069.6657    
     42500   42500          603.89828      3069.6894      27482.848      25078.834      8134.6793      16944.154      3687.4328      5391.9732     -3639.7605      258.3395      -1794.7661      44244.997     -31204.061     -352.19131      53699.064      37.727287      37.727287      37.727287      1.1148448      876.07511      3989.36        4343.6331    
     43000   43000          597.90555      593.40952      25495.929      25027.081      8053.9555      16973.125      3780.5454      5481.4648     -3728.4063      279.21736     -1757.4455      44129.289     -31211.539     -349.09467      54175.4        37.838511      37.838511      37.838511      1.1050426     -948.64979      2220.5004      508.37795    
     43500   43500          597.70215      1075.7391      25703.151      24865.078      8051.2157      16813.863      3621.4559      5305.6111     -3619.6451      249.28653     -1795.0937      44252.69      -31200.442     -354.03514      53419.396      37.661677      37.661677      37.661677      1.1206814      1992.4981      419.04912      815.67015    
     44000   44000          593.69795     -714.4348       24189.281      24743.228      7997.278       16745.95       3738.8675      5273.9617     -3683.8639      279.65264     -1856.1577      44209.461     -31215.971     -355.72577      53165.514      37.601919      37.601919      37.601919      1.126033      -1548.1045     -1006.0745      410.87464    
     44500   44500          597.96072     -533.93861      24742.699      25160.114      8054.6986      17105.415      3789.3016      5497.2749     -3681.6622      321.80457     -1859.8849      44247.464     -31208.883     -352.8127       53604.486      37.705124      37.705124      37.705124      1.1168118      479.52717      71.905044     -2153.248     
     45000   45000          601.81985     -920.18624      24224.724      24938.947      8106.6822      16832.265      3691.0803      5424.0268     -3694.0848      277.72589     -1818.9486      44163.417     -31210.952     -355.35583      53220.861      37.614963      37.614963      37.614963      1.124862       564.34954     -1852.8231     -1472.0852    
     45500   45500          602.36574     -2042.8942      23575.172      25159.789      8114.0356      17045.753      3793.2997      5517.0123     -3636.187       262.84929     -1875.1251      44191.451     -31207.547     -355.58456      53186.627      37.606896      37.606896      37.606896      1.125586      -2865.9338     -2334.4202     -928.32847    
     46000   46000          603.35485      1362.6103      26155.371      25088.529      8127.3591      16961.17       3673.4285      5389.8668     -3637.3118      304.95242     -1745.9376      44187.118     -31210.946     -352.28414      53684.913      37.723972      37.723972      37.723972      1.1151387      1064.716       822.13741      2200.9774    
     46500   46500          591.31817      964.8091       25738.203      24982.876      7965.2217      17017.655      3618.9858      5607.3581     -3610.7833      322.97866     -1870.7015      44162.534     -31212.717     -352.31239      53680.608      37.722964      37.722964      37.722964      1.1152281      1158.6275      563.22847      1172.5713    
     47000   47000          595.23006     -289.13223      24655.215      24880.397      8017.9159      16862.482      3766.8069      5241.2753     -3655.2755      286.6021      -1719.1822      44138.722     -31196.467     -354.14668      53402.571      37.657723      37.657723      37.657723      1.1210345     -56.16378      -778.03404     -33.198859    
     47500   47500          590.35177     -2030.7716      23310.628      24887.205      7952.204       16935.001      3623.158       5471.2353     -3577.3829      293.19128     -1932.6009      44252.878     -31195.478     -355.27711      53232.653      37.61774       37.61774       37.61774       1.1246128     -1024.0976      191.32352     -5259.5406    
     48000   48000          606.49832      1528.807       26361.73       25163.896      8169.7026      16994.193      3735.2926      5422.6178     -3661.3899      293.70477     -1713.9371      44134.001     -31216.096     -352.02785      53723.998      37.733125      37.733125      37.733125      1.1143274      663.67218      1317.7753      2604.9734    
     48500   48500          605.52009      493.05559      25537.487      25150.668      8156.5256      16994.143      3581.3513      5610.1358     -3668.2388      301.77595     -1783.3016      44169.482     -31217.062     -351.56777      53794.304      37.749578      37.749578      37.749578      1.112871      -1556.5621      1117.6488      1918.08      
     49000   49000          597.91244     -1126.1087      24132.065      25014.877      8054.0483      16960.828      3707.6792      5502.1947     -3677.1085      312.23583     -1841.6173      44177.711     -31220.267     -351.8305       53754.132      37.740179      37.740179      37.740179      1.1137027     -1849.3294     -180.94209     -1348.0545    
     49500   49500          586.07987      1285.0101      25785.713      24798.66       7894.6603      16904          3582.235       5470.8826     -3585.3385      286.81055     -1816.9944      44183.035     -31216.63      -359.07683      52669.35       37.48458       37.48458       37.48458       1.1366406      2764.7777      594.20083      496.05168    
     50000   50000          601.91753      955.31672      25748.396      24997.937      8107.998       16889.939      3606.6428      5394.2891     -3653.5599      306.86329     -1734.8813      44175.025     -31204.44      -351.10864      53864.648      37.766025      37.766025      37.766025      1.1114177      114.47842      991.47113      1760.0006    
     50500   50500          600.39586      1430.4646      26236.871      25118.021      8087.5008      17030.52       3641.6435      5631.4125     -3652.1045      316.69821     -1870.3053      44170.132     -31206.956     -352.63596      53631.352      37.711423      37.711423      37.711423      1.1162523      71.244956      3012.5483      1207.6005    
     51000   51000          604.88736      650.88595      25769.806      25265.096      8148.0025      17117.093      3727.0872      5676.2273     -3698.4663      290.21115     -1822.4755      44155.662     -31211.153     -355.70008      53169.353      37.602824      37.602824      37.602824      1.1259517      916.10282      1409.3252     -372.77017    
     51500   51500          605.08294     -507.93096      24861.663      25259.102      8150.637       17108.465      3736.5116      5423.7767     -3586.5058      279.07905     -1779.7374      44245.304     -31209.963     -352.49671      53652.539      37.716388      37.716388      37.716388      1.1158115     -388.01403     -3144.2447      2008.4658    
     52000   52000          599.84743      663.78207      25547.375      25029.855      8080.1132      16949.741      3719.4121      5406.2943     -3657.674       308.29027     -1790.7624      44169.931     -31205.75      -353.76846      53459.665      37.671138      37.671138      37.671138      1.1198372      956.31682      853.20184      181.82754    
     52500   52500          597.97356      95.2545        24994.457      24920.109      8054.8716      16865.238      3623.2452      5377.772      -3637.1322      296.68038     -1740.3297      44147.841     -31202.839     -353.37842      53518.671      37.684993      37.684993      37.684993      1.1186026      486.04998      1097.766      -1298.0525    
     53000   53000          602.39183      1488.1062      26127.413      24969.975      8114.387       16855.588      3715.967       5400.0797     -3682.8191      275.47877     -1810.2404      44160.682     -31203.56      -354.61531      53332          37.641127      37.641127      37.641127      1.1225179      1124.864       1475.3423      1864.1124    
     53500   53500          596.23029      2273.8226      26731.008      24968.193      8031.3893      16936.804      3585.9059      5514.7007     -3606.8123      298.20987     -1823.377       44187.011     -31218.835     -355.77146      53158.686      37.600309      37.600309      37.600309      1.1261776      4030.1353      389.42206      2401.9104    
     54000   54000          589.83661      729.42251      25625.169      25053.115      7945.2647      17107.851      3817.9467      5453.561      -3655.505       300.56376     -1817.2942      44208.555     -31199.976     -351.69265      53775.202      37.745109      37.745109      37.745109      1.1132663      278.4644       2037.556      -127.75287    
     54500   54500          605.12188     -2251.6123      23458.633      25217.706      8151.1616      17066.545      3771.3129      5461.9801     -3570.7793      271.85993     -1853.5513      44194.77      -31209.048     -353.04559      53569.125      37.696832      37.696832      37.696832      1.117549      -1081.2697     -2340.5188     -3333.0483    
     55000   55000          600.33803     -321.30994      24838.956      25086.223      8086.7217      16999.502      3855.6524      5416.789      -3636.9192      297.78758     -1827.2329      44109.811     -31216.386     -358.40836      52767.584      37.50787       37.50787       37.50787       1.1345246     -1012.2708     -586.68142      635.02241    
     55500   55500          601.6606      -1535.1278      23838.722      25039.733      8104.5372      16935.196      3706.6599      5422.9606     -3640.0587      278.15641     -1790.0002      44171.943     -31214.465     -352.54846      53644.664      37.714542      37.714542      37.714542      1.1159753     -861.31976     -2279.605      -1464.4588    
     56000   56000          591.24244      941.59237      25601.402      24867.175      7964.2015      16902.973      3755.9286      5311.9971     -3596.2438      264.77232     -1810.6124      44186.045     -31208.913     -353.71515      53467.722      37.673031      37.673031      37.673031      1.1196685      166.96661      2070.2871      587.52343    
     56500   56500          602.89165      236.67612      25181.151      24997.492      8121.1197      16876.372      3736.4551      5323.5802     -3615.5937      292.72026     -1812.1776      44165.825     -31214.437     -355.43677      53208.743      37.612107      37.612107      37.612107      1.1251182     -153.03647     -541.10534      1404.1702    
     57000   57000          604.25247      1049.8257      26039.733      25213.246      8139.4503      17073.796      3800.7085      5478.6429     -3671.4831      281.79659     -1730.864       44133.87      -31218.876     -350.35028      53981.243      37.793255      37.793255      37.793255      1.1090171     -239.66977      1368.7514      2020.3955    
     57500   57500          600.40477      474.49551      25437.378      25065.026      8087.6207      16977.405      3693.6364      5450.5783     -3613.7336      277.71292     -1728.9533      44116.12      -31217.956     -351.47892      53807.902      37.752758      37.752758      37.752758      1.1125898      1144.1522      400.34907     -121.0148     
     58000   58000          607.17416      762.30739      25758.311      25165.073      8178.8063      16986.267      3753.6677      5315.2248     -3597.8927      256.85398     -1763.8388      44234.085     -31211.833     -354.42326      53360.898      37.647925      37.647925      37.647925      1.12191        194.60073      1042.6028      1049.7186    
     58500   58500          598.59468     -1155.8897      24190.624      25099.342      8063.2383      17036.104      3795.8858      5398.6452     -3655.2279      319.93145     -1813.5486      44188.297     -31197.879     -350.83955      53905.962      37.775678      37.775678      37.775678      1.1105659     -1962.3723     -321.18877     -1184.108     
     59000   59000          589.57381      27.885852      24954.047      24932.414      7941.7247      16990.689      3665.1624      5552.3668     -3670.9411      315.64104     -1815.6349      44161.605     -31217.51      -355.53892      53193.455      37.608505      37.608505      37.608505      1.1254415     -306.33017      2258.8719     -1868.8841    
     59500   59500          596.90337      976.51387      25800.926      25042.019      8040.4559      17001.563      3756.7546      5493.6659     -3671.0384      304.76889     -1793.7339      44121.271     -31210.126     -354.904        53288.618      37.630918      37.630918      37.630918      1.1234317      1537.3158      37.714782      1354.5111    
     60000   60000          597.06999     -859.73031      24377.38       25037.948      8042.7004      16995.248      3782.7762      5480.6253     -3630.1467      292.06714     -1868.3136      44141.556     -31203.317     -358.97655      52684.064      37.488071      37.488071      37.488071      1.1363232     -1563.2709      509.16136     -1525.0814    
     60500   60500          608.52206      457.83058      25728.219      25371.332      8196.963       17174.369      3785.5593      5593.9792     -3661.0955      296.41824     -1781.6819      44144.03      -31202.84      -353.83033      53450.317      37.668943      37.668943      37.668943      1.1200331     -262.08702      1722.4385     -86.859698    
     61000   61000          604.58103      1711.7251      26541.368      25211.824      8143.8761      17067.948      3878.4855      5414.3652     -3680.0088      297.77369     -1858.6287      44226.224     -31210.263     -355.10143      53258.989      37.623943      37.623943      37.623943      1.1240567      840.66551      2531.0285      1763.4812    
     61500   61500          594.48753      1752.1617      26407.89       25062.998      8007.9139      17055.084      3757.7015      5441.3115     -3610.5531      291.36554     -1843.353       44227.016     -31208.405     -359.34185      52630.506      37.475363      37.475363      37.475363      1.1374795      540.16788      3186.5852      1529.7321    
     62000   62000          596.65768     -654.74563      24390.023      24896.991      8037.1464      16859.844      3688.9927      5427.4153     -3644.638       269.91997     -1862.3564      44184.566     -31204.055     -356.21603      53092.342      37.58466       37.58466       37.58466       1.1275849     -745.28525     -1621.0742      402.12256    
     62500   62500          597.24886     -97.113297      24856.691      24932.183      8045.1097      16887.073      3758.4413      5481.7621     -3711.7925      298.42197     -1844.6817      44109.113     -31204.191     -354.81399      53302.136      37.6341        37.6341        37.6341        1.1231468     -1713.5467      218.88046      1203.3264    
     63000   63000          593.56151     -2790.5171      22719.621      24883.667      7995.4401      16888.227      3807.5113      5386.1259     -3620.0669      291.78961     -1866.0204      44099.269     -31210.382     -355.66358      53174.811      37.60411       37.60411       37.60411       1.1258361     -5261.2957     -2103.3039     -1006.9517    
     63500   63500          598.56285      34.675757      25145.649      25118.791      8062.8096      17055.981      3803.6711      5436.2765     -3659.8463      316.34924     -1828.8209      44198.2       -31209.848     -356.1053       53108.851      37.588555      37.588555      37.588555      1.1272344      1523.2497     -3553.4352      2134.2127    
     64000   64000          594.49777     -2876.5596      22873.955      25128.046      8008.0518      17119.995      3878.7154      5535.3501     -3706.9238      308.53999     -1867.8876      44178.737     -31206.537     -351.98418      53730.663      37.734685      37.734685      37.734685      1.1141892     -4245.4145     -2708.1453     -1676.119     
     64500   64500          600.18714      3197.2162      27587.31       25117.053      8084.6892      17032.364      3704.8131      5396.8044     -3633.3268      274.54309     -1735.8008      44232.935     -31207.604     -356.98592      52977.841      37.557622      37.557622      37.557622      1.1300219      139.74336      5730.7199      3721.1854    
     65000   65000          595.21746      477.54018      25321.56       24951.501      8017.7462      16933.754      3764.8755      5388.4172     -3691.2197      310.85586     -1827.1501      44208.079     -31220.103     -355.92636      53135.552      37.594854      37.594854      37.594854      1.1266679      2222.4618      1058.9549     -1848.7961    
     65500   65500          594.63341     -1257.525       23775.365      24755.372      8009.8789      16745.493      3596.1101      5434.7019     -3633.8499      288.84753     -1892.5113      44155.269     -31203.075     -353.92313      53436.303      37.66565       37.66565       37.66565       1.1203268     -146.75871     -2998.0478     -627.76836    
     66000   66000          599.79332     -569.14966      24486.62       24923.306      8079.3843      16843.922      3864.2434      5357.6894     -3730.8808      281.44306     -1906.4918      44188.247     -31210.329     -359.48342      52609.779      37.470443      37.470443      37.470443      1.1379276      612.40477     -1041.697      -1278.1567    
     66500   66500          601.99869     -231.28538      24853.623      25031.748      8109.0913      16922.657      3787.2886      5397.9493     -3676.0203      309.79359     -1879.3697      44191.922     -31208.906     -358.13324      52808.12       37.517472      37.517472      37.517472      1.1336537      511.99286     -3835.3328      2629.4838    
     67000   67000          614.49728     -192.7289       25230.371      25380.495      8277.4508      17103.044      3838.9359      5539.1029     -3654.0439      297.79482     -1831.4799      44124.549     -31211.815     -354.09463      53410.422      37.659568      37.659568      37.659568      1.1208697      1829.674      -896.8118      -1511.0489    
     67500   67500          598.04343     -382.59216      24733.186      25032.178      8055.8128      16976.365      3645.5499      5556.2304     -3641.7471      276.01567     -1862.3812      44218.449     -31215.751     -352.93751      53585.529      37.700679      37.700679      37.700679      1.1172069     -516.23731      802.26134     -1433.8005    
     68000   68000          600.74525     -1173.138       24123.967      25034.014      8092.2071      16941.807      3773.6103      5478.6317     -3655.9953      291.453       -1893.2247      44146.3       -31198.967     -355.5545       53191.123      37.607955      37.607955      37.607955      1.1254908     -1070.6367     -1456.1585     -992.61864    
     68500   68500          605.1911       2388.1373      26988.109      25137.547      8152.094       16985.453      3727.5441      5420.2072     -3649.14        306.29069     -1784.9889      44169.948     -31204.409     -355.94         53133.515      37.594373      37.594373      37.594373      1.1267111      4008.8341      2453.9565      701.62126    
     69000   69000          596.9789       316.96942      25307.856      25057.559      8041.4734      17016.086      3762.4088      5437.4946     -3649.8937      297.65666     -1823.5195      44174.729     -31182.79      -349.28711      54145.552      37.831561      37.831561      37.831561      1.1056517     -1733.3556      800.94149      1883.3223    
     69500   69500          587.79826      1832.0508      26282.354      24849.032      7917.8075      16931.225      3617.0637      5371.3162     -3609.0849      293.82738     -1744.3937      44198.89      -31196.394     -352.5453       53645.143      37.714655      37.714655      37.714655      1.1159654      1468.3447      3056.9161      970.89173    
     70000   70000          593.7226       2758.6833      27098.891      24943.478      7997.61        16945.868      3699.5893      5409.2284     -3638.0443      292.87432     -1781.8008      44165.723     -31201.702     -353.01453      53573.839      37.697937      37.697937      37.697937      1.1174507      2820.7587      698.03464      4757.2564    
     70500   70500          591.32365      1421.6667      26135.256      25008.036      7965.2955      17042.741      3742.5333      5534.7084     -3727.2243      306.70146     -1769.8418      44163.659     -31207.796     -347.86476      54366.943      37.883053      37.883053      37.883053      1.1011493      1778.801       1828.1467      658.05237    
     71000   71000          610.02387      120.57471      25306.342      25211.44       8217.1926      16994.248      3695.2316      5397.8789     -3618.5531      310.48363     -1759.2175      44163.482     -31195.058     -350.43241      53968.59       37.790302      37.790302      37.790302      1.1092771      1202.684       435.25732     -1276.2172    
     71500   71500          581.44332      238.41787      25306.862      25120.495      7832.2047      17288.291      3800.8876      5613.7247     -3588.4028      301.27206     -1896.1664      44257.768     -31200.793     -352.85184      53598.539      37.70373       37.70373       37.70373       1.1169357      915.7312      -600.19027      399.7127     
     72000   72000          601.42095      545.70712      25443.33       25022.376      8101.309       16921.067      3684.283       5471.9579     -3558.8717      289.23266     -1924.6425      44170.567     -31211.459     -357.55775      52893.116      37.53759       37.53759       37.53759       1.131832       2843.5967      190.77278     -1397.2481    
     72500   72500          601.06311     -1133.0849      24223.211      25099.949      8096.4888      17003.46       3589.2677      5545.2268     -3520.6149      272.41395     -1869.4304      44199.645     -31213.048     -356.46268      53055.606      37.57599       37.57599       37.57599       1.1283656      78.536275     -1837.5911     -1640.1999    
     73000   73000          596.75752     -98.075312      24978.913      25055.959      8038.4913      17017.468      3574.2033      5520.8418     -3599.8895      322.73177     -1768.3821      44189.055     -31221.093     -351.09906      53866.119      37.766369      37.766369      37.766369      1.1113873     -400.74608     -1265.8076      1372.3278    
     73500   73500          602.41659      41.952303      25283.973      25250.957      8114.7205      17136.236      3743.4524      5517.9499     -3624.3803      308.09077     -1824.5644      44220.297     -31204.609     -350.46141      53964.126      37.78926       37.78926       37.78926       1.1093689      513.42146      545.94479     -933.50934    
     74000   74000          598.87934     -733.42145      24619.069      25188.624      8067.0727      17121.551      3720.5436      5509.2366     -3597.251       301.47328     -1785.5316      44188.802     -31215.722     -355.17258      53248.32       37.62143       37.62143       37.62143       1.1242819     -1754.9441     -149.26665     -296.05356    
     74500   74500          603.7409       1230.7934      26107.399      25149.409      8132.5594      17016.849      3731.7997      5564.8519     -3712.647       290.17854     -1855.2369      44199.092     -31201.189     -354.36046      53370.355      37.650149      37.650149      37.650149      1.1217112      1653.4162      412.88563      1626.0785    
     75000   75000          604.60158     -1401.6927      24087.256      25182.206      8144.1529      17038.053      3780.7908      5469.7189     -3613.673       277.7051      -1840.4895      44170.594     -31206.594     -353.08549      53563.072      37.695412      37.695412      37.695412      1.1176753     -2317.7143      9.2677549     -1896.6314    
     75500   75500          587.36502      1752.951       26195.628      24839.729      7911.9717      16927.758      3756.514       5403.4882     -3708.3476      292.02822     -1861.9089      44252.784     -31206.801     -356.58563      53037.313      37.57167       37.57167       37.57167       1.1287548      742.33204      1784.7465      2731.7743    
     76000   76000          593.79711      182.2282       25003.932      24863.419      7998.6136      16864.806      3629.7277      5386.7643     -3671.5757      302.43621     -1768.048       44187.517     -31202.016     -357.70205      52871.779      37.532541      37.532541      37.532541      1.1322888      880.93897     -87.659036     -246.59534    
     76500   76500          597.80701     -1450.7473      24041.702      25184.387      8052.6282      17131.759      3842.7516      5505.636      -3674.3026      325.20823     -1818.3318      44144.414     -31193.617     -350.17613      54008.089      37.799519      37.799519      37.799519      1.1084659     -654.26582     -773.95455     -2924.0216    
     77000   77000          603.47874     -925.4916       24504.951      25230.433      8129.028       17101.405      3773.8318      5548.2635     -3720.861       256.79928     -1735.0763      44173.626     -31195.179     -351.85805      53749.924      37.739194      37.739194      37.739194      1.1137899     -2533.7806     -2087.7314      1845.0371    
     77500   77500          597.68909     -197.51143      24916.296      25071.554      8051.0398      17020.514      3755.9757      5350.5581     -3617.3859      303.23244     -1765.021       44190.375     -31197.221     -350.8819       53899.455      37.774158      37.774158      37.774158      1.1107        -1580.4652      2073.8916     -1085.9607    
     78000   78000          591.08194      184.59678      25126.629      24980.594      7962.0396      17018.554      3680.1812      5512.1316     -3649.7415      298.92939     -1764.0258      44145.753     -31204.673     -348.64821      54244.775      37.854656      37.854656      37.854656      1.1036293     -276.8317       727.54832      103.07371    
     78500   78500          606.371       -264.05411      24950.035      25156.283      8167.9875      16988.296      3771.5354      5419.3286     -3712.8288      249.57993     -1750.3115      44210.972     -31199.98      -353.12146      53557.616      37.694132      37.694132      37.694132      1.1177892      2275.5259     -2014.9199     -1052.7683    
     79000   79000          608.94136      1920.7176      26664.076      25184.811      8202.611       16982.2        3735.0947      5459.2376     -3688.1902      318.82288     -1797.3186      44158.89      -31204.337     -358.12823      52808.859      37.517647      37.517647      37.517647      1.1336379      2511.157       2757.08        493.91578    
     79500   79500          610.74081      1060.1095      26062.565      25232.786      8226.8501      17005.936      3706.0637      5510.1778     -3704.8749      306.34789     -1829.9931      44220.524     -31202.309     -352.37869      53670.509      37.720598      37.720598      37.720598      1.1154379      1216.6238      2183.4868     -219.78214    
     80000   80000          600.48078     -788.89225      24579.819      25203.469      8088.6446      17114.824      3697.0161      5589.3509     -3723.1743      300.24873     -1734.0048      44176.032     -31190.644     -348.89767      54205.99       37.845632      37.845632      37.845632      1.104419      -218.46935     -890.15021     -1258.0572    
     80500   80500          603.68442      1587.6551      26300.789      25062.891      8131.7986      16931.093      3667.8542      5358.2878     -3591.6036      299.47566     -1776.2159      44176.433     -31203.138     -353.74701      53462.907      37.6719        37.6719        37.6719        1.1197693      1580.7847      1236.0452      1946.1355    
     81000   81000          603.98104     -207.65041      24904.998      25067.511      8135.7941      16931.717      3643.9295      5433.6786     -3729.8564      299.50797     -1702.7195      44187.651     -31200.474     -352.42459      53663.519      37.71896       37.71896       37.71896       1.1155832     -476.83983     -183.67482      37.563413    
     81500   81500          602.91638      796.15093      25907.169      25278.813      8121.4529      17157.36       3804.9469      5544.6926     -3760.21        305.68701     -1734.0248      44195.543     -31199.275     -349.47061      54117.121      37.824938      37.824938      37.824938      1.1062326     -964.7359       2360.4865      992.70222    
     82000   82000          609.59557      2623.0161      27384.433      25336.378      8211.4234      17124.955      3620.6078      5656.7542     -3708.1002      283.48771     -1740.573       44218.331     -31205.552     -353.24878      53538.313      37.689603      37.689603      37.689603      1.1181922      5516.5166      1271.4692      1081.0624    
     82500   82500          601.6195      -6.4889471      25066.841      25071.886      8103.9835      16967.902      3651.775       5545.9303     -3712.0347      293.30488     -1769.0345      44153.95      -31195.989     -354.81481      53302.013      37.634071      37.634071      37.634071      1.1231494      2166.9239     -87.097218     -2099.2936    
     83000   83000          605.53116     -1566.2948      23887.776      25111.231      8156.6747      16954.556      3668.0092      5488.6836     -3691.479       304.87742     -1803.9321      44186.864     -31198.466     -353.10734      53559.757      37.694634      37.694634      37.694634      1.1177445     -1669.5021     -2655.7594     -373.6228     
     83500   83500          600.94793      123.18313      25176.366      25080.431      8094.9372      16985.494      3752.3896      5464.9315     -3703.2101      306.1135      -1797.5313      44172.664     -31209.863     -354.15762      53400.922      37.657335      37.657335      37.657335      1.1210691     -311.50882      1397.3601     -716.30188    
     84000   84000          608.95371      1628.0492      26577.55       25294.906      8202.7774      17092.129      3756.2507      5317.6875     -3572.074       278.40082     -1751.0783      44263.266     -31200.324     -350.09228      54021.024      37.802536      37.802536      37.802536      1.1082004      2386.2129      1115.0486      1382.886     
     84500   84500          611.73175      1381.966       26279.479      25198.497      8240.1983      16958.298      3548.3683      5546.8543     -3684.5719      280.96757     -1761.8867      44220.62      -31192.053     -352.61437      53634.637      37.712192      37.712192      37.712192      1.116184       2733.9434     -6.0676848      1418.0223    
     85000   85000          603.72665      2110.4762      26832.218      25197.535      8132.3674      17065.168      3806.7158      5416.9435     -3689.1185      287.5021      -1792.224       44230.496     -31195.147     -356.09697      53110.094      37.588849      37.588849      37.588849      1.127208       3846.5097      2086.5263      398.39248    
     85500   85500          600.39939     -2116.3821      23377.29       25034.551      8087.5483      16947.002      3755.1468      5465.7192     -3721.8439      303.50572     -1853.2258      44203.165     -31205.465     -352.2286       53693.378      37.725955      37.725955      37.725955      1.1149629     -2608.6923     -842.1713      -2898.2827    
     86000   86000          617.9871      -45.182853      25296.655      25332.243      8324.4597      17007.783      3690.7371      5346.0585     -3685.3818      316.15712     -1698.4534      44237.734     -31199.068     -350.18535      54006.667      37.799187      37.799187      37.799187      1.108495      -1985.6108     -201.68501      2051.7472    
     86500   86500          609.37402     -419.34848      24937.267      25269.127      8208.439       17060.688      3746.0578      5504.6681     -3680.1365      251.843       -1722.2108      44161.252     -31200.785     -348.53062      54263.076      37.858913      37.858913      37.858913      1.1032571     -167.45343     -31.500075     -1059.0919    
     87000   87000          606.74125     -222.23501      25033.832      25206.131      8172.9749      17033.157      3692.7225      5485.1501     -3697.8219      306.89624     -1768.2819      44226.539     -31212.048     -355.75314      53161.423      37.600954      37.600954      37.600954      1.1261196     -2164.9878     -102.2902       1600.573     
     87500   87500          607.5096      -687.12342      24560.079      25095.466      8183.3248      16912.141      3663.9092      5580.0415     -3724.4346      291.47995     -1858.1418      44159.785     -31200.498     -353.98759      53426.572      37.663364      37.663364      37.663364      1.1205309      1.0690065     -2018.1596     -44.279641    
     88000   88000          599.23339     -2122.5385      23441.506      25095.622      8071.8419      17023.781      3854.2444      5468.8281     -3662.4759      264.24225     -1841.0298      44150.711     -31210.739     -353.92452      53436.093      37.665601      37.665601      37.665601      1.1203312     -1641.4408     -3172.8494     -1553.3254    
     88500   88500          580.85972      168.19694      24830.274      24697.952      7824.3434      16873.609      3814.5817      5283.176      -3691.9978      289.65463     -1770.1916      44168.739     -31220.353     -350.597        53943.255      37.784387      37.784387      37.784387      1.1097981      942.53523      255.82684     -693.77125    
     89000   89000          599.33587     -67.657904      25070.074      25122.861      8073.2223      17049.639      3765.343       5499.213      -3673.878       290.90906     -1820.3203      44204.264     -31215.892     -353.5157       53497.888      37.680114      37.680114      37.680114      1.1190371     -1099.0772      651.49991      244.60362    
     89500   89500          605.91336      729.90567      25649.911      25079.031      8161.823       16917.208      3762.7418      5323.7456     -3710.0877      269.92877     -1730.963       44198.647     -31196.804     -352.64958      53629.281      37.710937      37.710937      37.710937      1.1162955      177.05572      3034.3984     -1021.7371    
     90000   90000          606.95704      1889.4736      26720.427      25250.299      8175.8817      17074.417      3780.6163      5407.5915     -3717.7006      301.26024     -1715.0222      44215.681     -31198.009     -354.49233      53350.501      37.64548       37.64548       37.64548       1.1221286      3168.8768      1922.8089      576.7353     
     90500   90500          613.6365       943.20279      26017.579      25275.255      8265.8558      17009.399      3744.4973      5458.9429     -3673.0711      287.23886     -1809.3214      44202.99      -31201.877     -350.45518      53965.085      37.789483      37.789483      37.789483      1.1093492      1024.7321      400.65159      1404.2246    
     91000   91000          598.79476      1797.0418      26556.657      25149.698      8065.9335      17083.764      3811.1513      5434.6994     -3604.7538      287.40487     -1856.4018      44218.614     -31206.949     -352.28802      53684.322      37.723834      37.723834      37.723834      1.1151509      2514.2086      1755.4987      1121.4181    
     91500   91500          601.84035      1150.1269      26049.516      25152.354      8106.9584      17045.396      3714.3111      5486.7649     -3568.4572      293.40599     -1845.7427      44170.228     -31205.114     -353.58689      53487.117      37.677585      37.677585      37.677585      1.1192625      1570.3196      3051.8369     -1171.7759    
     92000   92000          598.27688      1285.9584      26157.728      25143.897      8058.9575      17084.94       3828.5651      5492.807      -3725.8692      279.3724      -1684.9063      44101.141     -31206.171     -349.85049      54058.359      37.811243      37.811243      37.811243      1.1074351      1956.2577      549.33602      1352.2814    
     92500   92500          606.88776     -859.39425      24620.45       25301.27       8174.9485      17126.321      3746.8613      5467.6334     -3630.2575      297.5037      -1717.2502      44169.901     -31208.071     -348.16201      54320.526      37.872269      37.872269      37.872269      1.1020903      62.304317     -581.84957     -2058.6375    
     93000   93000          594.91835      873.59464      25635.721      24953.999      8013.7171      16940.282      3738.6091      5397.4592     -3675.1336      254.07135     -1788.7592      44215.296     -31201.261     -353.4467       53508.333      37.682566      37.682566      37.682566      1.1188187      458.59259      686.3976       1475.7937    
     93500   93500          603.5342      -1819.6027      23730.757      25165.661      8129.775       17035.886      3762.9722      5460.6098     -3656.0492      275.64004     -1796.1754      44184.231     -31195.342     -349.764        54071.727      37.814359      37.814359      37.814359      1.1071613     -2114.693      -2004.5236     -1339.5916    
     94000   94000          604.65999      1023.5302      26051.299      25253.564      8144.9398      17108.624      3747.6432      5434.0652     -3620.1417      316.0865      -1786.4053      44222.477     -31205.101     -353.8858       53441.94       37.666974      37.666974      37.666974      1.1202086      1735.6046      774.37959      560.60646    
     94500   94500          607.41911      72.802558      25292.724      25235.862      8182.1059      17053.756      3804.4974      5471.0534     -3683.5739      306.16393     -1800.5256      44156.988     -31200.847     -353.14077      53554.687      37.693445      37.693445      37.693445      1.1178503     -1744.1032      2490.6497     -528.1388     
     95000   95000          593.02211     -900.68337      24403.037      25107.051      7988.1743      17118.877      3774.0409      5368.3696     -3558.0028      316.05601     -1862.4544      44276.856     -31195.988     -352.86751      53596.16       37.703172      37.703172      37.703172      1.1169853     -1724.2982     -3558.8021      2581.0502    
     95500   95500          597.4109       515.44044      25730.9        25326.778      8047.2925      17279.486      3883.7851      5477.8362     -3655.6634      305.74442     -1715.5818      44179.478     -31196.113     -351.79295      53759.87       37.741521      37.741521      37.741521      1.1135838      687.79218      922.01785     -63.488697    
     96000   96000          609.50708      1066.441       26133.021      25302.206      8210.2314      17091.974      3669.8056      5590.8265     -3688.951       296.25044     -1833.7651      44249.051     -31191.243     -354.04077      53418.547      37.661478      37.661478      37.661478      1.1206992      179.17556      2647.8119      372.33541    
     96500   96500          604.31351     -1009.0182      24447.3        25236.074      8140.2725      17095.802      3846.3882      5399.5543     -3618.1058      342.49847     -1846.264       44170.286     -31198.556     -352.83182      53601.58       37.704443      37.704443      37.704443      1.1168723     -29.334506     -170.45834     -2827.2619    
     97000   97000          598.60945      64.914292      25249.63       25198.984      8063.4373      17135.547      3710.5181      5604.6987     -3590.5896      283.01936     -1902.4934      44223.058     -31192.664     -353.52238      53496.878      37.679877      37.679877      37.679877      1.1190583      207.45401      64.869301     -77.580434    
     97500   97500          601.90998      212.02146      25166.171      25002.579      8107.8963      16894.683      3818.7598      5392.6481     -3676.3049      285.45476     -1881.123       44147.65      -31192.402     -357.46864      52906.3        37.540708      37.540708      37.540708      1.13155        1976.101      -508.11416     -831.92245    
     98000   98000          605.37188      133.89623      25426.963      25321.845      8154.5291      17167.316      3799.8318      5627.3878     -3696.0753      265.3317      -1783.9943      44149.885     -31195.051     -351.32856      53830.93       37.758143      37.758143      37.758143      1.1121138      1965.1872     -95.610746     -1467.8877    
     98500   98500          613.64739      891.39099      26040.768      25339.586      8266.0025      17073.583      3706.0887      5583.9259     -3714.521       288.19153     -1799.5085      44206.634     -31197.227     -350.63753      53937.02       37.782931      37.782931      37.782931      1.1099264      2986.0524     -84.45097      -227.42845    
     99000   99000          592.9319      -5.2108502      24848.286      24852.367      7986.959       16865.408      3674.1451      5416.6406     -3711.5261      239.61861     -1731.7481      44176.201     -31197.923     -352.10903      53711.611      37.730225      37.730225      37.730225      1.1145844      622.71172      1050.0354     -1688.3797    
     99500   99500          608.47244     -1950.4153      23608.182      25126.569      8196.2945      16930.274      3690.711       5276.1769     -3502.1915      287.81224     -1908.201       44288.332     -31202.366     -354.29583      53380.091      37.652438      37.652438      37.652438      1.1215066     -3958.4193     -247.20187     -1645.6247    
    100000   100000         605.5029      -952.02315      24500.749      25241.148      8156.2939      17084.854      3805.7205      5412.7417     -3571.0568      264.54871     -1856.9846      44217.101     -31187.216     -354.6523       53326.436      37.639818      37.639818      37.639818      1.122635      -804.86038     -105.9688      -1945.2403    
    100500   100500         596.35984     -889.01662      24410.663      25100.625      8033.1344      17067.491      3740.5536      5447.3084     -3606.9028      273.57503     -1766.6459      44181.333     -31201.731     -355.39072      53215.637      37.613732      37.613732      37.613732      1.1249724     -1978.9615      778.8225      -1466.9108    
    101000   101000         589.16986     -160.04966      24832.488      24956.591      7936.2834      17020.308      3738.4985      5375.0851     -3600.8227      285.66697     -1784.5557      44210.807     -31204.372     -355.70898      53168.023      37.60251       37.60251       37.60251       1.1259798     -1359.9179     -400.38856      1280.1575    
    101500   101500         610.02753     -420.31091      24713.385      25042.128      8217.242       16824.886      3740.5275      5274.5584     -3684.4535      302.76706     -1790.4178      44183.245     -31201.34      -352.64246      53630.365      37.711191      37.711191      37.711191      1.1162729      321.5771      -1596.9994      14.489597    
    102000   102000         588.33981     -74.880324      25119.43       25178.485      7925.1023      17253.382      3666.4989      5524.355      -3569.1381      296.22384     -1689.355       44231.57      -31206.772     -349.73021      54076.951      37.815577      37.815577      37.815577      1.1070543     -1914.9462      1189.6721      500.63314    
    102500   102500         608.65057      1760.9085      26620.546      25237.48       8198.694       17038.786      3678.4798      5412.6429     -3654.0237      308.93725     -1683.5014      44176.933     -31200.682     -351.16815      53855.52       37.763892      37.763892      37.763892      1.1116061      824.22616      2451.6727      2006.8268    
    103000   103000         606.61903      65.390722      25346.866      25296.005      8171.3286      17124.677      3731.198       5518.4043     -3558.5814      322.76471     -1878.6397      44193.946     -31204.415     -354.61181      53332.525      37.641251      37.641251      37.641251      1.1225068      946.23567      1170.9998     -1921.0633    
    103500   103500         613.95448      1000.0339      26166.371      25381.453      8270.1391      17111.314      3726.9825      5450.3336     -3522.5048      276.84218     -1785.541       44154.166     -31188.965     -351.40785      53818.785      37.755303      37.755303      37.755303      1.1123648      2453.1345      737.47931     -190.51212    
[...]
   2479000   2479000        219.3145      -967.41333      13383.321      14059.975      2954.2279      11105.748      1702.7635      3302.7562     -4170.8551      115.55286     -2674.9941      44125.753     -31295.228     -394.33593      47959.981      36.332309      36.332309      36.332309      1.2482516     -2310.5647     -356.12777     -235.54747    
   2479500   2479500        223.47892     -1299.2991      13280.921      14188.854      3010.3238      11178.53       1743.5569      3288.4304     -4147.7524      109.5252      -2638.3552      44106.401     -31283.276     -394.70845      47914.716      36.320875      36.320875      36.320875      1.2494308     -2767.5937     -956.1086      -174.19512    
   2480000   2480000        219.96515      1605.9622      15245.593      14125.153      2962.9923      11162.161      1723.374       3340.4627     -4190.0208      103.18857     -2636.2347      44117.257     -31295.866     -395.33771      47838.451      36.301595      36.301595      36.301595      1.2514227      472.01139      1156.2796      3189.5957    
   2480500   2480500        218.60017     -1602.7658      12944.397      14066.408      2944.6056      11121.803      1774.6785      3321.9854     -4188.1287      100.86056     -2666.2533      44072.319     -31293.659     -393.99811      48001.102      36.34269       36.34269       36.34269       1.2471823     -1020.8501     -1568.9861     -2218.4612    
   2481000   2481000        219.77741     -427.35249      13750.431      14048.251      2960.4634      11087.787      1745.2456      3261.7066     -4189.0925      117.94458     -2653.0226      44103.99      -31298.984     -395.77992      47784.999      36.288069      36.288069      36.288069      1.2528225     -650.94403     -607.84843     -23.265021    
   2481500   2481500        216.06085     -783.37176      13495.105      14041.991      2910.4002      11131.59       1692.5396      3283.3012     -4145.6737      110.56748     -2629.1669      44114.557     -31294.534     -395.08713      47868.791      36.309267      36.309267      36.309267      1.2506295     -205.75762     -774.7019      -1369.6557    
   2482000   2482000        218.32032     -341.98112      13860.794      14100.862      2940.836       11160.026      1797.0565      3244.4848     -4186.1146      107.20912     -2574.506       44069.871     -31297.976     -392.90653      48134.46       36.376315      36.376315      36.376315      1.2437269     -342.38191     -266.1039      -417.45756    
   2482500   2482500        222.18545      547.94252      14476.835      14093.935      2992.9004      11101.035      1710.7603      3272.3463     -4193.8515      118.8309      -2614.6902      44102.227     -31294.587     -394.70348      47915.319      36.321028      36.321028      36.321028      1.2494151     -643.84855     -118.42065      2406.0968    
   2483000   2483000        219.67465      371.43624      14324.942      14065.434      2959.0792      11106.354      1731.4641      3271.6498     -4194.9935      99.619609     -2590.8293      44084.234     -31294.791     -394.77936      47906.11       36.318701      36.318701      36.318701      1.2496552      880.3554      -4.1119881      238.06531    
   2483500   2483500        217.44215     -333.6262       13767.34       14001.356      2929.0068      11072.349      1753.5189      3280.5245     -4228.1304      103.82807     -2628.0905      44088.413     -31297.714     -393.21913      48096.194      36.366673      36.366673      36.366673      1.2447164     -126.04034     -20.099466     -854.7388     
   2484000   2484000        219.39964     -386.48634      13782.982      14051.494      2955.3747      11096.119      1781.3873      3277.4052     -4186.6015      106.02199     -2651.1177      44067.192     -31298.168     -397.00211      47637.891      36.250793      36.250793      36.250793      1.2566913      122.76429     -790.83771     -491.38561    
   2484500   2484500        218.26297     -570.68345      13681.977      14080.276      2940.0635      11140.212      1753.3522      3317.3453     -4198.2999      113.28961     -2613.5296      44063.951     -31295.896     -395.19131      47856.172      36.306076      36.306076      36.306076      1.2509593     -1268.4413      737.10717     -1180.7162    
   2485000   2485000        217.93129     -116.89374      13974.592      14056.269      2935.5956      11120.673      1727.8796      3282.9483     -4174.8132      124.75583     -2639.3323      44095.457     -31296.222     -394.74354      47910.457      36.319799      36.319799      36.319799      1.2495419     -1164.151      -1135.3909      1948.8607    
   2485500   2485500        219.32311      1273.6102      14890.141      14000.846      2954.3439      11046.502      1732.3489      3256.8134     -4208.9537      111.77283     -2625.6329      44075.841     -31295.688     -395.01325      47877.744      36.311531      36.311531      36.311531      1.2503956     -137.85433      1241.981       2716.704     
   2486000   2486000        216.13375     -824.78776      13444.728      14021.232      2911.3823      11109.85       1771.415       3339.0453     -4207.5804      94.346746     -2691.9736      44100.442     -31295.845     -394.60332      47927.481      36.324101      36.324101      36.324101      1.249098      -1228.2928      1014.9832     -2261.0537    
   2486500   2486500        220.36207      1454.9183      15143.264      14122.784      2968.3389      11154.445      1800.3873      3338.4934     -4264.1703      105.29604     -2614.0817      44075.23      -31286.71      -393.23774      48093.917      36.366099      36.366099      36.366099      1.2447753      821.28953      1408.1949      2135.2705    
   2487000   2487000        219.62953      138.61577      14179.819      14083.183      2958.4714      11124.712      1788.7354      3348.3979     -4250.9039      100.70124     -2629.3661      44062.101     -31294.953     -395.63575      47802.413      36.292477      36.292477      36.292477      1.2523661     -647.81218      842.77328      220.88622    
   2487500   2487500        222.87045      894.09559      14655.135      14030.976      3002.1275      11028.849      1683.4371      3303.2723     -4224.747       104.00575     -2650.6143      44106.579     -31293.084     -395.10262      47866.914      36.308793      36.308793      36.308793      1.2506785      949.75935      581.66217      1150.8652    
   2488000   2488000        219.26179      1399.6764      14997.846      14022.846      2953.5178      11069.328      1672.5912      3265.3697     -4173.5552      112.02789     -2682.6938      44161.564     -31285.975     -395.95338      47764.066      36.28277       36.28277       36.28277       1.2533716      2313.2996      1103.9882      781.74145    
   2488500   2488500        219.90837      1544.9776      15106.873      14032.586      2962.2275      11070.358      1707.9315      3321.3424     -4201.7366      110.49491     -2654.7113      44086.69      -31299.652     -396.66419      47678.474      36.261084      36.261084      36.261084      1.2556216      2650.0879      1695.6957      289.14931    
   2489000   2489000        220.46802     -155.17257      14016.723      14126.08       2969.7662      11156.314      1722.3177      3322.6938     -4191.1813      109.10791     -2640.4659      44123.595     -31289.753     -391.37343      48323.013      36.423751      36.423751      36.423751      1.2388739     -669.88317     -1026.7881      1231.1536    
   2489500   2489500        223.7487       337.77267      14395.297      14158.857      3013.9577      11144.899      1717.3527      3346.6703     -4198.854       105.95172     -2652.7774      44115.484     -31288.928     -394.02587      47997.721      36.341837      36.341837      36.341837      1.2472701     -850.78606      2.3923201      1861.7117    
   2490000   2490000        225.15458      1170.4028      14993.614      14176.572      3032.8954      11143.677      1703.8085      3322.3176     -4214.2336      116.02242     -2590.6702      44098.885     -31292.453     -395.10459      47866.676      36.308733      36.308733      36.308733      1.2506848      2333.0563     -344.91686      1523.069     
   2490500   2490500        220.72708      640.55298      14548.343      14100.546      2973.2556      11127.291      1735.9738      3302.0219     -4210.2834      103.032       -2608.9715      44096.313     -31290.795     -394.54401      47934.686      36.325921      36.325921      36.325921      1.2489103      2447.2575     -896.97726      371.37872    
   2491000   2491000        217.02546      252.37375      14235.648      14059.239      2923.3938      11135.845      1800.0675      3273.1594     -4199.2645      108.39218     -2609.4983      44059.866     -31296.877     -394.58952      47929.158      36.324524      36.324524      36.324524      1.2490543     -705.70963      1126.8196      336.01127    
   2491500   2491500        221.22665     -1095.646       13343.92       14109.278      2979.9851      11129.292      1701.1099      3304.7612     -4169.0943      112.62876     -2642.2129      44107.905     -31285.806     -394.84531      47898.108      36.316678      36.316678      36.316678      1.249864      -271.5855      -1870.4035     -1144.9491    
   2492000   2492000        222.08018     -162.91864      14027.296      14141.474      2991.4824      11149.992      1704.5695      3322.0025     -4179.6418      114.58299     -2599.5322      44084.294     -31296.284     -393.55948      48054.6        36.356187      36.356187      36.356187      1.2457938      103.11004     -103.81799     -488.04796    
   2492500   2492500        216.89082     -359.95585      13763.512      14013.593      2921.5802      11092.013      1699.8868      3333.6196     -4172.9049      106.43774     -2661.1786      44084.301     -31298.149     -396.99888      47638.28       36.250891      36.250891      36.250891      1.256681      -301.07905     -669.84178     -108.94671    
   2493000   2493000        216.06317     -2675.9646      12176.867      14051.894      2910.4316      11141.462      1750.3914      3312.5878     -4195.5849      105.43667     -2653.5003      44116.564     -31294.433     -393.63548      48045.322      36.353847      36.353847      36.353847      1.2460344     -1931.8325     -2491.5805     -3604.4809    
   2493500   2493500        220.86006      472.77797      14374.663      14044.219      2975.0469      11069.173      1672.7613      3284.517      -4202.0164      104.24195     -2605.4213      44106.774     -31291.684     -394.62185      47925.231      36.323532      36.323532      36.323532      1.2491567     -681.7186       1986.1876      113.86488    
   2494000   2494000        217.63568     -614.55394      13640.588      14071.056      2931.6136      11139.442      1719.7198      3317.6709     -4181.6892      103.70289     -2650.2508      44118.78      -31288.491     -393.76825      48029.122      36.34976       36.34976       36.34976       1.2464547      781.77571     -2550.0279     -75.40962     
   2494500   2494500        221.85835     -157.20111      14019.473      14129.579      2988.4942      11141.085      1746.5385      3287.0013     -4210.2864      116.81657     -2608.4995      44097.53      -31288.016     -393.79271      48026.139      36.349008      36.349008      36.349008      1.2465321      497.17774      630.95936     -1599.7404    
   2495000   2495000        224.18776     -1825.8189      12828.784      14102.454      3019.872       11082.582      1652.564       3324.3514     -4166.3624      97.512589     -2630.59        44096.027     -31290.921     -395.38669      47832.525      36.300096      36.300096      36.300096      1.2515777     -3035.2118     -1118.1838     -1324.061     
   2495500   2495500        218.59737      642.29388      14532.122      14082.18       2944.5679      11137.612      1778.106       3291.5785     -4203.7559      111.65338     -2623.448       44080.139     -31296.661     -393.73034      48033.747      36.350927      36.350927      36.350927      1.2463346      626.48644      2056.1808     -755.78557    
   2496000   2496000        216.70365     -368.42987      13800.923      14059.343      2919.059       11140.284      1733.118       3269.2572     -4182.2513      127.15168     -2611.5054      44097.555     -31293.041     -393.23306      48094.49       36.366244      36.366244      36.366244      1.2447605     -1183.1834     -232.81055      310.70433    
   2496500   2496500        222.83187      329.26135      14300.985      14070.808      3001.6078      11069.2        1675.1936      3301.2707     -4164.4899      109.28485     -2667.984       44103.102     -31287.177     -394.54813      47934.186      36.325794      36.325794      36.325794      1.2489233      1232.0305      77.344619     -321.59111    
   2497000   2497000        218.4398       643.2702       14537.886      14089.283      2942.4454      11146.838      1746.3514      3324.824      -4213.0825      108.38767     -2643.0958      44114.939     -31291.486     -395.50557      47818.147      36.296458      36.296458      36.296458      1.251954      -795.68237      821.5458       1903.9472    
   2497500   2497500        224.35858      269.58153      14371.547      14183.928      3022.173       11161.755      1719.6217      3362.981      -4208.2069      110.68982     -2624.702       44097.532     -31296.161     -396.30828      47721.292      36.271936      36.271936      36.271936      1.254495       434.68943      963.55006     -589.49489    
   2498000   2498000        215.23955     -935.19478      13382.208      14034.37       2899.3371      11135.033      1763.7127      3318.4147     -4209.4825      117.00028     -2666.2256      44099.8       -31288.187     -395.51948      47816.465      36.296033      36.296033      36.296033      1.2519981     -1671.6705     -284.41305     -849.5008     
   2498500   2498500        217.75068     -619.57117      13584.011      14020.201      2933.1627      11087.038      1765.0845      3269.8215     -4192.5844      118.67358     -2644.7624      44063.596     -31292.791     -391.77494      48273.49       36.411304      36.411304      36.411304      1.2401449     -826.04867     -171.63292     -861.03191    
   2499000   2499000        218.8247       733.47715      14555.668      14044.319      2947.6301      11096.689      1746.4157      3277.7686     -4207.2648      113.653       -2626.5492      44087.936     -31295.27      -395.63106      47802.979      36.29262       36.29262       36.29262       1.2523513      1063.5489      286.32759      850.55497    
   2499500   2499500        221.82204      819.11452      14704.199      14133.206      2988.0051      11145.201      1709.6821      3316.6722     -4163.5915      110.58224     -2655.5003      44122.338     -31294.982     -395.67144      47798.101      36.291385      36.291385      36.291385      1.2524791      912.9165       1156.739       387.68806    
   2500000   2500000        223.71227      1249.6828      15044.444      14172.196      3013.4671      11158.729      1749.5945      3298.8477     -4215.3914      107.67902     -2592.3286      44102.472     -31292.144     -395.16746      47859.061      36.306807      36.306807      36.306807      1.2508838      384.82846      1525.4364      1838.7837    
Loop time of 1040.94 on 4 procs for 125000 steps with 4520 atoms

Performance: 10.375 ns/day, 2.313 hours/ns, 120.084 timesteps/s, 542.779 katom-step/s
93.7% CPU use with 4 MPI tasks x 1 OpenMP threads

MPI task timing breakdown:
Section |  min time  |  avg time  |  max time  |%varavg| %total
---------------------------------------------------------------
Pair    | 109.79     | 116.48     | 125.48     |  61.3 | 11.19
Bond    | 163.08     | 163.98     | 165.14     |   6.1 | 15.75
Kspace  | 471.42     | 472.45     | 473.26     |   3.3 | 45.39
Neigh   | 0.011777   | 0.012763   | 0.013694   |   0.6 |  0.00
Comm    | 21.624     | 21.69      | 21.759     |   1.4 |  2.08
Output  | 0.013105   | 0.016314   | 0.025802   |   4.3 |  0.00
Modify  | 238.43     | 250.33     | 259.07     |  55.5 | 24.05
Other   |            | 15.99      |            |       |  1.54

Nlocal:           1130 ave        1143 max        1114 min
Histogram: 1 0 0 0 1 0 0 1 0 1
Nghost:           8337 ave        8351 max        8317 min
Histogram: 1 0 0 0 0 1 0 0 1 1
Neighs:              0 ave           0 max           0 min
Histogram: 4 0 0 0 0 0 0 0 0 0

Total # of neighbors = 0
Ave neighs/atom = 0
Ave special neighs/atom = 5.5353982
Neighbor list builds = 3468
Dangerous builds = 0
  unfix npt_tg
  dump per_t_snap all atom 1 per_t_structs.dump
  dump_modify per_t_snap append yes
  run 0
WARNING: No fixes with time integration, atoms won't move
For more information see https://docs.lammps.org/err0028 (src/verlet.cpp:60)
PPPM initialization ...
  using 12-bit tables for long-range coulomb
  G vector (1/distance) = 0.33499443
  grid = 40 40 40
  stencil order = 5
  estimated absolute RMS force accuracy = 0.00041442841
  estimated relative force accuracy = 1.2480388e-06
  using double precision KISS FFT
  3d grid and FFT values/proc = 34263 16000
Generated 21 of 21 mixed pair_coeff terms from sixthpower/sixthpower mixing rule
Per MPI rank memory allocation (min/avg/max) = 16.79 | 16.79 | 16.79 Mbytes
   Step          Time           Temp          Press         Enthalpy        TotEng         KinEng         PotEng         E_bond        E_angle        E_dihed        E_impro         E_vdwl         E_coul         E_long         E_tail         Volume           Lx             Ly             Lz          Density          Pxx            Pyy            Pzz      
   2500000   2500000        223.71227      1249.6826      15044.442      14172.195      3013.4671      11158.728      1749.5945      3298.8477     -4215.3914      107.67902     -2592.3286      44096.736     -31286.409     -395.16746      47859.061      36.306807      36.306807      36.306807      1.2508838      384.8282       1525.4363      1838.7833    
Loop time of 2.73475e-06 on 4 procs for 0 steps with 4520 atoms

128.0% CPU use with 4 MPI tasks x 1 OpenMP threads

MPI task timing breakdown:
Section |  min time  |  avg time  |  max time  |%varavg| %total
---------------------------------------------------------------
Pair    | 0          | 0          | 0          |   0.0 |  0.00
Bond    | 0          | 0          | 0          |   0.0 |  0.00
Kspace  | 0          | 0          | 0          |   0.0 |  0.00
Neigh   | 0          | 0          | 0          |   0.0 |  0.00
Comm    | 0          | 0          | 0          |   0.0 |  0.00
Output  | 0          | 0          | 0          |   0.0 |  0.00
Modify  | 0          | 0          | 0          |   0.0 |  0.00
Other   |            | 2.735e-06  |            |       |100.00

Nlocal:           1130 ave        1141 max        1119 min
Histogram: 2 0 0 0 0 0 0 0 0 2
Nghost:        8338.75 ave        8349 max        8328 min
Histogram: 1 0 0 1 0 0 1 0 0 1
Neighs:              0 ave           0 max           0 min
Histogram: 4 0 0 0 0 0 0 0 0 0

Total # of neighbors = 0
Ave neighs/atom = 0
Ave special neighs/atom = 5.5353982
Neighbor list builds = 0
Dangerous builds = 0
  undump per_t_snap
  print "STAGE COMPLETE: Tg step T=${temps}K P=1.0atm steps=125000"
STAGE COMPLETE: Tg step T=220K P=1.0atm steps=125000
  next temps
  jump SELF TEMP_LOOP

write_data tg_step_out.data
System init for write_data ...
PPPM initialization ...
  using 12-bit tables for long-range coulomb
  G vector (1/distance) = 0.33499443
  grid = 40 40 40
  stencil order = 5
  estimated absolute RMS force accuracy = 0.00041442841
  estimated relative force accuracy = 1.2480388e-06
  using double precision KISS FFT
  3d grid and FFT values/proc = 34263 16000
Generated 21 of 21 mixed pair_coeff terms from sixthpower/sixthpower mixing rule
Total wall time: 9:52:40
