units real
atom_style full
boundary p p p

# --- Force Field Styles ---
pair_style lj/class2/coul/long 9.5 9.5
kspace_style pppm 1e-6
dielectric 1.000000
bond_style class2
angle_style class2
dihedral_style class2
improper_style class2
special_bonds lj/coul 0 0 1
pair_modify mix sixthpower tail yes
neighbor 2.0 bin
neigh_modify delay 0 every 1 check yes
neigh_modify one 4000
# KOKKOS: package loaded via -pk kokkos on the command line

read_data /home/arz2/PolyJarvis/data/PSU2/lammps/equil/npt_extend/npt_extend_out.data
Reading data file ...
  orthogonal box = (5.9813462 5.9813462 5.9813462) to (55.912235 55.912235 55.912235)
  1 by 1 by 1 MPI processor grid
  reading atoms ...
  10820 atoms
  reading velocities ...
  10820 velocities
  scanning bonds ...
  4 = max bonds/atom
  scanning angles ...
  16 = max angles/atom
  scanning dihedrals ...
  38 = max dihedrals/atom
  scanning impropers ...
  12 = max impropers/atom
  orthogonal box = (5.9813462 5.9813462 5.9813462) to (55.912235 55.912235 55.912235)
  1 by 1 by 1 MPI processor grid
  reading bonds ...
  11610 bonds
  reading angles ...
  19600 angles
  reading dihedrals ...
  29180 dihedrals
  reading impropers ...
  8000 impropers
Finding 1-2 1-3 1-4 neighbors ...
  special bond factors lj:    0        0        1       
  special bond factors coul:  0        0        1       
     4 = max # of 1-2 neighbors
    10 = max # of 1-3 neighbors
    14 = max # of special neighbors
  special bonds CPU = 0.006 seconds
  read_data CPU = 0.371 seconds
include /home/arz2/PolyJarvis/data/PSU2/lammps/equil/emc_build.params
# LAMMPS parameters created by EMC v9.4.4, build Jul 31 2025 20:33:44

# Variables

variable	seed		index	820419
variable	ntotal		index	10820
variable	fshape		index	1
variable	output		index	emc_build
variable	field		index	pcff/pcff
variable	location1	index	/home/arz2/emc/field/
variable	nav		index	0.6022141179
variable	temperature	index	300
variable	radius		index	5
variable	nrelax		index	100
variable	weight_nonbond	index	0.0001
variable	weight_bond	index	0.0001
variable	weight_focus	index	1
variable	cutoff		index	9.5
variable	charge_cutoff	index	9.5
variable	kappa		index	4
variable	density1	index	0.62
variable	lprevious	index	0
variable	lphase		index	61.8935814259
variable	f_poly		index	10
variable	chem_repeat	index	*Oc1ccc(C(C)(C)c2ccc(Oc3ccc(S(=O)(=O)c4ccc(*)cc4)cc3)cc2)cc1
variable	chem_cap	index	*[H]
variable	lg_repeat	index	54
variable	lg_cap		index	1
variable	norm_poly	index	100
variable	l_poly		index	1082
variable	mg_repeat	index	414.52744
variable	mg_cap		index	0
variable	m_poly		index	8290.5488
variable	n_poly		index	10
variable	mtotal		index	88527.7574
variable	nphase1		index	10820
variable	mphase1		index	88527.7574
variable	vphase1		index	237102.886232
variable	lbox		index	61.8935814259
variable	lphase1		index	61.8935814259
variable	lxx		index	61.8935814259
variable	lyy		index	61.8935814259
variable	lzz		index	61.8935814259
variable	lzy		index	0
variable	lzx		index	0
variable	lyx		index	0
variable	vtotal		index	237102.886232
variable	nl_poly		index	10

# Types

variable	type_c		index	1
variable	type_cp		index	2
variable	type_hc		index	3
variable	type_ho		index	4
variable	type_oe		index	5
variable	type_oc		index	6
variable	type_oh		index	7
variable	type_sf		index	8

variable	type_bond_c_c	index	1
variable	type_bond_c_cp	index	2
variable	type_bond_c_hc	index	3
variable	type_bond_cp_cp	index	4
variable	type_bond_cp_hc	index	5
variable	type_bond_cp_oc	index	6
variable	type_bond_cp_oh	index	7
variable	type_bond_cp_sf	index	8
variable	type_bond_ho_oh	index	9
variable	type_bond_oe_sf	index	10

variable	type_angle_c_c_c index	1
variable	type_angle_c_c_cp index	2
variable	type_angle_c_c_hc index	3
variable	type_angle_c_cp_cp index	4
variable	type_angle_cp_c_cp index	5
variable	type_angle_cp_cp_cp index	6
variable	type_angle_cp_cp_hc index	7
variable	type_angle_cp_cp_oc index	8
variable	type_angle_cp_cp_oh index	9
variable	type_angle_cp_cp_sf index	10
variable	type_angle_cp_oc_cp index	11
variable	type_angle_cp_oh_ho index	12
variable	type_angle_cp_sf_cp index	13
variable	type_angle_cp_sf_oe index	14
variable	type_angle_hc_c_hc index	15
variable	type_angle_oe_sf_oe index	16

# Clusters

variable	n0_poly		index	1
variable	n1_poly		index	10
variable	nl_poly		index	10

# Flags

variable	flag_charged	index	1

# Masses

mass		1    12.01115  # c
mass		2    12.01115  # cp
mass		3     1.00797  # hc
mass		4     1.00797  # ho
mass		5    15.99940  # o=
mass		6    15.99940  # oc
mass		7    15.99940  # oh
mass		8    32.06400  # sf

# Potentials

pair_modify	mix sixthpower tail yes
special_bonds	lj/coul 0 0 1

# Pair Coeffs

pair_coeff	 1  1    0.05400    4.01000  # c,c
pair_coeff	 2  2    0.06400    4.01000  # cp,cp
pair_coeff	 3  3    0.02000    2.99500  # hc,hc
pair_coeff	 4  4    0.01300    1.09800  # ho,ho
pair_coeff	 5  5    0.06000    3.53500  # o=,o=
pair_coeff	 6  6    0.24000    3.53500  # oc,oc
pair_coeff	 7  7    0.24000    3.53500  # oh,oh
pair_coeff	 8  8    0.25000    4.02700  # sf,sf

# Bond Coeffs

bond_coeff	 1    1.53000  299.67000 -501.77000  679.81000  # c,c
bond_coeff	 2    1.50100  321.90210 -521.82080  572.16280  # c,cp
bond_coeff	 3    1.10100  345.00000 -691.89000  844.60000  # c,hc
bond_coeff	 4    1.41700  470.83610 -627.61790 1327.63450  # cp,cp
bond_coeff	 5    1.09820  372.82510 -803.45260  894.31730  # cp,hc
bond_coeff	 6    1.37680  428.87980 -738.23510 1114.96550  # cp,oc
bond_coeff	 7    1.37680  428.87980 -738.23510 1114.96550  # cp,oh
bond_coeff	 8    1.72000  239.80240    0.00000    0.00000  # cp,sf
bond_coeff	 9    0.96500  532.50620 -1282.90500 2004.76580  # ho,oh
bond_coeff	10    1.43080  743.76000    0.00000    0.00000  # o=,sf

# Angle Coeffs

angle_coeff	 1  112.67000   39.51600   -7.44300   -9.55830  # c,c,c
angle_coeff	 2  108.40000   43.95940   -8.39240   -9.33790  # c,c,cp
angle_coeff	 3  110.77000   41.45300  -10.60400    5.12900  # c,c,hc
angle_coeff	 4  120.05000   44.71480  -22.73520    0.00000  # c,cp,cp
angle_coeff	 5  111.00000   44.32340   -9.44540    0.00000  # cp,c,cp
angle_coeff	 6  118.90000   61.02260  -34.99310    0.00000  # cp,cp,cp
angle_coeff	 7  117.94000   35.15580  -12.46820    0.00000  # cp,cp,hc
angle_coeff	 8  123.42000   73.67810  -21.67870    0.00000  # cp,cp,oc
angle_coeff	 9  123.42000   73.67810  -21.67870    0.00000  # cp,cp,oh
angle_coeff	10  120.00000   60.00000    0.00000    0.00000  # cp,cp,sf
angle_coeff	11  109.50000   60.00000    0.00000    0.00000  # cp,oc,cp
angle_coeff	12  108.19000   53.12500   -8.50160    0.00000  # cp,oh,ho
angle_coeff	13  102.00000   58.00000    0.00000    0.00000  # cp,sf,cp
angle_coeff	14  113.10000   42.30000    0.00000    0.00000  # cp,sf,o=
angle_coeff	15  107.66000   39.64100  -12.92100   -2.43180  # hc,c,hc
angle_coeff	16  119.32900  135.00000    0.00000    0.00000  # o=,sf,o=

# BondBond Coeffs

angle_coeff	 1 bb    0.00000    1.53000    1.53000  # c,c,c
angle_coeff	 2 bb    0.00000    1.53000    1.50100  # c,c,cp
angle_coeff	 3 bb    3.38720    1.53000    1.10100  # c,c,hc
angle_coeff	 4 bb   12.06760    1.50100    1.41700  # c,cp,cp
angle_coeff	 5 bb    0.00000    1.50100    1.50100  # cp,c,cp
angle_coeff	 6 bb   68.28560    1.41700    1.41700  # cp,cp,cp
angle_coeff	 7 bb    1.07950    1.41700    1.09820  # cp,cp,hc
angle_coeff	 8 bb   48.47540    1.41700    1.37680  # cp,cp,oc
angle_coeff	 9 bb   48.47540    1.41700    1.37680  # cp,cp,oh
angle_coeff	10 bb    0.00000    1.41700    1.72000  # cp,cp,sf
angle_coeff	11 bb    0.00000    1.37680    1.37680  # cp,oc,cp
angle_coeff	12 bb   20.65770    1.37680    0.96500  # cp,oh,ho
angle_coeff	13 bb    0.00000    1.72000    1.72000  # cp,sf,cp
angle_coeff	14 bb    0.00000    1.72000    1.43080  # cp,sf,o=
angle_coeff	15 bb    5.33160    1.10100    1.10100  # hc,c,hc
angle_coeff	16 bb   40.00000    1.43080    1.43080  # o=,sf,o=

# BondAngle Coeffs

angle_coeff	 1 ba    8.01600    8.01600    1.53000    1.53000  # c,c,c
angle_coeff	 2 ba    0.00000    0.00000    1.53000    1.50100  # c,c,cp
angle_coeff	 3 ba   20.75400   11.42100    1.53000    1.10100  # c,c,hc
angle_coeff	 4 ba   47.05790   31.07710    1.50100    1.41700  # c,cp,cp
angle_coeff	 5 ba    0.00000    0.00000    1.50100    1.50100  # cp,c,cp
angle_coeff	 6 ba   28.87080   28.87080    1.41700    1.41700  # cp,cp,cp
angle_coeff	 7 ba   20.00330   24.21830    1.41700    1.09820  # cp,cp,hc
angle_coeff	 8 ba   58.47900  107.68060    1.41700    1.37680  # cp,cp,oc
angle_coeff	 9 ba   58.47900  107.68060    1.41700    1.37680  # cp,cp,oh
angle_coeff	10 ba    0.00000    0.00000    1.41700    1.72000  # cp,cp,sf
angle_coeff	11 ba    0.00000    0.00000    1.37680    1.37680  # cp,oc,cp
angle_coeff	12 ba   53.86140   23.92240    1.37680    0.96500  # cp,oh,ho
angle_coeff	13 ba    0.00000    0.00000    1.72000    1.72000  # cp,sf,cp
angle_coeff	14 ba    0.00000    0.00000    1.72000    1.43080  # cp,sf,o=
angle_coeff	15 ba   18.10300   18.10300    1.10100    1.10100  # hc,c,hc
angle_coeff	16 ba    0.00000    0.00000    1.43080    1.43080  # o=,sf,o=

# Dihedral Coeffs

dihedral_coeff	 1    0.00000    0.00000    0.03160    0.00000   -0.16810    0.00000  # c,c,c,hc
dihedral_coeff	 2   -0.28020    0.00000   -0.06780    0.00000   -0.01220    0.00000  # c,c,cp,cp
dihedral_coeff	 3    0.00000    0.00000    4.40720    0.00000    0.00000    0.00000  # c,cp,cp,cp
dihedral_coeff	 4    0.00000    0.00000    1.55900    0.00000    0.00000    0.00000  # c,cp,cp,hc
dihedral_coeff	 5   -0.02280    0.00000    0.02800    0.00000   -0.18630    0.00000  # cp,c,c,hc
dihedral_coeff	 6   -0.28020    0.00000   -0.06780    0.00000   -0.01220    0.00000  # cp,c,cp,cp
dihedral_coeff	 7    8.36670    0.00000    1.19320    0.00000    0.00000    0.00000  # cp,cp,cp,cp
dihedral_coeff	 8    0.00000    0.00000    3.96610    0.00000    0.00000    0.00000  # cp,cp,cp,hc
dihedral_coeff	 9    0.00000    0.00000    4.84980    0.00000    0.00000    0.00000  # cp,cp,cp,oc
dihedral_coeff	10    0.00000    0.00000    4.84980    0.00000    0.00000    0.00000  # cp,cp,cp,oh
dihedral_coeff	11    0.00000    0.00000    3.00000    0.00000    0.00000    0.00000  # cp,cp,cp,sf
dihedral_coeff	12    0.00000    0.00000    1.80000    0.00000    0.00000    0.00000  # cp,cp,oc,cp
dihedral_coeff	13   -0.69000    0.00000    0.50970    0.00000    0.00950    0.00000  # cp,cp,oh,ho
dihedral_coeff	14    0.00000    0.00000    1.50000    0.00000    0.00000    0.00000  # cp,cp,sf,cp
dihedral_coeff	15    0.00000    0.00000    1.50000    0.00000    0.00000    0.00000  # cp,cp,sf,o=
dihedral_coeff	16    0.00000    0.00000    1.87690    0.00000    0.00000    0.00000  # hc,cp,cp,hc
dihedral_coeff	17    0.00000    0.00000    1.72340    0.00000    0.00000    0.00000  # hc,cp,cp,oc
dihedral_coeff	18    0.00000    0.00000    1.72340    0.00000    0.00000    0.00000  # hc,cp,cp,oh
dihedral_coeff	19    0.00000    0.00000    3.00000    0.00000    0.00000    0.00000  # hc,cp,cp,sf

# MiddleBondTorsion Coeffs

dihedral_coeff	 1 mbt  -14.87900   -3.65810   -0.31380    1.53000  # c,c,c,hc
dihedral_coeff	 2 mbt    0.00000    0.00000    0.00000    1.50100  # c,c,cp,cp
dihedral_coeff	 3 mbt    0.00000    9.17920    0.00000    1.41700  # c,cp,cp,cp
dihedral_coeff	 4 mbt    0.00000    3.94210    0.00000    1.41700  # c,cp,cp,hc
dihedral_coeff	 5 mbt    0.00000    0.00000    0.00000    1.53000  # cp,c,c,hc
dihedral_coeff	 6 mbt    0.00000    0.00000    0.00000    1.50100  # cp,c,cp,cp
dihedral_coeff	 7 mbt   27.59890   -2.31200    0.00000    1.41700  # cp,cp,cp,cp
dihedral_coeff	 8 mbt    0.00000   -1.15210    0.00000    1.41700  # cp,cp,cp,hc
dihedral_coeff	 9 mbt    0.00000    4.82550    0.00000    1.41700  # cp,cp,cp,oc
dihedral_coeff	10 mbt    0.00000    4.82550    0.00000    1.41700  # cp,cp,cp,oh
dihedral_coeff	11 mbt    0.00000    0.00000    0.00000    1.41700  # cp,cp,cp,sf
dihedral_coeff	12 mbt    0.00000    0.00000    0.00000    1.37680  # cp,cp,oc,cp
dihedral_coeff	13 mbt    1.15800    3.26970    3.51320    1.37680  # cp,cp,oh,ho
dihedral_coeff	14 mbt    0.00000    0.00000    0.00000    1.72000  # cp,cp,sf,cp
dihedral_coeff	15 mbt    0.00000    0.00000    0.00000    1.72000  # cp,cp,sf,o=
dihedral_coeff	16 mbt    0.00000    4.82280    0.00000    1.41700  # hc,cp,cp,hc
dihedral_coeff	17 mbt    0.00000    5.54320    0.00000    1.41700  # hc,cp,cp,oc
dihedral_coeff	18 mbt    0.00000    5.54320    0.00000    1.41700  # hc,cp,cp,oh
dihedral_coeff	19 mbt    0.00000    0.00000    0.00000    1.41700  # hc,cp,cp,sf

# EndBondTorsion Coeffs

dihedral_coeff	 1 ebt    0.24860    0.24220   -0.09250    0.08140    0.05910    0.22190    1.53000    1.10100  # c,c,c,hc
dihedral_coeff	 2 ebt    0.00000    0.00000    0.00000    0.00000    0.00000    0.00000    1.53000    1.41700  # c,c,cp,cp
dihedral_coeff	 3 ebt    0.00000    0.24210    0.00000    0.00000   -0.69180    0.00000    1.50100    1.41700  # c,cp,cp,cp
dihedral_coeff	 4 ebt    0.00000   -1.79700    0.00000    0.00000   -0.48790    0.00000    1.50100    1.09820  # c,cp,cp,hc
dihedral_coeff	 5 ebt    0.00000    0.00000    0.00000    0.00000    0.00000    0.00000    1.50100    1.10100  # cp,c,c,hc
dihedral_coeff	 6 ebt    0.00000    0.00000    0.00000    0.00000    0.00000    0.00000    1.50100    1.41700  # cp,c,cp,cp
dihedral_coeff	 7 ebt   -0.11850    6.32040    0.00000   -0.11850    6.32040    0.00000    1.41700    1.41700  # cp,cp,cp,cp
dihedral_coeff	 8 ebt    0.00000   -6.89580    0.00000    0.00000   -0.46690    0.00000    1.41700    1.09820  # cp,cp,cp,hc
dihedral_coeff	 9 ebt    0.00000    0.26550    0.00000    0.00000    4.89050    0.00000    1.41700    1.37680  # cp,cp,cp,oc
dihedral_coeff	10 ebt    0.00000    0.26550    0.00000    0.00000    4.89050    0.00000    1.41700    1.37680  # cp,cp,cp,oh
dihedral_coeff	11 ebt    0.00000    0.00000    0.00000    0.00000    0.00000    0.00000    1.41700    1.72000  # cp,cp,cp,sf
dihedral_coeff	12 ebt    0.00000    0.00000    0.00000    0.00000    0.00000    0.00000    1.41700    1.37680  # cp,cp,oc,cp
dihedral_coeff	13 ebt    0.90000   -1.34560    1.19000    3.41320    0.58730   -0.13230    1.41700    0.96500  # cp,cp,oh,ho
dihedral_coeff	14 ebt    0.00000    0.00000    0.00000    0.00000    0.00000    0.00000    1.41700    1.72000  # cp,cp,sf,cp
dihedral_coeff	15 ebt    0.00000    0.00000    0.00000    0.00000    0.00000    0.00000    1.41700    1.43080  # cp,cp,sf,o=
dihedral_coeff	16 ebt    0.00000   -0.68900    0.00000    0.00000   -0.68900    0.00000    1.09820    1.09820  # hc,cp,cp,hc
dihedral_coeff	17 ebt    0.00000   -1.58670    0.00000    0.00000    4.26410    0.00000    1.09820    1.37680  # hc,cp,cp,oc
dihedral_coeff	18 ebt    0.00000   -1.58670    0.00000    0.00000    4.26410    0.00000    1.09820    1.37680  # hc,cp,cp,oh
dihedral_coeff	19 ebt    0.00000    0.00000    0.00000    0.00000    0.00000    0.00000    1.09820    1.72000  # hc,cp,cp,sf

# AngleTorsion Coeffs

dihedral_coeff	 1 at   -0.24540    0.00000   -0.11360    0.31130    0.45160   -0.19880  112.67000  110.77000  # c,c,c,hc
dihedral_coeff	 2 at    0.00000    0.00000    0.00000    0.00000    0.00000    0.00000  108.40000  120.05000  # c,c,cp,cp
dihedral_coeff	 3 at    0.00000   -4.46830    0.00000    0.00000    3.89870    0.00000  120.05000  118.90000  # c,cp,cp,cp
dihedral_coeff	 4 at    0.00000   -0.12420    0.00000    0.00000    3.46010    0.00000  120.05000  117.94000  # c,cp,cp,hc
dihedral_coeff	 5 at    0.00000    0.00000    0.00000    0.00000    0.00000    0.00000  108.40000  110.77000  # cp,c,c,hc
dihedral_coeff	 6 at    0.00000    0.00000    0.00000    0.00000    0.00000    0.00000  111.00000  120.05000  # cp,c,cp,cp
dihedral_coeff	 7 at    1.97670    1.02390    0.00000    1.97670    1.02390    0.00000  118.90000  118.90000  # cp,cp,cp,cp
dihedral_coeff	 8 at    0.00000    2.50140    0.00000    0.00000    2.71470    0.00000  118.90000  117.94000  # cp,cp,cp,hc
dihedral_coeff	 9 at    0.00000   10.01550    0.00000    0.00000    1.74040    0.00000  118.90000  123.42000  # cp,cp,cp,oc
dihedral_coeff	10 at    0.00000   10.01550    0.00000    0.00000    1.74040    0.00000  118.90000  123.42000  # cp,cp,cp,oh
dihedral_coeff	11 at    0.00000    0.00000    0.00000    0.00000    0.00000    0.00000  118.90000  120.00000  # cp,cp,cp,sf
dihedral_coeff	12 at    0.00000    0.00000    0.00000    0.00000    0.00000    0.00000  123.42000  109.50000  # cp,cp,oc,cp
dihedral_coeff	13 at   -5.13600   -1.01220    0.00000    4.68520    0.02300   -0.59800  123.42000  108.19000  # cp,cp,oh,ho
dihedral_coeff	14 at    0.00000    0.00000    0.00000    0.00000    0.00000    0.00000  120.00000  102.00000  # cp,cp,sf,cp
dihedral_coeff	15 at    0.00000    0.00000    0.00000    0.00000    0.00000    0.00000  120.00000  113.10000  # cp,cp,sf,o=
dihedral_coeff	16 at    0.00000    2.45010    0.00000    0.00000    2.45010    0.00000  117.94000  117.94000  # hc,cp,cp,hc
dihedral_coeff	17 at    0.00000    1.87290    0.00000    0.00000    2.57060    0.00000  117.94000  123.42000  # hc,cp,cp,oc
dihedral_coeff	18 at    0.00000    1.87290    0.00000    0.00000    2.57060    0.00000  117.94000  123.42000  # hc,cp,cp,oh
dihedral_coeff	19 at    0.00000    0.00000    0.00000    0.00000    0.00000    0.00000  117.94000  120.00000  # hc,cp,cp,sf

# AngleAngleTorsion Coeffs

dihedral_coeff	 1 aat  -16.16400  112.67000  110.77000  # c,c,c,hc
dihedral_coeff	 2 aat    0.00000  108.40000  120.05000  # c,c,cp,cp
dihedral_coeff	 3 aat  -14.40970  120.05000  118.90000  # c,cp,cp,cp
dihedral_coeff	 4 aat    4.44440  120.05000  117.94000  # c,cp,cp,hc
dihedral_coeff	 5 aat    0.00000  108.40000  110.77000  # cp,c,c,hc
dihedral_coeff	 6 aat    0.00000  111.00000  120.05000  # cp,c,cp,cp
dihedral_coeff	 7 aat    0.00000  118.90000  118.90000  # cp,cp,cp,cp
dihedral_coeff	 8 aat   -4.81410  118.90000  117.94000  # cp,cp,cp,hc
dihedral_coeff	 9 aat  -21.02470  118.90000  123.42000  # cp,cp,cp,oc
dihedral_coeff	10 aat  -21.02470  118.90000  123.42000  # cp,cp,cp,oh
dihedral_coeff	11 aat    0.00000  118.90000  120.00000  # cp,cp,cp,sf
dihedral_coeff	12 aat    0.00000  123.42000  109.50000  # cp,cp,oc,cp
dihedral_coeff	13 aat   -4.60720  123.42000  108.19000  # cp,cp,oh,ho
dihedral_coeff	14 aat    0.00000  120.00000  102.00000  # cp,cp,sf,cp
dihedral_coeff	15 aat    0.00000  120.00000  113.10000  # cp,cp,sf,o=
dihedral_coeff	16 aat    0.35980  117.94000  117.94000  # hc,cp,cp,hc
dihedral_coeff	17 aat    4.22960  117.94000  123.42000  # hc,cp,cp,oc
dihedral_coeff	18 aat    4.22960  117.94000  123.42000  # hc,cp,cp,oh
dihedral_coeff	19 aat    0.00000  117.94000  120.00000  # hc,cp,cp,sf

# BondBond13 Coeffs

dihedral_coeff	 1 bb13    0.00000    1.53000    1.10100  # c,c,c,hc
dihedral_coeff	 2 bb13    0.00000    1.53000    1.41700  # c,c,cp,cp
dihedral_coeff	 3 bb13    2.50850    1.50100    1.41700  # c,cp,cp,cp
dihedral_coeff	 4 bb13    0.87430    1.50100    1.09820  # c,cp,cp,hc
dihedral_coeff	 5 bb13    0.00000    1.50100    1.10100  # cp,c,c,hc
dihedral_coeff	 6 bb13    0.00000    1.50100    1.41700  # cp,c,cp,cp
dihedral_coeff	 7 bb13   53.00000    1.41700    1.41700  # cp,cp,cp,cp
dihedral_coeff	 8 bb13   -6.27410    1.41700    1.09820  # cp,cp,cp,hc
dihedral_coeff	 9 bb13   -2.24360    1.41700    1.37680  # cp,cp,cp,oc
dihedral_coeff	10 bb13   -2.24360    1.41700    1.37680  # cp,cp,cp,oh
dihedral_coeff	11 bb13    0.00000    1.41700    1.72000  # cp,cp,cp,sf
dihedral_coeff	12 bb13    0.00000    1.41700    1.37680  # cp,cp,oc,cp
dihedral_coeff	13 bb13    1.15900    1.41700    0.96500  # cp,cp,oh,ho
dihedral_coeff	14 bb13    0.00000    1.41700    1.72000  # cp,cp,sf,cp
dihedral_coeff	15 bb13    0.00000    1.41700    1.43080  # cp,cp,sf,o=
dihedral_coeff	16 bb13   -1.70770    1.09820    1.09820  # hc,cp,cp,hc
dihedral_coeff	17 bb13    2.05170    1.09820    1.37680  # hc,cp,cp,oc
dihedral_coeff	18 bb13    2.05170    1.09820    1.37680  # hc,cp,cp,oh
dihedral_coeff	19 bb13    0.00000    1.09820    1.72000  # hc,cp,cp,sf

# Improper Coeffs

improper_coeff	 1    0.00000    0.00000  # c,c,c,cp
improper_coeff	 2    0.00000    0.00000  # c,c,cp,cp
improper_coeff	 3    0.00000    0.00000  # c,c,hc,hc
improper_coeff	 4    0.00000    0.00000  # c,hc,hc,hc
improper_coeff	 5    7.81530    0.00000  # cp,c,cp,cp
improper_coeff	 6    4.89120    0.00000  # cp,cp,cp,hc
improper_coeff	 7   13.04210    0.00000  # cp,cp,cp,oc
improper_coeff	 8   13.04210    0.00000  # cp,cp,cp,oh
improper_coeff	 9    0.00000    0.00000  # cp,cp,cp,sf
improper_coeff	10    0.00000    0.00000  # sf,cp,cp,o=
improper_coeff	11    0.00000    0.00000  # sf,cp,o=,o=

# AngleAngle Coeffs

improper_coeff	 1 aa    0.00000    0.00000    0.00000  112.67000  108.40000  108.40000  # c,c,c,cp
improper_coeff	 2 aa    0.00000    0.00000    0.00000  108.40000  108.40000  111.00000  # c,c,cp,cp
improper_coeff	 3 aa    0.27380   -0.48250    0.27380  110.77000  110.77000  107.66000  # c,c,hc,hc
improper_coeff	 4 aa   -0.31570   -0.31570   -0.31570  107.66000  107.66000  107.66000  # c,hc,hc,hc
improper_coeff	 5 aa    0.00000    0.00000    0.00000  120.05000  120.05000  118.90000  # cp,c,cp,cp
improper_coeff	 6 aa    0.00000    0.00000    0.00000  118.90000  117.94000  117.94000  # cp,cp,cp,hc
improper_coeff	 7 aa    0.00000    0.00000    0.00000  118.90000  123.42000  123.42000  # cp,cp,cp,oc
improper_coeff	 8 aa    0.00000    0.00000    0.00000  118.90000  123.42000  123.42000  # cp,cp,cp,oh
improper_coeff	 9 aa    0.00000    0.00000    0.00000  118.90000  120.00000  120.00000  # cp,cp,cp,sf
improper_coeff	10 aa    0.00000    0.00000    0.00000  102.00000  113.10000  113.10000  # sf,cp,cp,o=
improper_coeff	11 aa    0.00000    0.00000    0.00000  113.10000  113.10000  119.32900  # sf,cp,o=,o=


# --- Thermo Output ---
thermo_style custom step time temp press enthalpy etotal ke pe ebond eangle edihed eimp evdwl ecoul elong etail vol lx ly lz density pxx pyy pzz
thermo_modify flush yes
thermo 500

# --- Velocity initialization at T_START (once only — Rule A) ---
velocity all create 750.0 49955 mom yes rot yes dist gaussian

# --- Temperature staircase (inherits momenta across steps — Rule A) ---
variable temps index 750 730 710 690 670 650 630 610 590 570 550 530 510 490 470 450 430 410 390 370 350 330 310 290 270 250
label TEMP_LOOP
  timestep 1
  fix npt_tg all npt temp ${temps} ${temps} 100 iso 1.0 1.0 1000.0
  fix npt_tg all npt temp 750 ${temps} 100 iso 1.0 1.0 1000.0
  fix npt_tg all npt temp 750 750 100 iso 1.0 1.0 1000.0
  run 50000
PPPM Kokkos initialization ...
  using 12-bit tables for long-range coulomb
  G vector (1/distance) = 0.30191443
  grid = 36 36 36
  stencil order = 5
  estimated absolute RMS force accuracy = 0.00029044865
  estimated relative force accuracy = 8.7467747e-07
  using double precision cuFFT
  3d grid and FFT values/proc = 79507 46656
Generated 28 of 28 mixed pair_coeff terms from sixthpower/sixthpower mixing rule
Neighbor list info ...
  update: every = 1 steps, delay = 0 steps, check = yes
  max neighbors/atom: 4000, page size: 100000
  master list distance cutoff = 11.5
  ghost atom cutoff = 11.5
  binsize = 11.5, bins = 5 5 5
  1 neighbor lists, perpetual/occasional/extra = 1 0 0
  (1) pair lj/class2/coul/long/kk, perpetual
      attributes: full, newton off, kokkos_device
      pair build: full/bin/kk/device
      stencil: full/bin/3d
      bin: kk/device
Per MPI rank memory allocation (min/avg/max) = 63.61 | 63.61 | 63.61 Mbytes
   Step          Time           Temp          Press         Enthalpy        TotEng         KinEng         PotEng         E_bond        E_angle        E_dihed        E_impro         E_vdwl         E_coul         E_long         E_tail         Volume           Lx             Ly             Lz          Density          Pxx            Pyy            Pzz      
         0   0              750            5726.4209      49232.538      38836.519      24187.038      14649.481      4911.6004      5119.9155      3722.403       378.2402      -440.05572      8148.7202     -7191.3425     -878.4708       124482.38      49.930889      49.930889      49.930889      1.1809204      4478.8406      5782.8981      6917.524     
       500   500            695.04206      1380.4353      52862.227      50264.701      22414.678      27850.022      9643.3745      8794.5133      6853.4738      847.75434      712.55405      8174.2479     -7175.8955     -847.55349      129023.29      50.530784      50.530784      50.530784      1.1393585      1371.1058      1593.4242      1176.7758    
      1000   1000           752.02275     -1431.2702      51410.556      54186.856      24252.27       29934.586      10213.021      9300.6398      7500.6376      934.25659      960.64603      8193.9284     -7168.5435     -822.17891      133005.28      51.045363      51.045363      51.045363      1.1052477     -1314.6015     -293.05745     -2686.1516    
      1500   1500           750.73681      647.25682      56114.811      54842.017      24210.8        30631.218      10629.298      9438.164       7450.46        959.42711      1106.5371      8209.2746     -7161.9426     -811.01669      134835.87      51.27848       51.27848       51.27848       1.0902424      529.31526      280.64597      1131.8092    
      2000   2000           752.91129     -526.81922      53517.638      54559.645      24280.925      30278.72       10377.61       9567.1272      7340.6559      948.47744      1004.8881      8206.2632     -7166.3024     -806.31034      135622.89      51.378056      51.378056      51.378056      1.0839157     -896.4223       805.29291     -1489.3283    
      2500   2500           743.09349     -1024.0827      52038.342      54066.6        23964.307      30102.293      10288.338      9363.3447      7349.0685      946.04186      1134.6635      8186.1266     -7165.2899     -805.23557      135803.91      51.400904      51.400904      51.400904      1.0824709     -585.49933     -965.73715     -1521.0117    
      3000   3000           745.36018      484.14003      54994.935      54034.5        24037.407      29997.094      10319.715      9348.1102      7252.4546      938.43333      1099.6933      8207.7184     -7169.0308     -803.92269      136025.69      51.42887       51.42887       51.42887       1.080706       102.14989      571.30791      778.9623     
      3500   3500           753.61144     -260.55713      53886.978      54407.619      24303.505      30104.115      10249.514      9281.39        7380.0767      995.06829      1140.9709      8214.6562     -7157.5612     -798.13304      137012.42      51.552925      51.552925      51.552925      1.0729231      231.63648     -2378.4268      1365.119     
      4000   4000           752.63447      867.10308      56338.773      54607.683      24271.998      30335.685      10310.934      9361.7543      7470.0359      952.07364      1214.687       8192.4727     -7166.2725     -798.84427      136890.44      51.537621      51.537621      51.537621      1.0738792     -270.00251      1925.4422      945.86953    
      4500   4500           750.70333      350.15713      55294.474      54589.633      24209.72       30379.913      10590.95       9305.0544      7365.7001      953.66976      1141.1068      8190.1641     -7166.733      -792.28709      138023.38      51.67941       51.67941       51.67941       1.0650644      243.00842     -291.74621      1099.2092    
      5000   5000           746.52511      506.62109      55551.808      54523.433      24074.975      30448.458      10397.484      9402.2204      7367.6877      931.14221      1302.6702      8210.1838     -7162.931      -785.67475      139185         51.823986      51.823986      51.823986      1.0561755     -887.9665      -364.55273      2772.3825    
      5500   5500           752.11536      102.53742      54547.364      54339.774      24255.257      30084.517      10258.224      9106.367       7420.0421      927.08024      1348.0892      8191.2198     -7166.5048     -787.74773      138818.73      51.778487      51.778487      51.778487      1.0589622     -1930.5143      996.45339      1241.6731    
      6000   6000           750.90595      703.91102      56086.243      54660.291      24216.254      30444.037      10467.691      9430.8335      7218.0825      968.20302      1309.3433      8211.9003     -7162.017      -787.27074      138902.84      51.788942      51.788942      51.788942      1.058321       802.47374      514.75863      794.50069    
      6500   6500           758.64192     -154.62149      54559.298      54874.964      24465.734      30409.229      10370.181      9211.567       7427.9516      952.25156      1431.2166      8179.152      -7163.0908     -781.1836       139985.2       51.923111      51.923111      51.923111      1.0501381     -1140.5825     -197.23009      873.9481     
      7000   7000           751.49643     -1441.4074      51645.66       54570.205      24235.297      30334.908      10457.954      9233.3286      7429.7959      940.52401      1235.4699      8203.9847     -7166.1491     -786.03079      139121.95      51.81616       51.81616       51.81616       1.0566541     -754.85048     -2694.3522     -875.01962    
      7500   7500           753.0333      -270.10225      53551.038      54095.119      24284.86       29810.259      10127.625      9223.4777      7256.5464      897.89088      1261.8896      8203.4225     -7160.5936     -791.72805      138120.84      51.691571      51.691571      51.691571      1.0643129      596.09101      628.79978     -2035.1975    
      8000   8000           738.5196      -489.15349      53136.936      54132.006      23816.802      30315.203      10202.745      9454.7572      7380.0309      941.61595      1312.6228      8188.4416     -7165.0103     -783.97593      139486.6       51.861392      51.861392      51.861392      1.0538918      569.69101     -913.27818     -1123.8733    
      8500   8500           754.06557      391.50525      55617.742      54823.488      24318.15       30505.338      10526.606      9290.0422      7345.3374      950.55522      1364.8682      8193.1593     -7165.2309     -786.12082      139106.02      51.814182      51.814182      51.814182      1.0567751     -430.82873      1466.5942      138.75029    
      9000   9000           752.2326       1851.1629      58590.536      54820.154      24259.038      30561.116      10371.758      9437.2897      7243.304       971.34247      1500.4193      8202.1454     -7165.1426     -783.01571      139657.66      51.882582      51.882582      51.882582      1.052601       900.08311      2430.5949      2222.8108    
      9500   9500           742.75894      594.47167      55636.502      54420.523      23953.518      30467.005      10244.026      9698.3567      7234.6979      896.66668      1357.4478      8202.3642     -7166.5547     -779.67961      140255.23      51.956476      51.956476      51.956476      1.0481163      997.96746      1433.9953     -648.54775    
     10000   10000          746.63505      1245.7476      56912.531      54362.635      24078.52       30284.115      10299.031      9278.0514      7272.9098      942.0122       1445.7489      8208.6225     -7162.2608     -779.14569      140351.34      51.968341      51.968341      51.968341      1.0473985      1864.2018     -84.971826      1958.0128    
     10500   10500          748.12329     -1062.9275      52418.805      54582.867      24126.515      30456.351      10424.287      9319.4706      7423.9877      939.89841      1317.5822      8197.9981     -7166.8726     -783.33076      139601.49      51.875626      51.875626      51.875626      1.0530245      919.39935     -3002.6737     -1105.5083    
     11000   11000          749.8058       127.67345      54911.653      54651.908      24180.775      30471.133      10355.712      9315.67        7414.6709      928.93685      1433.8701      8187.7157     -7165.4432     -783.90556      139499.13      51.862944      51.862944      51.862944      1.0537972      388.36045     -1037.1077      1031.7676    
     11500   11500          752.05318      407.36737      55270.771      54436.236      24253.252      30182.985      10204.141      9307.3293      7337.4045      954.54833      1345.6147      8192.7591     -7158.8127     -778.49039      140469.48      51.982918      51.982918      51.982918      1.0465176      514.6347       1007.6322     -300.1648     
     12000   12000          745.72836     -957.30764      52262.074      54240.014      24049.28       30190.734      10105.204      9266.037       7401.7686      954.76336      1430.6481      8198.7986     -7166.4853     -771.87959      141672.54      52.1309        52.1309        52.1309        1.0376308     -1986.1963     -697.35306     -188.37357    
     12500   12500          748.49401     -748.07756      53313.77       54863.532      24138.471      30725.061      10461.717      9267.9223      7552.5747      957.34009      1459.0608      8191.3143     -7164.8678     -769.82645      142050.38      52.177204      52.177204      52.177204      1.0348708      586.59922     -2359.5468     -471.2851     
     13000   13000          753.9558       2949.4824      60798.773      54780.269      24314.61       30465.659      10520.545      9472.3745      6997.7842      950.40037      1476.6384      8213.4606     -7165.5444     -781.57085      139915.84      51.914534      51.914534      51.914534      1.0506587      2772.2303      2376.7862      3699.4307    
     13500   13500          759.73423      448.35492      55907.005      55000.826      24500.961      30499.865      10327.723      9361.2373      7442.5125      957.52493      1391.5724      8186.2393     -7166.9447     -789.07632      138585         51.749411      51.749411      51.749411      1.0607482      916.40464      673.60477     -244.94465    
     14000   14000          745.346       -1732.9145      51165.088      54701.721      24036.949      30664.772      10215.354      9337.2485      7751.6861      976.49265      1365.411       8182.2889     -7163.7093     -781.4446       139938.44      51.917329      51.917329      51.917329      1.0504889     -2055.806      -1832.7569     -1310.1805    
     14500   14500          751.88527     -144.38857      54364.586      54660.23       24247.837      30412.393      10331.134      9309.7357      7375.3223      939.76132      1417.9957      8205.7444     -7167.3        -778.88845      140397.69      51.974061      51.974061      51.974061      1.0470527     -782.81763     -1486.7865      1836.4385    
     15000   15000          750.41064      1012.376       56722.723      54653.073      24200.281      30452.792      10675.17       9328.6876      7049.7718      903.11223      1477.6108      8189.2145     -7170.7745     -780.11049      140177.76      51.946908      51.946908      51.946908      1.0486955      2502.696      -589.26194      1123.6939    
     15500   15500          754.16016     -1164.6923      52509.897      54894.891      24321.2        30573.691      10372.139      9362.6235      7454.8295      924.78683      1414.1752      8204.3271     -7159.1907     -778.81639      140410.68      51.975664      51.975664      51.975664      1.0469559      267.67266     -2208.1667     -1553.5829    
     16000   16000          754.98033     -2076.3816      50593.586      54877.209      24347.651      30529.559      10235.349      9378.7816      7543.3042      964.58569      1365.2166      8205.6815     -7163.3605     -773.04901      141458.23      52.1046        52.1046        52.1046        1.0392028     -2385.3779     -1998.3225     -1845.4445    
     16500   16500          744.44247     -434.91552      53735.41       54629.784      24007.811      30621.973      10331.378      9471.474       7462.8476      923.7574       1392.9986      8203.9818     -7164.4646     -775.52627      141006.36      52.049062      52.049062      52.049062      1.042533       464.61717     -1285.676      -483.68776    
     17000   17000          747.43734      1002.4524      56459.122      54414.89       24104.394      30310.496      10211.159      9476.2909      7198.556       933.99446      1451.7405      8203.3878     -7164.6327     -782.06831      139826.84      51.903524      51.903524      51.903524      1.0513274      513.43872      616.78567      1877.1328    
     17500   17500          746.51747     -26.959588      54502.098      54556.7        24074.728      30481.972      10167.367      9419.0766      7487.9597      953.10836      1437.5351      8179.0613     -7162.1359     -787.43203      138874.39      51.785406      51.785406      51.785406      1.0585378     -406.67403      409.30217     -83.506899    
     18000   18000          747.24863      770.43877      56472.102      54876.856      24098.308      30778.548      10392.897      9558.2078      7318.2597      957.40322      1529.1         8187.0701     -7164.3902     -770.23171      141975.64      52.168051      52.168051      52.168051      1.0354156      1596.8141      632.02904      82.47313     
     18500   18500          750.2021       843.0656       56527.348      54780.551      24193.555      30586.996      10407.921      9372.4537      7294.4825      939.91363      1567.2447      8171.6896     -7166.7092     -769.71543      142070.87      52.179712      52.179712      52.179712      1.0347215      1749.6437      630.87235      148.68071    
     19000   19000          745.45756      64.109386      54700.299      54567.632      24040.547      30527.085      10376.299      9192.4129      7457.9322      945.89856      1510.429       8200.7059     -7156.593      -770.67005      141894.89      52.158159      52.158159      52.158159      1.0360048      761.03014      299.25659     -867.95857    
     19500   19500          746.26776      103.4178       54539.508      54325.145      24066.675      30258.47       10195.935      9304.076       7330.7873      955.10909      1418.664       8214.0785     -7160.1796     -769.4106       142127.16      52.186602      52.186602      52.186602      1.0343117     -467.72836      519.49719      258.48456    
     20000   20000          756.91683      253.6318       55309.989      54786.189      24410.102      30376.087      10183.747      9368.9937      7368.4749      947.74256      1450.9647      8213.9095     -7157.745      -772.2356       141607.22      52.122888      52.122888      52.122888      1.0381094      481.30968     -12.805297      292.39102    
     20500   20500          751.40108     -1581.4539      51527.521      54804.514      24232.222      30572.292      10392.317      9374.2052      7405.1558      939.68835      1408.6922      8206.0432     -7153.8098     -769.64803      142083.31      52.181235      52.181235      52.181235      1.0346309     -3825.7217      382.60212     -1301.2421    
     21000   21000          748.40951      120.20001      54743.727      54494.711      24135.746      30358.966      10198.551      9205.7537      7346.0159      910.95824      1677.0393      8183.2915     -7162.6443     -769.81964      142051.64      52.177358      52.177358      52.177358      1.0348616      639.84484     -364.41612      85.171306    
     21500   21500          740.08467     -1207.8601      51810.297      54300.571      23867.275      30433.297      10237.301      9324.1593      7397.2074      929.03788      1477.5249      8224.267      -7156.2012     -773.53618      141369.14      52.09366       52.09366       52.09366       1.0398577     -1725.7519     -98.591428     -1799.2369    
     22000   22000          744.29701     -282.26693      54136.202      54717.789      24003.12       30714.669      10382.529      9519.5525      7519.238       932.49621      1300.9922      8219.2984     -7159.4373     -774.02825      141279.26      52.082618      52.082618      52.082618      1.0405192     -292.30667     -462.53367     -91.960433    
     22500   22500          755.62724     -841.81747      53029.624      54762.338      24368.513      30393.825      10153.459      9234.042       7531.1941      952.39146      1475.8283      8206.6111     -7159.7013     -774.82225      141134.49      52.064821      52.064821      52.064821      1.0415866      1492.6152     -2420.7732     -1597.2944    
     23000   23000          745.00533      176.94125      54993.264      54626.199      24025.963      30600.236      10157.486      9289.7504      7537.5246      991.38516      1572.4547      8203.2279     -7151.5925     -768.7721       142245.2       52.201046      52.201046      52.201046      1.0334534     -25.403199      1158.7071     -602.48019    
     23500   23500          746.61079     -1189.9712      52493.651      54993.747      24077.738      30916.009      10184.964      9557.3975      7565.4437      933.02971      1637.3601      8188.7998     -7150.9856     -759.08566      144060.34      52.422148      52.422148      52.422148      1.020432       653.0429      -2473.3143     -1749.6423    
     24000   24000          750.48984     -1322.6571      51934.176      54703.911      24202.835      30501.076      10132.192      9458.7283      7480.0693      938.75052      1438.4277      8204.5726     -7151.6642     -761.58793      143587.02      52.364673      52.364673      52.364673      1.0237958     -1659.3628     -1307.8492     -1000.7591    
     24500   24500          748.65146     -153.19162      54492.36       54811.313      24143.549      30667.764      10222.022      9364.5156      7416.5161      966.00224      1641.269       8212.3167     -7154.8773     -765.98444      142762.87      52.264295      52.264295      52.264295      1.029706      -1073.2269      671.88244     -58.230363    
     25000   25000          737.89858      361.59675      55259.193      54505.724      23796.775      30708.949      10512.799      9309.9656      7350.4547      942.53498      1542.6573      8204.8007     -7154.2629     -765.36766      142877.92      52.27833       52.27833       52.27833       1.0288769     -423.39502      293.02195      1215.1633    
     25500   25500          756.97673     -582.55552      53750.758      54958.555      24412.033      30546.522      10287.468      9373.0996      7402.7094      978.12368      1441.1151      8217.2773     -7153.2711     -769.22697      142161.08      52.190755      52.190755      52.190755      1.0340649      318.64642     -490.43442     -1575.8786    
     26000   26000          749.21411      443.53945      55589.581      54669.835      24161.693      30508.142      10297.8        9349.2572      7342.3742      935.64938      1539.8774      8201.8547     -7158.6707     -769.08704      142186.95      52.19392       52.19392       52.19392       1.0338768     -257.1762       1030.9031      556.8915     
     26500   26500          746.16784      202.0049       55002.422      54587.247      24063.453      30523.794      10508.984      9202.1165      7370.956       934.56799      1456.4078      8206.9717     -7156.2099     -775.96494      140926.65      52.039252      52.039252      52.039252      1.0431227      558.16689     -1138.5926      1186.4404    
     27000   27000          744.5542      -592.18699      53285.669      54511.29       24011.414      30499.876      10365.676      9209.7922      7388.5021      913.58384      1600.2746      8184.6007     -7162.5538     -770.57292      141912.77      52.16035       52.16035       52.16035       1.0358742     -2240.7641      1044.2061     -580.00294    
     27500   27500          749.46156     -542.94795      53321.026      54450.865      24169.674      30281.192      10222.254      9258.1204      7383.7393      887.26295      1491.3094      8195.5407     -7157.0353     -766.39513      142686.37      52.254957      52.254957      52.254957      1.0302581      238.76863     -1295.365      -572.24747    
     28000   28000          739.65457      616.89428      55818.274      54539.613      23853.404      30686.208      10380.429      9292.1184      7463.0212      952.30773      1554.2477      8204.7985     -7160.7143     -769.42468      142124.55      52.186284      52.186284      52.186284      1.0343307      1427.2017     -623.13955      1046.6207    
     28500   28500          757.73518      773.84865      56380.737      54797.596      24436.493      30361.103      10241.723      9248.0378      7484.2825      929.19499      1397.9528      8220.3171     -7160.4049     -779.55596      140277.47      51.959223      51.959223      51.959223      1.0479501      407.05791      79.813567      1834.6745    
     29000   29000          757.83221     -1319.5421      52277.985      55011.394      24439.622      30571.772      10363.828      9258.3998      7515.7649      974.62909      1425.2858      8198.3625     -7164.4983     -769.89202      142038.28      52.175722      52.175722      52.175722      1.0349589     -1848.5706     -1880.8418     -229.21404    
     29500   29500          737.31729     -153.31462      54452.737      54770.803      23778.028      30992.775      10331.178      9556.4506      7559.7824      936.36831      1543.588       8217.9788     -7152.5719     -768.73709      142251.68      52.201838      52.201838      52.201838      1.0334064     -329.393       -423.32178      292.77093    
     30000   30000          754.20353     -1230.4884      52520.045      55060.537      24322.599      30737.937      10485.201      9476.3156      7271.5119      896.64619      1560.0414      8209.105      -7160.8841     -772.45103      141567.73      52.118042      52.118042      52.118042      1.038399      -1664.5537     -1741.2946     -285.61697    
     30500   30500          752.06024     -262.73273      54799.569      55343.772      24253.479      31090.292      10564.441      9566.8539      7539.8916      958.96368      1399.5813      8215.9418     -7155.3806     -769.95306      142027.02      52.174344      52.174344      52.174344      1.035041      -2383.9043     -291.01803      1886.7241    
     31000   31000          748.26527     -723.39964      52927.369      54428.791      24131.094      30297.697      10228.714      9267.7739      7395.4782      939.89139      1408.8398      8212.1067     -7155.1067     -768.39852      142314.36      52.209504      52.209504      52.209504      1.0329512     -2309.2392      613.72068     -474.68041    
     31500   31500          749.27241     -662.72571      53531.674      54914.909      24163.574      30751.335      10145.543      9594.1819      7511.2724      936.58788      1492.797       8226.9844     -7156.0314     -764.09824      143115.29      52.307265      52.307265      52.307265      1.0271704      95.45564      -1166.0034     -917.62939    
     32000   32000          751.4869      -0.47590328     54912.254      54913.244      24234.99       30678.254      10224.227      9482.3651      7452.8441      954.10812      1527.6041      8198.0421     -7160.9365     -766.43763      142678.46      52.253991      52.253991      52.253991      1.0303152     -382.0166      -979.18401      1359.7729    
     32500   32500          747.15648      1282.8519      57315.311      54683.798      24095.336      30588.461      10540.049      9231.7931      7353.2292      965.77529      1441.9485      8215.3344     -7159.6687     -777.46702      140654.38      52.005717      52.005717      52.005717      1.0451419      1002.7518      198.66515      2647.1386    
     33000   33000          745.73545     -531.16391      53592.265      54688.008      24049.509      30638.499      10487.412      9231.1079      7436.071       950.61231      1469.1051      8215.9684     -7151.7773     -773.09165      141450.42      52.103642      52.103642      52.103642      1.0392601     -1679.9669      551.78057     -465.30541    
     33500   33500          752.04113     -1167.0711      52134.014      54546.899      24252.863      30294.036      10364.41       9183.1731      7360.8439      921.0209       1416.4797      8200.032      -7151.9236     -771.38615      141763.16      52.142013      52.142013      52.142013      1.0369675     -206.49679     -1702.5849     -1592.1316    
     34000   34000          751.83244      1828.8472      58699.316      54883.367      24246.133      30637.234      10503.75       9383.9512      7118.3052      905.55267      1662.0889      8220.2371     -7156.6509     -764.33902      143070.2       52.301772      52.301772      52.301772      1.0274941      2056.8531      686.34842      2743.3399    
     34500   34500          745.84537     -60.291384      54175.634      54301.364      24053.054      30248.31       10230.064      9513.8225      7117.666       921.4216       1390.6926      8221.5464     -7146.9031     -764.76643      142990.25      52.292026      52.292026      52.292026      1.0280686      825.85268      399.06209     -1405.7889    
     35000   35000          744.99573      116.67849      54546.093      54305.166      24025.653      30279.512      10417.308      9189.0805      7185.1944      951.34183      1484.4494      8208.9837     -7156.845      -772.35244      141585.8       52.120259      52.120259      52.120259      1.0382664     -393.90954     -153.13547      897.08049    
     35500   35500          746.53207      540.76679      55951.81       54828.266      24075.2        30753.067      10445.803      9506.3133      7344.9218      948.29013      1437.5642      8222.0423     -7151.8684     -767.59284      142463.73      52.227765      52.227765      52.227765      1.0318681      104.80503      219.49185      1298.0035    
     36000   36000          749.46923     -432.04033      53988.121      54883.848      24169.921      30713.928      10243.161      9521.8401      7398.251       990.10074      1502.5817      8212.836      -7154.8428     -769.23566      142159.48      52.190558      52.190558      52.190558      1.0340766     -89.417326     -1615.5936      408.88998    
     36500   36500          748.3411       298.76953      55386.021      54763.492      24133.539      30629.953      10302.636      9396.5193      7398.4187      937.43983      1563.7573      8186.6577     -7155.476      -765.399        142872.07      52.277617      52.277617      52.277617      1.028919       918.184       -216.43714      194.56173    
     37000   37000          738.45738      305.52552      54824.872      54187.562      23814.796      30372.766      10216.26       9423.7666      7221.2836      900.63804      1569.4778      8203.4356     -7162.0955     -764.55379      143030.02      52.296874      52.296874      52.296874      1.0277828     -1874.775       986.14336      1805.2083    
     37500   37500          752.71403      907.55976      56994.887      55100.712      24274.564      30826.148      10532.306      9466.4765      7321.4436      930.85016      1502.2659      8226.8426     -7154.0371     -764.12837      143109.65      52.306577      52.306577      52.306577      1.0272109      1088.9753      1182.2103      451.49365    
     38000   38000          753.31433      356.70295      55870.322      55132.714      24293.923      30838.791      10325.456      9447.4689      7542.1053      960.32486      1508.9101      8210.3165     -7155.7907     -771.24487      141789.13      52.145197      52.145197      52.145197      1.0367775     -1016.8969      413.84935      1673.1564    
     38500   38500          750.09659     -427.08589      53726.472      54614.21       24190.153      30424.057      10219.397      9464.8399      7277.3499      936.52515      1495.2206      8189.8163     -7159.0912     -767.25774      142525.95      52.235367      52.235367      52.235367      1.0314177     -930.05225      67.884212     -419.08964    
     39000   39000          745.13818      604.81449      55882.542      54633.619      24030.247      30603.372      10506.212      9280.8778      7345.6345      908.73422      1522.5574      8200.6168     -7161.2611     -772.32061      141591.64      52.120976      52.120976      52.120976      1.0382236      82.4499        1803.3187     -71.325123    
     39500   39500          752.11655      1720.2056      58499.768      54954.991      24255.295      30699.695      10474.644      9447.5902      7220.331       927.5211       1567.8441      8218.8019     -7157.0373     -773.93151      141296.92      52.084788      52.084788      52.084788      1.0403892      3530.8153     -209.26815      1839.0698    
     40000   40000          754.5301       908.55352      57095.115      55229.645      24333.131      30896.514      10416.537      9436.9202      7507.3865      939.30884      1560.1178      8198.7197     -7162.4767     -776.73587      140786.78      52.022029      52.022029      52.022029      1.044159      -425.47398      1696.8509      1454.2837    
     40500   40500          752.04477      1937.6693      58883.062      54863.44       24252.981      30610.46       10489.287      9365.2896      7167.7414      945.2709       1570.216       8227.7147     -7155.0603     -768.78615      142242.6       52.200728      52.200728      52.200728      1.0334723      1625.6573      3636.6094      550.74114    
     41000   41000          748.08995     -657.78885      53448.63       54826.508      24125.44       30701.068      10140.75       9409.4307      7675.7614      928.13134      1497.6952      8207.9373     -7158.6384     -761.35464      143631.02      52.370021      52.370021      52.370021      1.0234822     -28.827879     -1526.0699     -418.46879    
     41500   41500          741.7474       456.44655      55566.179      54614.095      23920.897      30693.199      10317.547      9445.5936      7456.9773      933.49619      1509.3233      8194.0733     -7163.8124     -764.58544      143024.1       52.296152      52.296152      52.296152      1.0278253      529.50043     -481.3674       1321.2066    
     42000   42000          749.08178      647.62168      55636.836      54298.518      24157.426      30141.092      10142.851      9247.4473      7208.8381      936.5561       1557.4661      8209.7425     -7161.809      -771.74365      141697.49      52.133961      52.133961      52.133961      1.037448       884.6271      -452.29218      1510.5301    
     42500   42500          744.52389     -855.1522       52818.388      54572.548      24010.437      30562.111      10497.791      9281.6651      7317.7446      926.07127      1466.1573      8227.0351     -7154.3529     -777.47291      140653.31      52.005585      52.005585      52.005585      1.0451498     -775.49839     -1298.894      -491.06424    
     43000   43000          745.26433      734.07655      55853.583      54345.032      24034.316      30310.716      10369.05       9419.5201      7136.3773      908.46963      1431.8545      8200.5201     -7155.0761     -776.05459      140910.37      52.037248      52.037248      52.037248      1.0432432     -347.94474      578.40741      1971.767     
     43500   43500          750.21698      1924.2696      58888.397      54850.611      24194.036      30656.576      10329.858      9423.8658      7351.6656      928.04048      1554.4679      8223.6307     -7154.9524     -760.03537      143880.33      52.400304      52.400304      52.400304      1.0217087      448.51703      1419.6572      3904.6347    
     44000   44000          756.09714     -243.89872      54774.546      55290.616      24383.667      30906.949      10525.716      9301.2473      7431.2148      961.0167       1639.8992      8207.1644     -7159.3088     -753.72409      145085.11      52.546155      52.546155      52.546155      1.0132245      1039.0128     -2449.6786      678.96965    
     44500   44500          742.98373     -1234.8957      52353.021      54938.418      23960.768      30977.65       10602.902      9455.6414      7372.6948      916.20358      1572.5107      8219.7246     -7162.0269     -761.75317      143555.87      52.360886      52.360886      52.360886      1.0240179     -286.88488     -1856.9633     -1560.839     
     45000   45000          749.43947     -806.72381      53016.863      54689.052      24168.961      30520.09       10403.392      9260.9555      7316.5885      939.8219       1584.5552      8179.6404     -7164.8634     -769.39746      142129.58      52.186899      52.186899      52.186899      1.0342941     -320.84831     -1660.4097     -438.91343    
     45500   45500          745.18929      867.39453      56544.059      54739.598      24031.895      30707.702      10424.044      9416.4294      7329.3142      939.33987      1565.091       8193.7367     -7160.2532     -766.62004      142644.51      52.249847      52.249847      52.249847      1.0305604      232.32657      2065.8508      304.00618    
     46000   46000          754.11352      1092.0645      57112.87       54836.31       24319.697      30516.613      10367.607      9277.0031      7350.6338      902.49635      1554.602       8215.4134     -7151.1426     -765.03331      142940.36      52.285945      52.285945      52.285945      1.0284274      639.2675       837.21869      1799.7074    
     46500   46500          756.25837      353.04032      55793.505      55065.235      24388.866      30676.369      10425.414      9446.6788      7382.5812      934.19987      1452.6965      8191.1231     -7156.3241     -773.11354      141446.42      52.10315       52.10315       52.10315       1.0392896     -110.48783      588.01933      581.58948    
     47000   47000          754.79831     -240.40193      54276.504      54773.313      24341.781      30431.532      10334.894      9311.7712      7480.2159      928.4431       1327.0597      8212.8569     -7163.7088     -771.7196       141701.91      52.134502      52.134502      52.134502      1.0374157     -764.68907      1284.9138     -1241.4305    
     47500   47500          742.6341      -540.67357      53709.894      54829.186      23949.492      30879.694      10379.142      9397.6541      7624.7662      953.20408      1487.5084      8195.9331     -7158.5146     -770.37603      141949.04      52.164793      52.164793      52.164793      1.0356096     -427.62956      728.92182     -1923.313     
     48000   48000          755.95488      436.14652      56184.087      55273.404      24379.079      30894.325      10601.098      9406.6312      7351.5511      915.67054      1596.836       8185.5963     -7163.0586     -763.79387      143172.32      52.314212      52.314212      52.314212      1.0267612      1068.5428      233.48022      6.4165752    
     48500   48500          753.99933     -816.3193       53178.892      54891.634      24316.014      30575.62       10197.292      9404.9885      7433.7127      953.06545      1530.9899      8213.2778     -7157.7057     -760.11459      143865.33      52.398484      52.398484      52.398484      1.0218152     -683.01895     -1270.9344     -495.00459    
     49000   49000          752.9099       1098.5308      57106.128      54836.015      24280.88       30555.134      10468.714      9307.9933      7276.0371      934.60389      1542.2695      8187.6988     -7162.1818     -771.74865      141696.57      52.133848      52.133848      52.133848      1.0374548      612.5691       837.32006      1845.7032    
     49500   49500          748.87636     -1674.5004      51164.312      54626.195      24150.801      30475.394      10220.379      9497.0554      7356.4537      902.23563      1457.0589      8197.4822     -7155.2712     -771.40767      141759.21      52.141529      52.141529      52.141529      1.0369964     -433.693       -3953.8177     -635.99055    
     50000   50000          741.36772     -1929.6678      50398.663      54412.803      23908.652      30504.151      10279.449      9406.8703      7382.7116      943.88442      1445.9307      8198.8706     -7153.5665     -766.65706      142637.62      52.249006      52.249006      52.249006      1.0306102     -2053.6226     -1577.4381     -2157.9428    
Loop time of 373.785 on 1 procs for 50000 steps with 10820 atoms

Performance: 11.557 ns/day, 2.077 hours/ns, 133.767 timesteps/s, 1.447 Matom-step/s
100.0% CPU use with 1 MPI tasks x 1 OpenMP threads

MPI task timing breakdown:
Section |  min time  |  avg time  |  max time  |%varavg| %total
---------------------------------------------------------------
Pair    | 126.58     | 126.58     | 126.58     |   0.0 | 33.86
Bond    | 57.257     | 57.257     | 57.257     |   0.0 | 15.32
Kspace  | 105.13     | 105.13     | 105.13     |   0.0 | 28.12
Neigh   | 35.647     | 35.647     | 35.647     |   0.0 |  9.54
Comm    | 5.8042     | 5.8042     | 5.8042     |   0.0 |  1.55
Output  | 0.021584   | 0.021584   | 0.021584   |   0.0 |  0.01
Modify  | 30.893     | 30.893     | 30.893     |   0.0 |  8.26
Other   |            | 12.45      |            |       |  3.33

Nlocal:          10820 ave       10820 max       10820 min
Histogram: 1 0 0 0 0 0 0 0 0 0
Nghost:          21161 ave       21161 max       21161 min
Histogram: 1 0 0 0 0 0 0 0 0 0
Neighs:              0 ave           0 max           0 min
Histogram: 1 0 0 0 0 0 0 0 0 0
FullNghs:  5.22077e+06 ave 5.22077e+06 max 5.22077e+06 min
Histogram: 1 0 0 0 0 0 0 0 0 0

Total # of neighbors = 5220772
Ave neighs/atom = 482.51128
Ave special neighs/atom = 5.7689464
Neighbor list builds = 4091
Dangerous builds = 0
  unfix npt_tg
  shell echo '{"stage":"T${temps}","status":"done"}' >> /home/arz2/PolyJarvis/data/PSU2/lammps/thermal/tg_sweep_r400/tg_progress.jsonl
  print "STAGE COMPLETE: Tg step T=${temps}K P=1.0atm steps=50000"
STAGE COMPLETE: Tg step T=750K P=1.0atm steps=50000
  next temps
  jump SELF TEMP_LOOP
  timestep 1
  fix npt_tg all npt temp ${temps} ${temps} 100 iso 1.0 1.0 1000.0
  fix npt_tg all npt temp 730 ${temps} 100 iso 1.0 1.0 1000.0
  fix npt_tg all npt temp 730 730 100 iso 1.0 1.0 1000.0
  run 50000
PPPM Kokkos initialization ...
  using 12-bit tables for long-range coulomb
  G vector (1/distance) = 0.29814835
  grid = 36 36 36
  stencil order = 5
  estimated absolute RMS force accuracy = 0.00033295759
  estimated relative force accuracy = 1.0026919e-06
  using double precision cuFFT
  3d grid and FFT values/proc = 79507 46656
Generated 28 of 28 mixed pair_coeff terms from sixthpower/sixthpower mixing rule
Per MPI rank memory allocation (min/avg/max) = 63.67 | 63.67 | 63.67 Mbytes
   Step          Time           Temp          Press         Enthalpy        TotEng         KinEng         PotEng         E_bond        E_angle        E_dihed        E_impro         E_vdwl         E_coul         E_long         E_tail         Volume           Lx             Ly             Lz          Density          Pxx            Pyy            Pzz      
     50000   50000          741.36772     -1929.6507      50398.699      54412.804      23908.652      30504.152      10279.449      9406.8703      7382.7116      943.88442      1445.9307      8119.4437     -7074.1385     -766.65706      142637.62      52.249006      52.249006      52.249006      1.0306102     -2053.6085     -1577.418      -2157.9255    
     50500   50500          724.66184     -1099.8646      51098.287      53396.522      23369.898      30026.624      10061.828      9279.259       7234.7077      895.89957      1525.0565      8109.9864     -7080.1132     -763.2308       143277.95      52.327074      52.327074      52.327074      1.0260043     -1848.155      -479.92482     -971.51411    
     51000   51000          723.28777     -728.48199      51861.014      53376.385      23325.585      30050.8        10157.787      9346.9322      7073.3562      890.05406      1534.3151      8126.2273     -7077.8716     -766.67434      142634.41      52.248613      52.248613      52.248613      1.0306334     -289.25016     -1436.8957     -459.30009    
     51500   51500          726.1366      -726.14144      51670.846      53172.333      23417.458      29754.875      10007.917      9146.562       7241.5231      914.74745      1406.7886      8118.0431     -7080.7069     -771.27793      141783.05      52.144452      52.144452      52.144452      1.036822      -1134.3256      1366.1666     -2410.2653    
     52000   52000          720.90889     -1958.9038      48966.984      53013.258      23248.868      29764.39       10101.777      9087.0901      7282.2703      910.15225      1365.0086      8098.3931     -7080.3014     -772.09192      141633.58      52.126121      52.126121      52.126121      1.0379162     -2776.6982     -2276.9966     -823.01659    
     52500   52500          728.85261     -1135.8759      51101.898      53473.436      23505.048      29968.388      10121.476      9244.951       7289.3829      904.62909      1359.7315      8125.1997     -7076.9823     -763.85675      143160.53      52.312776      52.312776      52.312776      1.0268458     -632.36693     -272.44882     -2502.812     
     53000   53000          740.24081     -1394.3414      50683.991      53577.252      23872.31       29704.941      9971.4827      9109.2817      7242.3507      897.24054      1432.2506      8130.6938     -7078.3587     -768.58649      142279.55      52.205248      52.205248      52.205248      1.0332039     -404.63013     -929.81565     -2848.5784    
     53500   53500          729.13094      157.46226      53673.757      53350.756      23514.024      29836.732      10164.425      9085.4618      7216.1622      874.92376      1470.1651      8110.55       -7084.9554     -777.47006      140653.83      52.005649      52.005649      52.005649      1.045146      -373.15905     -1072.9962      1918.5421    
     54000   54000          722.31411      1730.3829      56808.011      53237.698      23294.185      29943.513      10194.286      9278.5118      7065.7461      933.71252      1421.6528      8128.526      -7078.9221     -772.9423       141477.75      52.106998      52.106998      52.106998      1.0390594      2384.8713      2471.9983      334.27916    
     54500   54500          717.98985     -425.78987      52020.222      52901.606      23154.73       29746.876      9952.8998      9025.0907      7343.2373      938.1932       1453.3047      8115.5328     -7081.3827     -770.44388      141936.54      52.163262      52.163262      52.163262      1.0357008     -46.66879      -150.54441     -1080.1564    
     55000   55000          730.17027     -612.53981      52242.966      53513.243      23547.541      29965.701      10216.013      9121.1764      7263.7983      947.81373      1373.005       8119.4362     -7075.5417     -769.03675      142196.25      52.195057      52.195057      52.195057      1.0338092     -903.91864     -493.81029     -439.8905     
     55500   55500          729.37389     -91.49824       53397.255      53586.96       23521.858      30065.102      10327.074      9107.9351      7232.9966      920.6647       1433.3381      8122.3082     -7079.2145     -769.20705      142164.77      52.191205      52.191205      52.191205      1.0340381     -1429.48        12.88133       1142.1039    
     56000   56000          731.49855      980.62705      55609.287      53566.968      23590.378      29976.59       10052.993      9126.2111      7288.8069      938.42239      1505.3457      8136.7938     -7071.9834     -765.75773      142805.14      52.269452      52.269452      52.269452      1.0294012     -194.85365      1975.1224      1161.6124    
     56500   56500          714.64025      1160.5405      55171.955      52778.882      23046.708      29732.174      10041.829      8915.1282      7278.0722      935.56632      1511.1964      8122.454      -7072.0716     -773.42027      141390.32      52.096262      52.096262      52.096262      1.0397019     -125.84266      1482.2745      2125.1898    
     57000   57000          732.69003      38.118057      53478.354      53399.59       23628.802      29770.787      10116.701      9258.1658      7051.6067      880.20041      1425.9551      8112.4385     -7074.2801     -771.81198      141684.95      52.132422      52.132422      52.132422      1.0375399      132.72306     -1654.8995      1636.5306    
     57500   57500          736.61154      2108.6079      58033.779      53621.227      23755.268      29865.959      10070.146      9130.4753      7147.3298      907.5146       1557.3972      8127.5089     -7074.4124     -762.10909      143488.83      52.352734      52.352734      52.352734      1.0244964      1106.0777      3342.6521      1877.0939    
     58000   58000          723.84766     -2390.8372      48539.234      53562.153      23343.641      30218.512      10082.511      9223.9534      7437.7099      918.76775      1505.7759      8120.7437     -7070.9499     -759.11043      144055.64      52.421578      52.421578      52.421578      1.0204653     -2256.4238     -4227.1442     -688.94371    
     58500   58500          729.06195      472.45342      54724.161      53742.846      23511.799      30231.047      10144.68       9095.935       7431.6892      945.00336      1586.7986      8101.8379     -7074.8973     -767.82397      142420.85      52.222524      52.222524      52.222524      1.0321789     -113.50889     -6.3173942      1537.1865    
     59000   59000          726.91775      1226.4648      56177.287      53640.137      23442.65       30197.487      10152.38       8987.8934      7513.6867      961.40374      1558.2002      8100.9887     -7077.0649     -770.93922      141845.35      52.152087      52.152087      52.152087      1.0363667     -259.75662      2471.6398      1467.5113    
     59500   59500          718.85729      1031.8815      55497.117      53365.099      23182.705      30182.395      10273.74       9156.7875      7286.1232      931.59396      1487.8765      8124.4764     -7078.2026     -771.88065      141672.34      52.130876      52.130876      52.130876      1.0376322      1881.3421     -664.81567      1879.1181    
     60000   60000          733.29081     -646.50243      51995.197      53328.359      23648.177      29680.182      10150          8927.8694      7302.1978      924.10652      1339.3349      8112.8188     -7076.1454     -773.38998      141395.86      52.096942      52.096942      52.096942      1.0396612     -1278.5984     -262.92367     -397.9852     
     60500   60500          730.26984      1577.3476      56639.456      53399.681      23550.752      29848.929      10020.614      9333.5099      7116.9754      914.25348      1415.7991      8123.4581     -7075.6813     -776.46835      140835.28      52.028003      52.028003      52.028003      1.0437994      681.43211      2543.6861      1506.9247    
     61000   61000          740.41521      1910.648       57777.948      53874.774      23877.934      29996.84       10187.649      9284.5689      7121.4484      916.47176      1447.8737      8118.8536     -7080.025      -780.68159      140075.21      51.934238      51.934238      51.934238      1.0494632      1646.2731      2486.6134      1599.0574    
     61500   61500          737.05571     -761.65578      52209.736      53797.99       23769.592      30028.397      10013.858      9236.8393      7369.2162      908.4638       1464.0307      8110.4704     -7074.4805     -764.80356      142983.3       52.29118       52.29118       52.29118       1.0281185     -150.5689      -327.78924     -1806.6092    
     62000   62000          728.51164     -185.9235       53356.476      53745.904      23494.052      30251.852      10138.007      9319.442       7266.5597      917.84329      1572.7111      8115.334      -7078.0444     -761.40887      143620.79      52.368777      52.368777      52.368777      1.0235551      99.857102     -444.6445      -212.98311    
     62500   62500          720.72831      1696.0219      56799.872      53274.999      23243.044      30031.955      10235.101      9116.8042      7207.6436      891.08822      1527.419       8128.0258     -7074.1269     -767.36005      142506.95      52.233045      52.233045      52.233045      1.0315552      2754.4025      877.62992      1456.0332    
     63000   63000          729.17285     -125.28258      52939.216      53199.114      23515.375      29683.739      10086.436      8932.2099      7158.9107      886.83563      1560.266       8126.6155     -7067.5344     -768.77449      142244.76      52.200992      52.200992      52.200992      1.0334566     -1361.4585      163.49961      822.11117    
     63500   63500          725.83675     -502.90334      52063.713      53112.439      23407.788      29704.651      9906.1158      9084.9749      7175.5932      906.87291      1562.9969      8138.0141     -7069.9169     -764.77509      142988.63      52.291829      52.291829      52.291829      1.0280803     -1037.5053      1527.4149     -1998.6196    
     64000   64000          728.01316     -111.63618      52938.664      53171.816      23477.976      29693.84       10051.335      9217.0812      7000.9754      882.68549      1475.1046      8137.6731     -7071.0151     -763.62011      143204.9       52.31818       52.31818       52.31818       1.0265276      151.25682     -769.04429      282.87893    
     64500   64500          735.78253      1779.3563      57271.299      53612.347      23728.533      29883.814      9963.8537      9291.9797      7153.8643      919.77268      1487.7796      8141.8859     -7075.3221     -775.56349      140999.6       52.048229      52.048229      52.048229      1.042583       2415.1542      2068.3828      854.53192    
     65000   65000          729.81574      1149.4737      55735.608      53373.691      23536.108      29837.583      10096.605      9176.2516      7066.9073      916.97096      1522.9445      8128.2675     -7070.3642     -776.14956      140893.13      52.035125      52.035125      52.035125      1.0433709      178.98292      1980.2361      1289.2022    
     65500   65500          720.56177     -553.72278      51898.822      53040.521      23237.673      29802.848      10143.085      9055.6117      7148.011       906.04965      1490.3401      8131.4665     -7071.7164     -773.48524      141378.44      52.094803      52.094803      52.094803      1.0397892     -1439.7305     -316.61704      95.179174    
     66000   66000          727.52056      315.82592      53880.766      53229.013      23462.09       29766.923      10114.629      9094.5162      7247.7487      935.72412      1345.2081      8110.1031     -7081.006      -772.81522      141501.02      52.109854      52.109854      52.109854      1.0388885      342.07034     -514.31712      1119.7245    
     66500   66500          730.04583      1468.46        56542.532      53518.596      23543.528      29975.068      10178.976      9072.9181      7254.294       942.13584      1480.2681      8122.3976     -7075.9218     -774.46282      141199.99      52.072875      52.072875      52.072875      1.0411034      1719.1223      1178.6378      1507.6198    
     67000   67000          732.55309     -422.30374      52941.158      53815.599      23624.386      30191.213      10067.869      9381.5555      7338.5034      917.13488      1426.76        8132.0579     -7072.6682     -770.20359      141980.82      52.168686      52.168686      52.168686      1.0353778      1097.8727     -577.61203     -1787.1719    
     67500   67500          730.20251      598.70468      54877.243      53626.912      23548.581      30078.331      10107.458      9227.0004      7285.3945      927.19261      1471.2691      8133.2093     -7073.1931     -763.65802      143197.79      52.317314      52.317314      52.317314      1.0265786      489.01213     -378.1076       1685.2095    
     68000   68000          723.55609      725.50882      54994.973      53484.893      23334.238      30150.655      10233.529      9267.0441      7244.2166      914.91733      1440.0307      8121.807      -7070.8897     -766.22092      142718.81      52.258917      52.258917      52.258917      1.0300239     -1037.8319      2722.9334      491.42495    
     68500   68500          732.52044     -126.00927      53141.669      53403.584      23623.333      29780.251      10107.186      9042.4579      7201.3209      911.07485      1459.4725      8130.0556     -7071.3168     -767.2795       142521.91      52.234873      52.234873      52.234873      1.0314469     -496.33729      725.33096     -607.02147    
     69000   69000          730.19287     -1274.1112      51124.337      53792.865      23548.27       30244.595      10091.938      9227.7494      7505.2514      916.4234       1434.3431      8137.214      -7068.3251     -761.45933      143611.27      52.36762       52.36762       52.36762       1.0236229     -1783.9776     -371.63096     -1666.7251    
     69500   69500          726.78321     -164.07234      53485.287      53831.431      23438.311      30393.12       10361.815      9160.6174      7279.9491      934.9607       1623.9275      8107.7927     -7075.9425     -755.94534      144658.79      52.494638      52.494638      52.494638      1.0162105      1208.3413     -1141.4859     -559.0724     
     70000   70000          730.56117      1161.7922      55847.607      53426.776      23560.148      29866.628      10120.916      9072.6195      7060.5144      894.91101      1668.7581      8126.1767     -7077.2676     -765.37622      142876.32      52.278135      52.278135      52.278135      1.0288884      919.30241      1891.8685      674.2058     
     70500   70500          721.58772     -313.19193      52623.901      53271.699      23270.759      30000.939      10037.793      9122.8069      7347.984       914.04586      1533.1906      8115.4399     -7070.3205     -771.04891      141825.17      52.149614      52.149614      52.149614      1.0365141     -1462.9806      36.791053      486.61375    
     71000   71000          732.37062     -36.901518      53342.68       53419.892      23618.501      29801.391      9945.9081      9263.3313      7224.6869      905.68625      1398.157       8133.5714     -7069.9496     -762.20313      143471.13      52.35058       52.35058       52.35058       1.0246228     -943.2795      -45.427523      878.00247    
     71500   71500          734.38817      1345.4558      56445.443      53630.573      23683.566      29947.007      10024.547      9173.9806      7211.8279      897.46045      1592.0726      8120.5724     -7073.4534     -762.29363      143454.09      52.348509      52.348509      52.348509      1.0247445      135.43726      2922.3556      978.57458    
     72000   72000          729.09709     -2126.3973      49228.148      53649.512      23512.932      30136.58       10029.165      9168.6785      7572.276       924.16385      1412.7499      8105.0654     -7075.5193     -767.00694      142572.56      52.24106       52.24106       52.24106       1.0310805     -2457.2239     -3018.4234     -903.54474    
     72500   72500          726.8639       561.00306      54441.681      53281.884      23440.913      29840.97       9981.1661      9111.4858      7343.6002      901.77766      1444.8889      8134.7554     -7076.7036     -771.42569      141755.9       52.141123      52.141123      52.141123      1.0370206      584.9276       1004.9621      93.119456    
     73000   73000          744.56537     -257.16367      53047.777      53581.376      24011.774      29569.602      9835.4569      9043.395       7216.9512      894.78555      1520.7271      8129.125      -7070.8388     -768.60889      142275.4       52.204741      52.204741      52.204741      1.033234      -554.6636      -1401.8022      1184.9748    
     73500   73500          736.88925     -1360.2726      51013.117      53857.473      23764.224      30093.249      10098.287      9281.0936      7315.9514      904.98634      1437.435       8124.5284     -7069.0322     -762.69881      143377.88      52.339237      52.339237      52.339237      1.0252892     -677.55268     -1339.0264     -2064.2387    
[...]
   1276000   1276000        254.87484     -565.71091      20024.203      21046.709      8219.5567      12827.152      4300.1761      4563.2939      3419.4055      324.05046     -708.23705      8118.8845     -7190.421      -882.34748      123935.46      49.857656      49.857656      49.857656      1.1861318     -819.82725     -738.48254     -138.82294    
   1276500   1276500        251.92118     -29.005253      21051.389      21103.832      8124.3028      12979.529      4407.1242      4632.333       3385.1955      319.39663     -697.04764      8121.6435     -7189.1157     -882.0517       123977.02      49.863229      49.863229      49.863229      1.1857342      953.56065      363.69434     -1404.2708    
   1277000   1277000        251.80281      856.13983      22434.578      20889.071      8120.4856      12768.585      4305.0621      4537.7551      3339.4061      318.27751     -667.88885      8128.4053     -7192.4323     -883.45564      123780         49.836801      49.836801      49.836801      1.1876215      408.80195      1379.6453      779.97228    
   1277500   1277500        249.94236      116.7175       21045.731      20833.801      8060.4871      12773.314      4273.3625      4632.6314      3257.3787      306.26582     -626.5498       8118.042      -7187.8164     -878.32572      124502.95      49.933638      49.933638      49.933638      1.1807254     -478.03986      59.997435      768.19494    
   1278000   1278000        250.46562     -335.08837      20262.653      20867.961      8077.362       12790.599      4318.0333      4573.4077      3364.5536      318.20631     -711.03182      8118.3462     -7190.9166     -882.86547      123862.74      49.847904      49.847904      49.847904      1.1868281      18.100681     -976.45143     -46.914349    
   1278500   1278500        248.22072      60.341766      21027.263      20918.157      8004.9653      12913.192      4304.3507      4668.4828      3364.4598      328.42016     -683.10533      8119.7988     -7189.2152     -882.01989      123981.49      49.863828      49.863828      49.863828      1.1856914     -1391.6333      475.27656      1097.382     
   1279000   1279000        251.58836     -21.345106      20995.401      21034.065      8113.5696      12920.495      4383.4489      4599.527       3392.1166      326.57603     -719.65594      8126.7877     -7188.3053     -880.46122      124200.97      49.893235      49.893235      49.893235      1.1835961     -159.59006      373.84808     -278.29334    
   1279500   1279500        249.91721     -440.9245       20181.166      20978.595      8059.6762      12918.919      4410.0317      4473.828       3426.8143      334.01616     -656.42571      8119.7606     -7189.1063     -881.82699      124008.61      49.867464      49.867464      49.867464      1.1854321     -173.09543     -851.8798      -297.79826    
   1280000   1280000        249.26109     -213.92957      20493.634      20880.734      8038.5166      12842.218      4325.3513      4555.1921      3383.0768      316.91278     -663.34515      8115.0592     -7190.0293     -881.37025      124072.87      49.876076      49.876076      49.876076      1.1848181      489.02977     -329.02571     -801.79278    
   1280500   1280500        249.75975     -1439.3769      18263.271      20863.84       8054.5982      12809.242      4277.1559      4528.2296      3484.2125      327.20022     -732.37498      8116.4878     -7191.6694     -882.70849      123884.77      49.850859      49.850859      49.850859      1.1866171     -438.16008     -1678.8076     -2201.1631    
   1281000   1281000        250.68759     -256.15157      20507.142      20971.628      8084.5204      12887.108      4316.0737      4577.2371      3398.4076      315.42861     -655.22499      8122.6892     -7187.5034     -879.49956      124336.78      49.911413      49.911413      49.911413      1.1823033     -375.29107     -743.61642      350.45278    
   1281500   1281500        247.69217     -105.1041       20805.316      20995.256      7987.9199      13007.336      4428.5136      4583.3452      3402.5037      336.53153     -678.86546      8123.8798     -7188.5722     -882.49969      123914.08      49.85479       49.85479       49.85479       1.1863364      454.67335     -812.87421      42.888562    
   1282000   1282000        252.47825     -127.2517       20831.47       21061.943      8142.268       12919.675      4379.4928      4626.548       3340.8786      320.9899      -694.36032      8136.4905     -7190.3644     -880.55014      124188.43      49.891556      49.891556      49.891556      1.1837156      11.366448     -293.05211     -100.06945    
   1282500   1282500        253.00637     -869.45617      19472.793      21047.811      8159.2995      12888.511      4336.2622      4587.8037      3372.8281      326.90369     -658.54613      8114.7347     -7191.4749     -880.38653      124211.51      49.894646      49.894646      49.894646      1.1834957     -214.88436     -1275.4656     -1118.0186    
   1283000   1283000        249.92946      397.25436      21666.847      20949.554      8060.071       12889.483      4394.7797      4594.4726      3303.9869      325.49057     -660.82693      8123.8372     -7192.2569     -883.24935      123808.91      49.840681      49.840681      49.840681      1.1873442      1741.0374      480.02238     -1029.2967    
   1283500   1283500        247.31003      188.33558      21221.088      20880.732      7975.596       12905.136      4368.2633      4585.4587      3337.1498      317.06723     -631.72014      8118.2737     -7189.357      -882.48943      123915.52      49.854983      49.854983      49.854983      1.1863226      286.93611      120.70813      157.36251    
   1284000   1284000        251.95064      540.91319      22146.651      21170.122      8125.253       13044.869      4441.7588      4724.006       3270.9412      319.44526     -644.62267      8121.3983     -7188.0578     -883.3926       123788.83      49.837987      49.837987      49.837987      1.1875367     -719.64784      727.46119      1614.9262    
   1284500   1284500        251.67775     -654.7377       19825.571      21008.345      8116.4523      12891.893      4336.106       4604.4634      3400.0752      333.02891     -724.65292      8129.7773     -7186.9049     -882.82911      123867.85      49.848588      49.848588      49.848588      1.1867792     -159.90803     -278.07047     -1526.2346    
   1285000   1285000        250.94224      526.86329      21850.972      20898.501      8092.7325      12805.768      4278.2806      4579.7409      3351.9089      320.41379     -658.71917      8122.1457     -7188.0027     -882.17976      123959.02      49.860816      49.860816      49.860816      1.1859063      1603.8475      8.583223      -31.840814    
   1285500   1285500        248.30436     -327.05836      20260.443      20853.727      8007.6627      12846.064      4321.4771      4584.3502      3334.5632      327.9147      -668.4344       8132.1725     -7185.9787     -879.17199      124383.1       49.917611      49.917611      49.917611      1.181863       467.4797      -592.72315     -855.93161    
   1286000   1286000        253.63026     -1168.2868      19102.752      21209.067      8179.4197      13029.647      4405.11        4557.4999      3455.0204      327.247       -650.42216      8123.3103     -7188.1179     -884.58029      123622.63      49.815672      49.815672      49.815672      1.1891333     -1506.7985     -912.06049     -1086.0015    
   1286500   1286500        250.16303     -574.26565      19902.081      20941.212      8067.6036      12873.609      4299.3877      4599.8616      3389.4452      322.69403     -668.5479       8117.9879     -7187.2197     -881.36018      124074.29      49.876266      49.876266      49.876266      1.1848046     -344.27652     -725.38823     -653.13219    
   1287000   1287000        250.24778      948.42697      22620.736      20907.661      8070.3367      12837.325      4302.568       4532.6108      3364.1929      328.30209     -626.88007      8123.7334     -7187.2025     -882.95516      123850.16      49.846216      49.846216      49.846216      1.1869487      1890.3988      1393.2705     -438.38844    
   1287500   1287500        250.51832     -84.124472      20726.945      20879.178      8079.0616      12800.116      4315.7798      4543.895       3328.3579      325.98283     -657.91206      8133.1632     -7189.1507     -881.30668      124081.82      49.877276      49.877276      49.877276      1.1847326      869.2106      -348.8392      -772.74482    
   1288000   1288000        249.22844      450.24617      21634.116      20823.375      8037.4637      12785.911      4241.2029      4575.7791      3378.4601      315.68363     -654.85001      8120.7002     -7191.0649     -885.68369      123468.62      49.794976      49.794976      49.794976      1.1906166      2.7352656      389.69137      958.31187    
   1288500   1288500        249.97252      744.6752       22224.503      20880.57       8061.4599      12819.11       4354.0737      4623.5728      3265.375       326.54868     -690.1001       8128.7721     -7189.1324     -883.69066      123747.08      49.832383      49.832383      49.832383      1.1879374      474.34896     -128.30709      1887.9837    
   1289000   1289000        253.28952     -791.09971      19571.168      21002.186      8168.4309      12833.755      4261.8785      4557.3721      3439.3843      312.8917      -681.89491      8129.7617     -7185.6388     -881.65211      124033.21      49.870761      49.870761      49.870761      1.185197       95.629911     -723.04687     -1745.8822    
   1289500   1289500        252.32254     -779.04711      19593.652      20996.213      8137.2464      12858.967      4331.0033      4652.7807      3319.9873      319.91577     -691.98967      8118.1802     -7190.9107     -885.83559      123447.44      49.79213       49.79213       49.79213       1.1908208     -161.61887     -857.91367     -1317.6088    
   1290000   1290000        252.49322      219.63587      21514.489      21116.737      8142.7508      12973.987      4405.8682      4588.0643      3362.8079      320.00767     -635.14599      8124.5177     -7192.1333     -880.64701      124174.77      49.889726      49.889726      49.889726      1.1838459      41.390912      694.85543     -77.338719    
   1290500   1290500        251.46336     -833.79357      19521.589      21031.543      8109.5383      12922.005      4294.9331      4584.7547      3484.0625      323.31671     -702.00803      8126.4814     -7189.5353     -880.65475      124173.68      49.88958       49.88958       49.88958       1.1838563     -109.19553     -884.25638     -1507.9288    
   1291000   1291000        248.89546     -868.06042      19366.347      20941.741      8026.7253      12915.016      4369.3303      4558.4633      3429.6771      320.47115     -702.49134      8127.5985     -7188.033      -878.76308      124440.98      49.925353      49.925353      49.925353      1.1813133     -236.39373     -1319.6374     -1048.1501    
   1291500   1291500        249.8867      -988.04583      19035.549      20825.479      8058.6922      12766.787      4265.2864      4535.3322      3426.5364      327.71422     -722.8927       8121.1699     -7186.3592     -880.34347      124217.59      49.89546       49.89546       49.89546       1.1834378     -389.59797     -2060.6106     -513.92889    
   1292000   1292000        250.47422     -689.56195      19639.193      20887.623      8077.6393      12809.984      4412.3643      4509.7213      3273.801       315.10939     -635.27375      8122.3541     -7188.0927     -880.88708      124140.93      49.885194      49.885194      49.885194      1.1841686     -1297.0457     -410.15728     -361.48284    
   1292500   1292500        251.78602     -432.8182       20247.545      21029.611      8119.9439      12909.667      4385.7029      4640.7606      3328.1779      316.09271     -686.41855      8115.9488     -7190.5972     -882.61848      123897.41      49.852553      49.852553      49.852553      1.1864961      372.17621      194.89879     -1865.5296    
   1293000   1293000        251.02516      13.992163      20943.157      20917.887      8095.4067      12822.481      4326.9966      4611.7118      3335.6089      306.14471     -692.60477      8124.2991     -7189.6758     -883.06898      123834.2       49.844074      49.844074      49.844074      1.1871017      561.4102      -556.35945      36.925731    
   1293500   1293500        251.11011     -701.27472      19663.792      20929.329      8098.1463      12831.182      4352.543       4605.366       3313.9434      314.94881     -703.21768      8134.3857     -7186.7868     -883.73975      123740.21      49.83146       49.83146       49.83146       1.1880034      51.331869     -924.9736      -1230.1824    
   1294000   1294000        252.78763     -928.98981      19364.335      21039.481      8152.2455      12887.236      4355.6452      4627.4423      3382.2072      326.78146     -735.94649      8120.9167     -7189.8109     -884.44205      123641.95      49.818267      49.818267      49.818267      1.1889475     -1859.2732     -1570.8908      643.19464    
   1294500   1294500        250.14331      236.1026       21415.457      20989.707      8066.9677      12922.739      4360.9928      4644.9644      3309.0766      316.25057     -650.63207      8133.2805     -7191.1939     -884.41644      123645.53      49.818748      49.818748      49.818748      1.1889131      390.38132      990.05026     -672.12378    
   1295000   1295000        249.80411      169.9608       21261.64       20955.514      8056.0287      12899.485      4402.4429      4612.3515      3348.0731      324.01664     -729.42756      8132.9101     -7190.8816     -885.44062      123502.51      49.799532      49.799532      49.799532      1.1902899      1324.2871     -791.24469     -23.160023    
   1295500   1295500        244.78053     -516.44933      19717.941      20652.181      7894.0212      12758.16       4269.2663      4561.873       3359.5206      325.29486     -693.25815      8125.9804     -7190.5168     -881.6175       124038.08      49.871413      49.871413      49.871413      1.1851505     -1490.3344     -28.502604     -30.510931    
   1296000   1296000        250.13192      831.67218      22335.325      20838.538      8066.6004      12771.938      4353.4658      4518.4002      3343.0641      319.9418      -687.29343      8114.8315     -7190.4719     -886.14223      123404.73      49.786386      49.786386      49.786386      1.191233       1609.8951     -48.669579      933.791      
   1296500   1296500        248.43285     -843.07664      19457.822      20986.447      8011.8062      12974.641      4373.3551      4609.6037      3444.4249      335.75621     -732.17288      8127.2299     -7183.5564     -879.58401      124324.84      49.909816      49.909816      49.909816      1.1824169     -157.13173     -1485.6737     -886.42448    
   1297000   1297000        252.06167     -280.90208      20523.258      21029.861      8128.8335      12901.028      4408.9742      4533.0733      3441.8469      327.4713      -737.75292      8119.2692     -7191.8543     -884.29676      123662.27      49.820995      49.820995      49.820995      1.1887522     -126.40917     -824.56423      108.26717    
   1297500   1297500        249.74685      311.46688      21477.566      20915.632      8054.1819      12861.45       4390.9524      4538.8643      3356.1119      332.42421     -700.80876      8130.3057     -7186.3997     -883.97079      123707.87      49.827118      49.827118      49.827118      1.188314       761.84003      877.11571     -704.55511    
   1298000   1298000        249.0141       1409.5396      23352.41       20814.543      8030.5514      12783.992      4388.3849      4574.943       3237.9136      313.92248     -669.21472      8127.137      -7189.0943     -885.76709      123456.99      49.793413      49.793413      49.793413      1.1907287      1873.0696      1590.0667      765.4826     
   1298500   1298500        249.14468      177.69938      21224.381      20902.716      8034.7623      12867.954      4323.1356      4542.7332      3433.4617      338.72983     -708.22265      8128.9497     -7190.8333     -881.03695      124119.81      49.882365      49.882365      49.882365      1.18437       -144.19309      550.36148      126.92974    
   1299000   1299000        249.48949      840.46159      22442.706      20928.397      8045.8825      12882.514      4384.3281      4574.2749      3324.5586      327.04466     -659.10805      8121.355      -7189.9389     -885.14517      123543.74      49.805072      49.805072      49.805072      1.1898927      962.19745      1295.6261      263.56127    
   1299500   1299500        251.71737      1192.488       23209.142      21062.517      8117.7301      12944.786      4382.9909      4631.8413      3317.2264      330.48158     -653.67416      8123.2519     -7187.3314     -885.94931      123431.6       49.789999      49.789999      49.789999      1.1909737      1758.8477      677.3723       1141.2441    
   1300000   1300000        247.0562      -263.16169      20449.169      20924.487      7967.4103      12957.077      4400.8797      4630.9683      3322.4048      339.55198     -665.49552      8116.7575     -7187.9899     -882.97751      123847.03      49.845795      49.845795      49.845795      1.1869787      30.387588      934.38848     -1754.2611    
Loop time of 261.941 on 1 procs for 50000 steps with 10820 atoms

Performance: 16.492 ns/day, 1.455 hours/ns, 190.883 timesteps/s, 2.065 Matom-step/s
100.0% CPU use with 1 MPI tasks x 1 OpenMP threads

MPI task timing breakdown:
Section |  min time  |  avg time  |  max time  |%varavg| %total
---------------------------------------------------------------
Pair    | 136.82     | 136.82     | 136.82     |   0.0 | 52.23
Bond    | 38.628     | 38.628     | 38.628     |   0.0 | 14.75
Kspace  | 50.25      | 50.25      | 50.25      |   0.0 | 19.18
Neigh   | 11.952     | 11.952     | 11.952     |   0.0 |  4.56
Comm    | 1.607      | 1.607      | 1.607      |   0.0 |  0.61
Output  | 0.015678   | 0.015678   | 0.015678   |   0.0 |  0.01
Modify  | 15.484     | 15.484     | 15.484     |   0.0 |  5.91
Other   |            | 7.188      |            |       |  2.74

Nlocal:          10820 ave       10820 max       10820 min
Histogram: 1 0 0 0 0 0 0 0 0 0
Nghost:          22900 ave       22900 max       22900 min
Histogram: 1 0 0 0 0 0 0 0 0 0
Neighs:              0 ave           0 max           0 min
Histogram: 1 0 0 0 0 0 0 0 0 0
FullNghs:  6.01047e+06 ave 6.01047e+06 max 6.01047e+06 min
Histogram: 1 0 0 0 0 0 0 0 0 0

Total # of neighbors = 6010474
Ave neighs/atom = 555.49667
Ave special neighs/atom = 5.7689464
Neighbor list builds = 1453
Dangerous builds = 0
  unfix npt_tg
  shell echo '{"stage":"T${temps}","status":"done"}' >> /home/arz2/PolyJarvis/data/PSU2/lammps/thermal/tg_sweep_r400/tg_progress.jsonl
  print "STAGE COMPLETE: Tg step T=${temps}K P=1.0atm steps=50000"
STAGE COMPLETE: Tg step T=250K P=1.0atm steps=50000
  next temps
  jump SELF TEMP_LOOP

write_data tg_step_out.data
System init for write_data ...
PPPM Kokkos initialization ...
  using 12-bit tables for long-range coulomb
  G vector (1/distance) = 0.30205462
  grid = 36 36 36
  stencil order = 5
  estimated absolute RMS force accuracy = 0.00028896374
  estimated relative force accuracy = 8.7020573e-07
  using double precision cuFFT
  3d grid and FFT values/proc = 79507 46656
Generated 28 of 28 mixed pair_coeff terms from sixthpower/sixthpower mixing rule
Total wall time: 3:21:23
