units real
atom_style full
boundary p p p

# --- Force Field (injected via PAIR_STYLE_BLOCK) ---
pair_style lj/cut 14.0
dielectric 1.000000
bond_style harmonic
angle_style harmonic
dihedral_style multi/harmonic
improper_style none
special_bonds lj 0 0 0
pair_modify mix arithmetic tail yes
neighbor 2.0 bin
neigh_modify delay 0 every 1 check yes
neigh_modify one 4000
package gpu 1 neigh no

read_data /home/arz2/PolyJarvis/data/cis-PBD1/lammps/equil/nvt_softheat/nvt_softheat_out.data
Reading data file ...
  orthogonal box = (0 0 0) to (68.178378 68.178378 68.178378)
  1 by 1 by 1 MPI processor grid
  reading atoms ...
  8040 atoms
  reading velocities ...
  8040 velocities
  scanning bonds ...
  2 = max bonds/atom
  scanning angles ...
  1 = max angles/atom
  scanning dihedrals ...
  2 = max dihedrals/atom
  orthogonal box = (0 0 0) to (68.178378 68.178378 68.178378)
  1 by 1 by 1 MPI processor grid
  reading bonds ...
  8020 bonds
  reading angles ...
  8000 angles
  reading dihedrals ...
  7980 dihedrals
Finding 1-2 1-3 1-4 neighbors ...
  special bond factors lj:    0        0        0       
  special bond factors coul:  0        0        0       
     2 = max # of 1-2 neighbors
     2 = max # of 1-3 neighbors
     4 = max # of 1-4 neighbors
     6 = max # of special neighbors
  special bonds CPU = 0.008 seconds
  read_data CPU = 0.517 seconds
include /home/arz2/PolyJarvis/data/cis-PBD1/lammps/equil/emc_build.params
# LAMMPS parameters created by EMC v9.4.4, build Jul 31 2025 20:33:44

# Variables

variable	seed		index	-1
variable	ntotal		index	8040
variable	fshape		index	1
variable	output		index	emc_build
variable	field		index	trappe/2014/trappe-ua
variable	location1	index	/home/arz2/emc/field/
variable	nav		index	0.6022141179
variable	temperature	index	300
variable	radius		index	5
variable	nrelax		index	100
variable	weight_nonbond	index	0.0001
variable	weight_bond	index	0.0001
variable	weight_focus	index	1
variable	cutoff		index	14
variable	charge_cutoff	index	14
variable	kappa		index	4
variable	density1	index	0.57
variable	lprevious	index	0
variable	lphase		index	68.1783775471
variable	f_poly		index	20
variable	chem_repeat	index	*C/C=C\C*
variable	chem_cap	index	*C
variable	lg_repeat	index	4
variable	lg_cap		index	1
variable	norm_poly	index	100
variable	l_poly		index	402
variable	mg_repeat	index	54.0914
variable	mg_cap		index	15.0347
variable	m_poly		index	5439.2094
variable	n_poly		index	20
variable	mtotal		index	108784.188
variable	nphase1		index	8040
variable	mphase1		index	108784.188
variable	vphase1		index	316912.949994
variable	lbox		index	68.1783775471
variable	lphase1		index	68.1783775471
variable	lxx		index	68.1783775471
variable	lyy		index	68.1783775471
variable	lzz		index	68.1783775471
variable	lzy		index	0
variable	lzx		index	0
variable	lyx		index	0
variable	vtotal		index	316912.949994
variable	nl_poly		index	20

# Types

variable	type_c3h	index	1
variable	type_c4h2	index	2
variable	type_c4h3	index	3

variable	type_bond_c3h_c3h index	1
variable	type_bond_c3h_c4h2 index	2
variable	type_bond_c4h2_c4h2 index	3
variable	type_bond_c4h2_c4h3 index	4

variable	type_angle_c3h_c3h_c4h2 index	1
variable	type_angle_c3h_c4h2_c4h2 index	2
variable	type_angle_c3h_c4h2_c4h3 index	3

# Clusters

variable	n0_poly		index	1
variable	n1_poly		index	20
variable	nl_poly		index	20

# Flags

variable	flag_charged	index	0

# Masses

mass		1    13.01890  # c3h
mass		2    14.02680  # c4h2
mass		3    15.03470  # c4h3

# Potentials

pair_modify	mix arithmetic tail yes
special_bonds	lj 0 0 0 coul 0 0 0.5
Finding 1-2 1-3 1-4 neighbors ...
  special bond factors lj:    0        0        0       
  special bond factors coul:  0        0        0.5     
     2 = max # of 1-2 neighbors
     2 = max # of 1-3 neighbors
     4 = max # of 1-4 neighbors
     6 = max # of special neighbors
  special bonds CPU = 0.011 seconds

# Pair Coeffs

pair_coeff	1 1    0.09340    3.71000  # c3h,c3h
pair_coeff	2 2    0.09141    3.95000  # c4h2,c4h2
pair_coeff	3 3    0.19475    3.75000  # c4h3,c4h3

# Bond Coeffs

bond_coeff	1  529.99987    1.33000  # c3h,c3h
bond_coeff	2  260.00013    1.54000  # c3h,c4h2
bond_coeff	3  260.00013    1.54000  # c4h2,c4h2
bond_coeff	4  260.00013    1.54000  # c4h2,c4h3

# Angle Coeffs

angle_coeff	1   69.96954  119.70000  # c3h,c3h,c4h2
angle_coeff	2   62.10020  114.00000  # c3h,c4h2,c4h2
angle_coeff	3   62.10020  114.00000  # c3h,c4h2,c4h3

# Dihedral Coeffs

dihedral_coeff	1    1.91086    1.85422    0.43627   -2.24348    0.00000  # c3h,c3h,c4h2,c4h2
dihedral_coeff	2    1.91086    1.85422    0.43627   -2.24348    0.00000  # c3h,c3h,c4h2,c4h3
dihedral_coeff	3    2.00702   -4.01203    0.27102    6.29006    0.00000  # c3h,c4h2,c4h2,c3h
dihedral_coeff	4   25.63496    0.99360  -25.63496   -0.99360    0.00000  # c4h2,c3h,c3h,c4h2


# --- Thermo Output ---
thermo_style custom step time temp press enthalpy etotal ke pe ebond eangle edihed eimp evdwl ecoul vol lx ly lz density pxx pyy pzz
thermo_modify flush yes
thermo 1000

# --- Trajectory ---
dump dump_comp all custom 2000 npt_compress.dump id type mol x y z ix iy iz vx vy vz

restart 10000 compress_1.rst compress_2.rst
velocity all create 600.0 878254 mom yes rot yes dist gaussian
# SHAKE disabled

# --- NPT Compression ---
# High pressure compresses the cell from low to target density
# P ramp: 1.0 -> 50000.0 atm
timestep 0.5
fix npt_comp all npt temp 480.0 480.0 100.0 iso 1.0 50000.0 1000.0

run 500000

CITE-CITE-CITE-CITE-CITE-CITE-CITE-CITE-CITE-CITE-CITE-CITE-CITE

Your simulation uses code contributions which should be cited:

- GPU package (short-range, long-range and three-body potentials): doi:10.1016/j.cpc.2010.12.021, doi:10.1016/j.cpc.2011.10.012, doi:10.1016/j.cpc.2013.08.002, doi:10.1016/j.commatsci.2014.10.068, doi:10.1016/j.cpc.2016.10.020, doi:10.3233/APC200086

@Article{Brown11,
 author = {W. M. Brown and P. Wang and S. J. Plimpton and A. N. Tharrington},
 title = {Implementing Molecular Dynamics on Hybrid High Performance Computers---Short Range Forces},
 journal = {Comput.\ Phys.\ Commun.},
 year =    2011,
 volume =  182,
 pages =   {898--911},
 doi =     {10.1016/j.cpc.2010.12.021}
}

@Article{Brown12,
 author = {W. M. Brown and A. Kohlmeyer and S. J. Plimpton and A. N. Tharrington},
 title = {Implementing Molecular Dynamics on Hybrid High Performance Computers - Particle-Particle Particle-Mesh},
 journal = {Comput.\ Phys.\ Commun.},
 year =    2012,
 volume =  183,
 doi =     {10.1016/j.cpc.2011.10.012},
 pages =   {449--459}
}

@Article{Brown13,
 author = {W. M. Brown and Y. Masako},
 title = {Implementing Molecular Dynamics on Hybrid High Performance Computers---Three-Body Potentials},
 journal = {Comput.\ Phys.\ Commun.},
 year =    2013,
 volume =  184,
 pages =   {2785--2793},
 doi =     {10.1016/j.cpc.2013.08.002},
}

@Article{Trung15,
 author = {T. D. Nguyen and S. J. Plimpton},
 title = {Accelerating Dissipative Particle Dynamics Simulations for Soft Matter Systems},
 journal = {Comput.\ Mater.\ Sci.},
 year =    2015,
 doi =     {10.1016/j.commatsci.2014.10.068},
 volume =  100,
 pages =   {173--180}
}

@Article{Trung17,
 author = {T. D. Nguyen},
 title = {{GPU}-Accelerated {T}ersoff Potentials for Massively Parallel
    Molecular Dynamics Simulations},
 journal = {Comput.\ Phys.\ Commun.},
 year =    2017,
 doi =     {10.1016/j.cpc.2016.10.020},
 volume =  212,
 pages =   {113--122}
}

@inproceedings{Nikolskiy19,
 author = {V. Nikolskiy and V. Stegailov},
 title = {{GPU} Acceleration of Four-Site Water Models in {LAMMPS}},
 booktitle = {Proceedings of the International Conference on Parallel
    Computing (ParCo 2019), Prague, Czech Republic},
 doi =     {10.3233/APC200086},
 year =    2019
}

CITE-CITE-CITE-CITE-CITE-CITE-CITE-CITE-CITE-CITE-CITE-CITE-CITE

Generated 3 of 3 mixed pair_coeff terms from arithmetic mixing rule
Neighbor list info ...
  update: every = 1 steps, delay = 0 steps, check = yes
  max neighbors/atom: 4000, page size: 100000
  master list distance cutoff = 16
  ghost atom cutoff = 16
  binsize = 8, bins = 9 9 9
  1 neighbor lists, perpetual/occasional/extra = 1 0 0
  (1) pair lj/cut/gpu, perpetual
      attributes: full, newton on
      pair build: full/bin
      stencil: full/bin/3d
      bin: standard
Per MPI rank memory allocation (min/avg/max) = 33.35 | 33.35 | 33.35 Mbytes
   Step          Time           Temp          Press         Enthalpy        TotEng         KinEng         PotEng         E_bond        E_angle        E_dihed        E_impro         E_vdwl         E_coul         Volume           Lx             Ly             Lz          Density          Pxx            Pyy            Pzz      
         0   0              600            273.42013      26795.9        25532.193      14377.639      11154.554      3871.8022      3704.0503      10053.179      0             -6474.4774      0              316912.95      68.178378      68.178378      68.178378      0.56999999     6.6393178      574.35472      239.26635    
      1000   500            478.54094     -244.90726      21318.928      22434.139      11467.148      10966.991      3739.8029      3746.921       10053.724      0             -6573.4572      0              312233.56      67.841149      67.841149      67.841149      0.57854248    -288.21479     -102.38806     -344.11893    
      2000   1000           487.73795     -3.1895496      22425.702      22439.779      11687.534      10752.246      3758.695       3763.9287      9983.609       0             -6753.9869      0              302640.48      67.139124      67.139124      67.139124      0.59688109    -112.51725      288.82601     -185.87742    
      3000   1500           488.02368      229.94462      23503.877      22518.541      11694.381      10824.16       3819.2518      3758.7756      10138.231      0             -6892.0985      0              293822.61      66.480621      66.480621      66.480621      0.614794       708.07544      129.62411     -147.8657     
      4000   2000           478.02141      179.32394      22867.024      22122.946      11454.699      10668.248      3869.5373      3738.8919      10101.779      0             -7041.961       0              284514.39      65.771046      65.771046      65.771046      0.6349077     -421.16406      373.62986      585.50601    
      5000   2500           473.10101      764.41246      25033.777      21956.932      11336.793      10620.14       3782.4942      3766.1207      10192.577      0             -7121.0523      0              275995.43      65.107941      65.107941      65.107941      0.65450497     233.14369      1224.5771      835.51657    
      6000   3000           481.61624      798.39402      24949.413      21823.24       11540.841      10282.399      3802.6951      3583.2809      10117.008      0             -7220.585       0              268484.92      64.51192       64.51192       64.51192       0.67281387     1206.1864      592.39444      596.6012     
      7000   3500           478.88023      794.22718      24815.445      21809.157      11475.279      10333.879      3780.9351      3726.056       10096.188      0             -7269.3004      0              259543.38      63.787657      63.787657      63.787657      0.69599301     1436.0223      75.46293       871.19629    
      8000   4000           477.52462      1065.8919      25402.148      21500.449      11442.795      10057.655      3664.0137      3676.6855      10099.995      0             -7383.0397      0              250994.78      63.079498      63.079498      63.079498      0.71969775     1216.9559      738.01258      1242.7074    
      9000   4500           478.02006      608.79754      23739.25       21583.682      11454.667      10129.015      3721.6002      3718.934       10166.607      0             -7478.1261      0              242780.09      62.383685      62.383685      62.383685      0.74404939     1174.7236      253.62555      398.04352    
     10000   5000           483.73917      962.46327      25030.612      21721.217      11591.712      10129.505      3711.1379      3732.4108      10187.608      0             -7501.6509      0              235769.99      61.777384      61.777384      61.777384      0.76617204     947.39685      1227.5809      712.41201    
     11000   5500           486.64215      1164.7443      25446.315      21529.095      11661.275      9867.8192      3676.3436      3688.788       10144.254      0             -7641.5662      0              230606.46      61.32306       61.32306       61.32306       0.7833275      1070.3886      1122.4185      1301.426     
     12000   6000           487.46881      1866.4629      27733.57       21622.363      11681.085      9941.2787      3635.3732      3775.6261      10164.325      0             -7634.0456      0              224507.96      60.777652      60.777652      60.777652      0.80460566     2207.2023      1168.0665      2224.1198    
     13000   6500           476.11554      1028.6134      24571.786      21269.642      11409.029      9860.6124      3638.2261      3736.1239      10239.992      0             -7753.7293      0              220124.29      60.379473      60.379473      60.379473      0.82062902     604.26791      930.647        1550.9252    
     14000   7000           479.66054      1221.7943      25084.24       21249.069      11493.977      9755.0922      3614.0621      3834.884       10149.847      0             -7843.7012      0              215233.91      59.928982      59.928982      59.928982      0.83927472     1407.8725      1068.7287      1188.7817    
     15000   7500           473.45333      1424.6318      25391.129      20971.807      11345.235      9626.5722      3662.5442      3725.8853      10173.752      0             -7935.6098      0              212704.68      59.693313      59.693313      59.693313      0.84925436     1447.3785      1515.5712      1310.9456    
     16000   8000           482.5472       1516.6535      25661.076      21042.247      11563.149      9479.0975      3522.0908      3761.4571      10272.064      0             -8076.514       0              208818.82      59.327568      59.327568      59.327568      0.86505794     1273.3768      1430.0203      1846.5633    
     17000   8500           480.28921      1697.2286      25997.77       20905.659      11509.042      9396.6179      3541.9435      3788.608       10234.222      0             -8168.1558      0              205722.41      59.032866      59.032866      59.032866      0.87807825     1052.3443      1831.6039      2207.7375    
     18000   9000           486.78629      1457.8839      25372.889      21008.045      11664.729      9343.3151      3593.2543      3843.3501      10108.94       0             -8202.2295      0              205290.99      58.991571      58.991571      58.991571      0.87992357     665.30583      1395.4251      2312.9209    
     19000   9500           478.35576      2323.3215      27819.862      20923.589      11462.711      9460.8781      3609.7675      3748.0216      10308.99       0             -8205.9008      0              203530.37      58.822446      58.822446      58.822446      0.88753524     2794.9009      2152.4164      2022.6471    
     20000   10000          480.28301      2017.7732      26896.808      20901.921      11508.893      9393.0279      3584.406       3837.6969      10213.822      0             -8242.8974      0              203719.57      58.840667      58.840667      58.840667      0.88671096     1149.5632      2671.3711      2232.3854    
     21000   10500          481.96173      1585.3974      25531.93       20859.175      11549.12       9310.0549      3571.0905      3779.9644      10304.846      0             -8345.8462      0              202096.6       58.683995      58.683995      58.683995      0.89383185     657.60884      1706.1993      2392.384     
     22000   11000          482.59389      2506.7601      28032.253      20739.871      11564.268      9175.6025      3540.5371      3814.8056      10263.002      0             -8442.7423      0              199471.47      58.428795      58.428795      58.428795      0.90559508     2203.8944      2239.3126      3077.0733    
     23000   11500          472.01552      2419.2902      27616.511      20617.785      11310.781      9307.0037      3624.9505      3819.15        10274.871      0             -8411.9676      0              198360.48      58.320116      58.320116      58.320116      0.91066719     2336.9859      2448.0864      2472.7984    
     24000   12000          474.5692       2114.0095      26715.889      20594.285      11371.975      9222.3106      3668.361       3740.6896      10352.265      0             -8539.0048      0              198555.71      58.339243      58.339243      58.339243      0.90977178     1655.0771      1522.1823      3164.7692    
     25000   12500          484.86836      2757.9054      28876.13       20887.694      11618.77       9268.9235      3704.7233      3778.6497      10276.292      0             -8490.7419      0              198612.47      58.344802      58.344802      58.344802      0.90951178     2813.7024      3005.5208      2454.4931    
     26000   13000          481.23507      2944.0712      29408.068      20955.441      11531.707      9423.7343      3741.4446      3796.0676      10352.45       0             -8466.2277      0              196864.54      58.173139      58.173139      58.173139      0.91758719     2883.2232      1958.4192      3990.5712    
     27000   13500          477.69183      2782.197       28702.68       20712.621      11446.801      9265.8197      3678.476       3768.8443      10236.077      0             -8417.5772      0              196918.36      58.17844       58.17844       58.17844       0.9173364      2643.2281      2542.3501      3161.0129    
     28000   14000          477.39747      2640.1033      28011.269      20497.465      11439.748      9057.717       3667.3535      3780.5614      10171.499      0             -8561.6965      0              195147.54      58.003521      58.003521      58.003521      0.92566056     2547.9796      2546.0325      2826.2979    
     29000   14500          480.37335      2721.3733      28282.295      20584.153      11511.058      9073.0952      3716.6072      3755.899       10245.877      0             -8645.2882      0              193964.34      57.886056      57.886056      57.886056      0.93130717     2226.9222      3189.7024      2747.4953    
     30000   15000          480.66341      2810.8193      28775.996      20823.935      11518.008      9305.9263      3799.5797      3835.5143      10296.434      0             -8625.6016      0              193986.23      57.888234      57.888234      57.888234      0.93120208     2619.3973      2798.7308      3014.3297    
     31000   15500          478.22029      3266.6959      29692.398      20548.506      11459.465      9089.0411      3758.002       3814.6162      10244.678      0             -8728.2555      0              191931.61      57.683132      57.683132      57.683132      0.94117056     2820.5655      3607.2844      3372.2379    
     32000   16000          469.99744      2856.4713      28373.992      20360.748      11262.423      9098.3254      3813.4014      3851.1407      10202.187      0             -8768.4037      0              192354.61      57.725477      57.725477      57.725477      0.93910086     2998.8034      2867.319       2703.2914    
     33000   16500          478.35982      4241.2802      32267.056      20464.99       11462.808      9002.1819      3718.8912      3812.9938      10211.54       0             -8741.2428      0              190802.99      57.569845      57.569845      57.569845      0.94673765     4645.6047      4366.6064      3711.6296    
     34000   17000          476.8831       3248.3163      29342.215      20298.08       11427.422      8870.658       3715.3079      3737.9953      10179.083      0             -8761.7285      0              190911.83      57.580789      57.580789      57.580789      0.94619795     3679.046       2804.0163      3261.8866    
     35000   17500          479.79426      3552.8259      30334.89       20483.807      11497.181      8986.6261      3665.6881      3857.5109      10213.82       0             -8750.3924      0              190122.77      57.501351      57.501351      57.501351      0.95012489     2963.9749      4012.4299      3682.0728    
     36000   18000          486.03067      4149.5785      32061.521      20626.212      11646.623      8979.5894      3662.5909      3902.9055      10236.032      0             -8821.9387      0              188959.19      57.383804      57.383804      57.383804      0.95597563     4599.4354      4140.2676      3709.0325    
     37000   18500          485.77799      4175.0124      32208.713      20721.888      11640.568      9081.3199      3707.7008      3874.2584      10357.993      0             -8858.6319      0              188654.14      57.352909      57.352909      57.352909      0.9575214      4470.6612      4041.0431      4013.3327    
     38000   19000          474.05129      4264.2812      32178.091      20476.768      11359.564      9117.2039      3752.9738      3889.0053      10272.545      0             -8797.3203      0              188153.92      57.302172      57.302172      57.302172      0.96006707     4377.3114      3847.0182      4568.514     
     39000   19500          473.22343      4244.394       31984.855      20368.393      11339.726      9028.6669      3776.6463      3885.7927      10163.557      0             -8797.3294      0              187664.57      57.252453      57.252453      57.252453      0.9625705      3384.7256      4715.4298      4633.0265    
     40000   20000          477.03383      3682.3423      30557.77       20460.48       11431.034      9029.4459      3757.6098      3792.6065      10287.268      0             -8808.0384      0              188020.32      57.288607      57.288607      57.288607      0.96074923     3577.5584      3881.9324      3587.536     
     41000   20500          484.06526      4059.6585      31648.238      20525.958      11599.526      8926.4315      3713.6091      3719.1648      10275.966      0             -8782.3087      0              187857.47      57.272062      57.272062      57.272062      0.9615821      3956.6379      3632.216       4590.1217    
     42000   21000          486.42175      3915.1642      31279.739      20662.301      11655.994      9006.307       3778.8222      3870.2649      10209.667      0             -8852.4471      0              185949         57.077457      57.077457      57.077457      0.97145119     3271.4423      4068.0782      4405.972     
     43000   21500          478.53818      4264.9058      32146.177      20520.145      11467.082      9053.0627      3767.5409      3927.2708      10191.459      0             -8833.2079      0              186915.87      57.176213      57.176213      57.176213      0.96642613     4833.8671      4423.3917      3537.4586    
     44000   22000          479.25477      4729.227       33141.438      20314.641      11484.254      8830.3878      3775.6513      3762.7516      10201.393      0             -8909.4085      0              185973.98      57.080012      57.080012      57.080012      0.97132073     4804.8458      5077.7343      4305.1009    
     45000   22500          473.99268      4225.8716      31598.447      20206.637      11358.16       8848.4776      3813.4012      3736.2116      10246.762      0             -8947.8976      0              184841.95      56.963961      56.963961      56.963961      0.97726939     4431.4515      4337.4493      3908.7141    
     46000   23000          479.67125      4331.6546      31995.106      20306.712      11494.234      8812.4787      3741.4336      3749.5797      10244.258      0             -8922.7931      0              185022.75      56.982528      56.982528      56.982528      0.97631441     4390.7645      4057.1271      4547.0723    
     47000   23500          482.48033      4500.1261      32517.39       20443.181      11561.547      8881.6338      3706.1402      3840.3502      10204.095      0             -8868.9514      0              183974.71      56.874733      56.874733      56.874733      0.98187616     4301.1141      4974.8179      4224.4462    
     48000   24000          479.63505      4417.6762      32433.596      20518.903      11493.366      9025.5366      3794.706       3861.0321      10262.53       0             -8892.7318      0              184932.44      56.973255      56.973255      56.973255      0.97679118     4793.6117      4154.3482      4305.0687    
     49000   24500          477.83984      4910.9804      33569.158      20401.472      11450.348      8951.1243      3763.7475      3930.8511      10191.331      0             -8934.8051      0              183850.72      56.861954      56.861954      56.861954      0.9825383      4364.6763      4958.7005      5409.5645    
     50000   25000          478.05637      4293.6965      31704.287      20225.102      11455.537      8769.565       3629.4834      3799.1892      10214.176      0             -8873.2836      0              183317.47      56.806925      56.806925      56.806925      0.98539644     3658.3701      4802.269       4420.4503    
     51000   25500          476.95164      4835.9388      33280.101      20370.485      11429.064      8941.421       3839.8304      3839.4038      10200.788      0             -8938.6011      0              183044.48      56.778714      56.778714      56.778714      0.986866       4097.2184      5675.445       4735.1529    
     52000   26000          489.14909      5307.1442      34614.038      20482.003      11721.349      8760.6549      3707.3432      3783.5511      10189.515      0             -8919.7541      0              182586.19      56.731288      56.731288      56.731288      0.98934306     5351.9009      4935.8253      5633.7065    
     53000   26500          473.39539      5148.856       34058.99       20387.153      11343.847      9043.3061      3811.307       3841.2275      10295.068      0             -8904.2968      0              182070.77      56.677855      56.677855      56.677855      0.99214377     5770.5932      4366.4305      5309.5443    
     54000   27000          474.78393      4524.2091      32272.457      20243.357      11377.12       8866.2366      3786.5444      3879.9795      10095.766      0             -8896.0531      0              182311.73      56.702847      56.702847      56.702847      0.99083247     5325.4669      3791.8909      4455.2695    
     55000   27500          478.81486      5510.3806      35005.814      20337.097      11473.712      8863.3844      3824.9998      3809.817       10211.506      0             -8982.9386      0              182530.17      56.725485      56.725485      56.725485      0.98964668     5567.472       5039.1777      5924.492     
     56000   28000          476.11625      5635.9102      35073.396      20228.376      11409.046      8819.3302      3801.0512      3760.2893      10209.371      0             -8951.3811      0              180609.6       56.525829      56.525829      56.525829      1.0001704      5816.3751      5304.4658      5786.8896    
     57000   28500          475.15368      6052.7292      36350.563      20423.794      11385.98       9037.8138      3846.7348      3814.4983      10347.655      0             -8971.074       0              180426.59      56.506731      56.506731      56.506731      1.0011849      6593.6319      5371.9129      6192.6428    
     58000   29000          481.74895      5778.5227      35714.813      20502.55       11544.021      8958.529       3792.15        3868.7144      10293.961      0             -8996.2967      0              180509.94      56.51543       56.51543       56.51543       1.0007226      5615.0708      5420.6227      6299.8745    
     59000   29500          477.48002      6744.7766      38055.774      20386.672      11441.726      8944.9463      3861.1347      3750.6322      10262.929      0             -8929.7497      0              179626.75      56.423108      56.423108      56.423108      1.005643       6450.1641      6770.4299      7013.7357    
     60000   30000          473.91219      6030.1068      36007.566      20172.644      11356.231      8816.4136      3851.9854      3833.7168      10145.886      0             -9015.1741      0              180059.08      56.468338      56.468338      56.468338      1.0032284      6541.6615      6337.4085      5211.2503    
     61000   30500          481.21393      6598.1155      37484.262      20283.377      11531.201      8752.1768      3809.3769      3720.9291      10228.666      0             -9006.7954      0              178753.68      56.331545      56.331545      56.331545      1.0105547      6309.8007      7217.0318      6267.5141    
     62000   31000          485.14265      6699.8906      37924.217      20477.727      11625.343      8852.3834      3816.1827      3810.038       10198.018      0             -8971.8555      0              178551.9       56.310341      56.310341      56.310341      1.0116968      6477.1384      6929.4635      6693.07      
     63000   31500          480.40336      6237.8623      36627.317      20360.582      11511.777      8848.8052      3763.74        3835.1616      10219.657      0             -8969.7537      0              178808.73      56.337328      56.337328      56.337328      1.0102436      6874.8222      5889.0229      5949.7419    
     64000   32000          481.36199      6834.3685      38053.531      20360.467      11534.748      8825.7185      3704.3963      3925.1395      10251.013      0             -9054.8303      0              177512.44      56.200856      56.200856      56.200856      1.017621       6869.6545      6906.6933      6726.7576    
     65000   32500          479.57043      5899.0304      35561.097      20228.321      11491.818      8736.5034      3776.5135      3812.7732      10190.2        0             -9042.9834      0              178223.21      56.275767      56.275767      56.275767      1.0135626      6025.993       5527.7726      6143.3256    
     66000   33000          474.10176      6466.5599      37006.468      20243.009      11360.773      8882.2359      3824.001       3894.1787      10199.496      0             -9035.4397      0              177751.98      56.226124      56.226124      56.226124      1.0162496      6172.0653      6869.2495      6358.3649    
     67000   33500          479.25597      6335.3614      36814.085      20415.346      11484.282      8931.0633      3833.9883      3889.2826      10238.572      0             -9030.7798      0              177485.62      56.198026      56.198026      56.198026      1.0177747      6117.24        6557.6896      6331.1545    
     68000   34000          482.75237      6375.9526      37044.884      20540.002      11568.066      8971.9368      3847.4449      3968.6614      10205.253      0             -9049.423       0              177497.17      56.199244      56.199244      56.199244      1.0177085      6077.8765      6251.6785      6798.3028    
     69000   34500          476.23554      6422.6819      36792.082      20236.401      11411.905      8824.4959      3841.9915      3755.0021      10214.144      0             -8986.6419      0              176748.11      56.120077      56.120077      56.120077      1.0220216      6548.0532      6394.2783      6325.7142    
     70000   35000          479.5873       6978.3247      38392.198      20399.886      11492.222      8907.6642      3915.8985      3743.2235      10279.961      0             -9031.4183      0              176790.9       56.124606      56.124606      56.124606      1.0217742      7632.7565      6324.422       6977.7957    
     71000   35500          482.04013      7866.3768      40483.1        20371.843      11550.998      8820.8442      3829.2006      3826.3822      10211.326      0             -9046.0644      0              175302.69      55.966678      55.966678      55.966678      1.0304484      7985.9273      7792.2778      7820.9254    
     72000   36000          484.79328      6908.1033      38291.66       20558.627      11616.971      8941.6555      3811.7789      3951.994       10202.532      0             -9024.6497      0              176014.45      56.04232       56.04232       56.04232       1.0262815      6068.5008      7368.5551      7287.2539    
     73000   36500          477.57922      6815.2164      37502.145      20052.797      11444.103      8608.6937      3763.4875      3777.4246      10112.983      0             -9045.2012      0              175559.23      55.993965      55.993965      55.993965      1.0289426      6516.521       7037.2594      6891.8688    
     74000   37000          477.09183      7094.3407      38314.446      20212.813      11432.424      8780.3889      3809.4236      3779.4001      10247.848      0             -9056.2825      0              174956.4       55.929801      55.929801      55.929801      1.032488       7170.8607      6844.8435      7267.3179    
     75000   37500          481.53549      7310.6102      38778.626      20094.703      11538.906      8555.7972      3754.1125      3675.0598      10227.316      0             -9100.6911      0              175242.14      55.960234      55.960234      55.960234      1.0308044      7136.1037      7775.1717      7020.5551    
     76000   38000          472.00383      7356.8975      38809.981      20035.867      11310.501      8725.3661      3817.5425      3802.4937      10146.319      0             -9040.9887      0              174980.18      55.932335      55.932335      55.932335      1.0323477      7918.7803      7054.6641      7097.248     
     77000   38500          473.08683      7620.3819      39453.105      20104.555      11336.453      8768.1017      3851.5728      3791.9972      10166.248      0             -9041.7164      0              174098.81      55.838267      55.838267      55.838267      1.0375739      8344.5443      6796.1201      7720.4814    
     78000   39000          480.92566      7753.1473      40074.081      20375.898      11524.293      8851.6057      3877.7988      3863.5474      10197.938      0             -9087.6783      0              174209.66      55.850116      55.850116      55.850116      1.0369137      7519.0996      8271.111       7469.2313    
     79000   39500          475.38949      7552.7635      39697.621      20508.745      11391.631      9117.1141      4052.6935      3847.5422      10199.343      0             -8982.4644      0              174207.86      55.849924      55.849924      55.849924      1.0369244      7369.3845      6740.4818      8548.4243    
     80000   40000          476.52943      7943.9031      40439.467      20319.816      11418.947      8900.8693      3870.1618      3772.8372      10260.657      0             -9002.7869      0              173664.33      55.791778      55.791778      55.791778      1.0401698      8547.3612      7861.5776      7422.7706    
     81000   40500          480.78582      8354.4402      41754.752      20566.229      11520.942      9045.2868      3991.5572      3840.7858      10265.015      0             -9052.071       0              173903.15      55.817342      55.817342      55.817342      1.0387413      7637.645       8709.4097      8716.2659    
     82000   41000          472.7083       8012.4908      40552.255      20264.466      11327.382      8937.0838      3931.5366      3868.4095      10104.965      0             -8967.8278      0              173616.61      55.786668      55.786668      55.786668      1.0404556      7860.2565      8590.8749      7586.341     
     83000   41500          474.14795      7629.1373      39520.342      20243.913      11361.88       8882.0325      3838.815       3812.0734      10244.011      0             -9012.8668      0              173250.8       55.74746       55.74746       55.74746       1.0426525      7942.3094      7514.4378      7430.6647    
     84000   42000          480.38192      8618.7397      41913.718      20165.352      11511.263      8654.0888      3770.3575      3790.5788      10182.613      0             -9089.4606      0              173024.25      55.72315       55.72315       55.72315       1.0440177      8965.5218      8831.4339      8059.2634    
     85000   42500          481.21153      8165.286       40926.459      20304.09       11531.143      8772.9468      3806.0623      3849.5641      10211.726      0             -9094.4058      0              173177.42      55.739588      55.739588      55.739588      1.0430943      8532.4504      8476.1731      7487.2347    
     86000   43000          476.35906      7878.9882      39917.103      20077.829      11414.865      8662.9643      3778.9987      3753.2043      10215.164      0             -9084.4025      0              172655.11      55.683494      55.683494      55.683494      1.0462498      7571.3667      7458.7032      8606.8945    
     87000   43500          481.41009      8499.3045      41507.565      20205.852      11535.901      8669.951       3731.3916      3771.2349      10171.792      0             -9004.4678      0              171852.26      55.59705       55.59705       55.59705       1.0511376      8048.8344      8847.8351      8601.2441    
     88000   44000          485.36123      8038.2564      40553.178      20382.725      11630.581      8752.1437      3744.3907      3812.2819      10253.005      0             -9057.5337      0              172059.21      55.619358      55.619358      55.619358      1.0498734      8267.9294      7449.5774      8397.2625    
     89000   44500          484.49385      8754.5759      42450.076      20456.399      11609.796      8846.6025      3889.4848      3791.1992      10232.385      0             -9066.467       0              172260.95      55.641088      55.641088      55.641088      1.0486438      8102.8105      9200.8897      8960.0276    
     90000   45000          475.86225      8144.1018      40645.593      20269.488      11402.959      8866.5284      3835.7858      3925.2178      10175.135      0             -9069.61        0              171554.49      55.564921      55.564921      55.564921      1.0529621      7633.3274      8125.136       8673.8419    
     91000   45500          478.85043      9125.1057      42938.851      20146.422      11474.564      8671.8573      3792.477       3753.0058      10131.517      0             -9005.1426      0              171268.23      55.533998      55.533998      55.533998      1.054722       8777.2689      8806.3812      9791.667     
     92000   46000          477.57493      9259.2327      43458.579      20335.488      11444          8891.4879      3805.8773      3799.322       10246.754      0             -8960.4652      0              171235.97      55.530511      55.530511      55.530511      1.0549207      9097.8948      8507.0484      10172.755    
     93000   46500          482.36558      9361.3037      43621.246      20277.301      11558.797      8718.5039      3706.6585      3779.3303      10216.648      0             -8984.1328      0              170986.58      55.503539      55.503539      55.503539      1.0564594      9202.2489      9229.9207      9651.7415    
     94000   47000          479.31567      9719.6949      44477.846      20293.212      11485.713      8807.4993      3775.2112      3825.805       10174.398      0             -8967.9153      0              170612.56      55.463039      55.463039      55.463039      1.0587754      9676.2516      8972.2643      10510.569    
     95000   47500          486.76893      8962.8195      42682.325      20429.191      11664.313      8764.878       3741.1757      3794.3945      10169.651      0             -8940.3437      0              170243.54      55.423024      55.423024      55.423024      1.0610704      9141.2712      9202.5171      8544.6702    
     96000   48000          481.91947      9341.0296      43653.152      20495.909      11548.107      8947.8023      3878.2212      3796.0383      10187.151      0             -8913.6086      0              169987.2       55.395192      55.395192      55.395192      1.0626705      9599.0852      9447.2313      8976.7722    
     97000   48500          478.03497      9184.896       43013.484      20320.666      11455.024      8865.6422      3784.5372      3824.2571      10316.798      0             -9059.95        0              169409.71      55.33239       55.33239       55.33239       1.066293       8749.9055      9674.8597      9129.9228    
     98000   49000          480.85383      10019.619      45249.169      20421.117      11522.572      8898.5453      3792.0714      3785.0345      10290.427      0             -8968.9879      0              169908.68      55.386662      55.386662      55.386662      1.0631616      9866.9914      10479.28       9712.5843    
     99000   49500          477.83812      9356.3635      43453.061      20328.136      11450.307      8877.8294      3762.6026      3799.0228      10342.559      0             -9026.3554      0              169471.76      55.339146      55.339146      55.339146      1.0659025      9057.7118      10201.95       8809.4291    
    100000   50000          488.41044      10021.905      45495.862      20718.591      11703.648      9014.943       3786.0988      3929.8779      10256.297      0             -8957.3305      0              169522.47      55.344665      55.344665      55.344665      1.0655837      9982.3158      10153.018      9930.3815    
    101000   50500          478.75176      9128.8731      42673.861      20223.771      11472.2        8751.5713      3722.084       3816.1699      10214.239      0             -9000.9221      0              168626.19      55.246954      55.246954      55.246954      1.0712475      8456.6251      10451.945      8478.0489    
    102000   51000          483.27099      10267.697      45854.235      20532.613      11580.493      8952.1201      3695.0292      3926.312       10285.879      0             -8955.1005      0              169099.59      55.298606      55.298606      55.298606      1.0682485      10179.968      10937.497      9685.6277    
    103000   51500          483.05354      9818.0711      44607.98       20450.85       11575.282      8875.5675      3778.1718      3874.23        10315.292      0             -9092.1264      0              168710.95      55.25621       55.25621       55.25621       1.0707093      10310.678      9824.94        9318.5954    
    104000   52000          475.39051      10275.81       45694.201      20331.313      11391.655      8939.6581      3785.5274      3744.8784      10294.469      0             -8885.2166      0              169241.46      55.314066      55.314066      55.314066      1.067353       10083.562      10294.761      10449.106    
    105000   52500          473.08292      10567.419      46394.99       20527.689      11336.359      9191.3302      3885.446       3897.1321      10276.538      0             -8867.7862      0              167844.18      55.161419      55.161419      55.161419      1.0762386      10133.779      11046.046      10522.432    
    106000   53000          477.15389      11176.929      47937.102      20537.94       11433.911      9104.0287      3900.0216      3891.9281      10195.774      0             -8883.6954      0              168088.84      55.188209      55.188209      55.188209      1.074672       10872.709      12215.03       10443.049    
    107000   53500          476.09463      10663.379      46488.183      20374.865      11408.528      8966.337       3861.6214      3872.4152      10223.229      0             -8990.9286      0              167915.71      55.169254      55.169254      55.169254      1.0757801      10617.824      11479.278      9893.0335    
    108000   54000          473.89265      11175.545      47800.07       20447.61       11355.762      9091.8471      3860.4951      3966.6585      10201.377      0             -8936.6831      0              167823.12      55.159112      55.159112      55.159112      1.0763736      11691.341      11106.058      10729.236    
    109000   54500          480.4082       10017.616      44923.977      20453.834      11511.893      8941.9413      3895.7408      3810.2616      10253.408      0             -9017.4696      0              167492.83      55.122903      55.122903      55.122903      1.0784962      9102.8895      10592.349      10357.609    
    110000   55000          484.76635      10226.566      45790.671      20729.701      11616.326      9113.3745      3888.4417      3912.3061      10274.806      0             -8962.1794      0              168032.06      55.181994      55.181994      55.181994      1.0750352      10700.885      9973.0079      10005.806    
    111000   55500          491.21228      11092.68       47617.139      20583.678      11770.788      8812.8894      3743.5931      3896.7304      10149.925      0             -8977.3593      0              167104.93      55.080316      55.080316      55.080316      1.0809997      10714.34       11632.582      10931.12     
    112000   56000          476.34645      11834.753      49288.253      20477.584      11414.562      9063.0216      3839.2851      3876.3984      10191.854      0             -8844.5154      0              166923.79      55.060407      55.060407      55.060407      1.0821727      11696.995      12284.37       11522.895    
    113000   56500          475.03892      11382.729      48196.239      20489.731      11383.23       9106.5007      3835.5844      3904.3522      10158.191      0             -8791.6272      0              166901.22      55.057925      55.057925      55.057925      1.0823191      11620.949      11939.888      10587.349    
    114000   57000          479.13779      11456.273      48430.037      20497.725      11481.45       9016.2746      3813.1634      3792.4629      10335.051      0             -8924.4026      0              167181.28      55.088703      55.088703      55.088703      1.080506       11679.519      10953.344      11735.956    
    115000   57500          472.62026      11293.02       47855.023      20364.354      11325.273      9039.0816      3883.289       3880.2577      10245.192      0             -8969.657       0              166916.53      55.059608      55.059608      55.059608      1.0822199      11745.917      10571.118      11562.025    
    116000   58000          473.71336      10924.907      47193.221      20585.566      11351.466      9234.1         3856.8706      3869.2296      10318.651      0             -8810.6508      0              166998.65      55.068636      55.068636      55.068636      1.0816876      10355.156      11245.827      11173.737    
    117000   58500          480.09776      11763.72       49158.184      20620.509      11504.454      9116.0546      3898.7072      3772.2075      10255.27       0             -8810.1303      0              166340.51      54.996199      54.996199      54.996199      1.0859675      10963.442      11764.976      12562.742    
    118000   59000          476.83441      11012.952      47323.078      20630.849      11426.255      9204.5939      3940.5064      3858.1928      10232.727      0             -8826.8319      0              166190.12      54.97962       54.97962       54.97962       1.0869502      11040.654      10784.299      11213.903    
    119000   59500          480.98326      11805.809      49339.476      20742.927      11525.673      9217.2537      3894.7608      3834.5955      10342.586      0             -8854.689       0              166089.43      54.968515      54.968515      54.968515      1.0876091      10936.624      12144.215      12336.586    
    120000   60000          484.66606      11315.472      48296.777      20852.075      11613.923      9238.1519      3929.046       3894.5728      10314.783      0             -8900.25        0              166306.78      54.992481      54.992481      54.992481      1.0861877      10852.616      11462.975      11630.826    
    121000   60500          478.25395      11676.838      48737.231      20551.997      11460.271      9091.7259      3814.023       3905.2497      10270.797      0             -8898.3438      0              165508.57      54.904359      54.904359      54.904359      1.0914261      11497.978      11569.302      11963.234    
    122000   61000          479.92923      11989.665      49558.302      20589.183      11500.415      9088.7672      3807.0614      3810.872       10321.443      0             -8850.6091      0              165673.24      54.922562      54.922562      54.922562      1.0903413      11852.404      11728.079      12388.512    
    123000   61500          480.83154      12809.381      51621.111      20742.664      11522.037      9220.6271      3855.3348      3891.7989      10287.633      0             -8814.1399      0              165291.83      54.880383      54.880383      54.880383      1.0928572      12656.048      12556.509      13215.587    
    124000   62000          473.36903      12478.903      50486.866      20508.844      11343.215      9165.6291      3849.0612      3853.7105      10268.73       0             -8805.873       0              164721.65      54.817206      54.817206      54.817206      1.0966402      12274.154      12581.517      12581.037    
    125000   62500          478.3123       12478.897      50745.373      20730.852      11461.669      9269.183       3838.2451      3958.4109      10328.078      0             -8855.5511      0              164922.27      54.839452      54.839452      54.839452      1.0953061      13214.636      11752.574      12469.481    
    126000   63000          485.4103       12580.895      50954.628      20721.649      11631.757      9089.8919      3858.3494      3922.6743      10187.46       0             -8878.592       0              164775.83      54.823216      54.823216      54.823216      1.0962796      13158.272      12434.598      12149.815    
    127000   63500          480.92406      11702.38       48916.288      20787.035      11524.254      9262.7804      3813.7745      4058.1154      10290.528      0             -8899.6372      0              164819.32      54.828038      54.828038      54.828038      1.0959903      11210.901      11722.209      12174.031    
    128000   64000          483.78604      12288.966      50451.871      20953.637      11592.835      9360.8013      3961.3801      3841.2217      10356.162      0             -8797.9626      0              164590.51      54.802655      54.802655      54.802655      1.0975139      12514.127      11492.398      12860.373    
    129000   64500          481.06198      12876.205      51564.848      20678.828      11527.559      9151.2688      3804.009       3895.4526      10277.358      0             -8825.5509      0              164474.34      54.789759      54.789759      54.789759      1.0982891      11766.228      13474.019      13388.368    
    130000   65000          477.91878      13441.793      52922.14       20778.504      11452.24       9326.2648      3917.0555      3914.3922      10308.438      0             -8813.6211      0              163969.06      54.733594      54.733594      54.733594      1.1016736      12554.444      13398.623      14372.313    
    131000   65500          484.40724      13809.816      53774.935      20805.495      11607.721      9197.7746      3892.2927      3858.5656      10267.233      0             -8820.3168      0              163699.67      54.703603      54.703603      54.703603      1.1034865      12384.401      14174.607      14870.439    
    132000   66000          478.7771       13482.229      52937.882      20753.843      11472.807      9281.0358      3925.7803      3896.5887      10198.022      0             -8739.3548      0              163682.77      54.701721      54.701721      54.701721      1.1036005      12730.115      13972.972      13743.6      
    133000   66500          485.37717      12975.074      51871.137      20878.897      11630.963      9247.9341      3842.579       3885.7094      10276.413      0             -8756.7678      0              163782.4       54.712817      54.712817      54.712817      1.1029291      11213.483      14000.551      13711.189    
    134000   67000          483.56573      13892.22       54063.681      20944.18       11587.556      9356.6239      3888.4263      3879.48        10322.047      0             -8733.3295      0              163469.31      54.677932      54.677932      54.677932      1.1050415      12939.569      14509.506      14227.585    
    135000   67500          486.78197      13681.886      53774.777      21178.013      11664.626      9513.387       3923.4572      3896.0032      10402          0             -8708.0733      0              163362.6       54.666031      54.666031      54.666031      1.1057634      12316.228      14545.759      14183.672    
    136000   68000          481.89589      12738.87       51351.008      20935.273      11547.542      9387.7306      3872.2955      3965.285       10284.477      0             -8734.3269      0              163716.14      54.705438      54.705438      54.705438      1.1033755      12104.662      12678.791      13433.159    
    137000   68500          473.17485      13885.514      53740.739      20668.579      11338.562      9330.0165      3955.4278      3772.0049      10318.989      0             -8716.4053      0              163314.49      54.660665      54.660665      54.660665      1.1060891      12955.001      14536.56       14164.98     
    138000   69000          476.93014      13163.735      52085.636      20824.139      11428.549      9395.5897      3872.6407      3926.6038      10222.515      0             -8626.1698      0              162837.62      54.60741       54.60741       54.60741       1.1093283      12454.199      13091.733      13945.274    
    139000   69500          482.64219      13972.238      54107.201      20956.715      11565.425      9391.2898      3889.221       3839.558       10276.058      0             -8613.5472      0              162685.2       54.590367      54.590367      54.590367      1.1103676      13207.338      14327.639      14381.736    
    140000   70000          482.01377      14454.834      55407.673      21119.777      11550.367      9569.4097      3962.2489      3990.4349      10276.008      0             -8659.2826      0              162649.17      54.586337      54.586337      54.586337      1.1106136      13788.771      15259.959      14315.771    
    141000   70500          477.56551      14088.137      54201.36       20816.072      11443.774      9372.2977      3838.1087      3782.8988      10313.123      0             -8561.8326      0              162489.64      54.568484      54.568484      54.568484      1.111704       13304.725      14012.313      14947.374    
    142000   71000          478.61891      14419.715      55005.581      20936.6        11469.017      9467.5834      3841.2168      3944.7471      10286.93       0             -8605.3107      0              162004.31      54.514102      54.514102      54.514102      1.1150344      13140.092      14482.496      15636.557    
    143000   71500          481.47068      14676.996      55761.983      20944.673      11537.353      9407.3201      3934.5697      3897.6583      10205.131      0             -8630.0388      0              162660.51      54.587605      54.587605      54.587605      1.1105362      14346.831      14538.899      15145.259    
    144000   72000          478.32685      14632.422      55316.127      20788.362      11462.018      9326.3441      3864.3372      3947.1776      10246          0             -8731.1708      0              161799.2       54.491085      54.491085      54.491085      1.1164479      13538.691      14921.782      15436.792    
    145000   72500          480.39819      14523.081      55120.875      20908.535      11511.653      9396.8822      3860.4239      3868.2705      10310.74       0             -8642.5522      0              161528.11      54.460636      54.460636      54.460636      1.1183216      14104.847      14888.131      14576.267    
    146000   73000          482.89795      15105.973      56894.172      21214.335      11571.554      9642.7805      3999.8342      3903.1452      10337.828      0             -8598.0266      0              161956.46      54.508734      54.508734      54.508734      1.1153638      14670.286      15998.253      14649.379    
    147000   73500          485.72734      14305.373      54873.414      21157.081      11639.354      9517.7266      3868.8238      3910.9478      10331.065      0             -8593.1104      0              161608.89      54.469713      54.469713      54.469713      1.1177626      14406.396      14099.441      14410.283    
    148000   74000          479.73936      14860.881      55889.488      20912.753      11495.866      9416.8876      3781.2793      3911.804       10317.377      0             -8593.5727      0              161383.38      54.444365      54.444365      54.444365      1.1193245      15273.281      14190.152      15119.21     
    149000   74500          485.81585      14432.764      55023.742      21018.083      11641.475      9376.6082      3800.8012      3903.5049      10270.066      0             -8597.7641      0              161557         54.463882      54.463882      54.463882      1.1181216      13596.051      14513.295      15188.947    
    150000   75000          479.81507      15619.89       57884.597      21086.527      11497.68       9588.8467      3959.0648      3917.2244      10362.23       0             -8649.6722      0              161536.69      54.4616        54.4616        54.4616        1.1182622      15909.699      15380.433      15569.539    
    151000   75500          484.82748      14638.935      55605.572      21224.671      11617.791      9606.8801      3986.5197      3948.7447      10329.947      0             -8658.3313      0              161039.3       54.405644      54.405644      54.405644      1.1217161      14092.73       15739.109      14084.967    
    152000   76000          478.18762      15449.046      57120.814      20946.646      11458.682      9487.9643      3927.7768      3860.6024      10323.901      0             -8624.3155      0              160553.95      54.350932      54.350932      54.350932      1.1251071      15307.62       15714.063      15325.456    
    153000   76500          476.54754      15986.917      58407.042      20987.622      11419.381      9568.2414      3963.129       3912.8917      10325.311      0             -8633.0903      0              160493.13      54.344068      54.344068      54.344068      1.1255334      15642.298      16015.27       16303.182    
    154000   77000          475.95324      15159.442      56459.763      21016.638      11405.14       9611.4983      3810.1606      4016.2639      10319.338      0             -8534.264       0              160314.54      54.323904      54.323904      54.323904      1.1267872      15191.568      15283.613      15003.144    
    155000   77500          470.53283      15497.283      57094.597      20781.57       11275.252      9506.318       3810.4935      4035.7341      10265.836      0             -8605.7454      0              160668.59      54.363865      54.363865      54.363865      1.1243042      15514.344      15518.84       15458.666    
    156000   78000          477.97582      15289.109      56746.574      21020.121      11453.607      9566.5142      3821.582       3957.8715      10298.99       0             -8511.9291      0              160225.57      54.313853      54.313853      54.313853      1.1274129      14683.726      14900.129      16283.473    
    157000   78500          483.33713      15601.8        57656.017      21148.825      11582.078      9566.7469      3909.564       3942.7352      10313.596      0             -8599.1481      0              160445.61      54.338704      54.338704      54.338704      1.1258668      14718.309      15989.406      16097.684    
    158000   79000          479.69209      15054.772      56306.617      21121.095      11494.733      9626.3616      3860.0822      3981.8895      10230.779      0             -8446.3887      0              160255.86      54.317275      54.317275      54.317275      1.1271998      14658.505      15093.086      15412.725    
    159000   79500          470.64989      16137.15       58381.908      20776.854      11278.057      9498.797       3828.0644      3888.3374      10225.39       0             -8442.9948      0              159787.75      54.264336      54.264336      54.264336      1.130502       16482.894      16026.119      15902.438    
    160000   80000          478.09822      15996.105      58155.131      20815.524      11456.539      9358.9844      3883.8546      3824.2707      10232.819      0             -8581.9595      0              160058.82      54.295004      54.295004      54.295004      1.1285875      16406.789      15135.382      16446.145    
    161000   80500          482.52778      15639.221      57575.897      21087.753      11562.684      9525.0694      3926.3487      3904.4285      10252.479      0             -8558.1867      0              159978.18      54.285885      54.285885      54.285885      1.1291563      16137.43       15349.701      15430.533    
    162000   81000          483.52643      15761.296      57763.63       21056.185      11586.614      9469.5712      3877.7994      3864.6678      10250.593      0             -8523.4895      0              159693.17      54.253627      54.253627      54.253627      1.1311716      15004.456      16043.51       16235.923    
    163000   81500          480.7529       16564.218      59571.455      21015.952      11520.153      9495.7987      3927.6143      3815.6586      10255.636      0             -8503.1102      0              159602.45      54.243351      54.243351      54.243351      1.1318146      16432.989      17117.188      16142.478    
    164000   82000          477.68417      15715.367      57561.163      21005.745      11446.618      9559.1275      3893.3402      3862.8167      10245.799      0             -8442.828       0              159496.57      54.231354      54.231354      54.231354      1.1325659      15122.126      15836.601      16187.372    
    165000   82500          478.15596      16460.046      59323.248      21033.605      11457.923      9575.6823      3964.8185      3859.169       10253.243      0             -8501.5482      0              159505.03      54.232313      54.232313      54.232313      1.1325058      16112.485      16769.279      16498.372    
    166000   83000          480.24933      16080.558      58652.632      21311.487      11508.086      9803.4011      3936.9471      3947.6715      10335.257      0             -8416.4745      0              159224.77      54.200531      54.200531      54.200531      1.1344993      15014.772      16962.175      16264.728    
    167000   83500          481.79881      16773.529      60028.184      21075.482      11545.216      9530.2663      3915.5194      3879.6192      10206.035      0             -8470.9069      0              159234.54      54.201639      54.201639      54.201639      1.1344296      16877.807      16696.664      16746.114    
    168000   84000          473.45226      16110.08       58437.164      21072.305      11345.21       9727.0956      3845.9494      3968.3165      10346.885      0             -8434.0552      0              159033.92      54.178867      54.178867      54.178867      1.1358607      15562.569      16597.238      16170.434    
    169000   84500          486.01272      16851.851      60415.537      21381.703      11646.192      9735.5106      3941.5416      3901.904       10299.427      0             -8407.362       0              158824.58      54.155085      54.155085      54.155085      1.1373578      16735.582      17050.632      16769.338    
    170000   85000          486.77745      17666.705      62253.641      21382.923      11664.517      9718.4052      3892.5702      3985.1038      10291.767      0             -8451.0361      0              158628.35      54.132773      54.132773      54.132773      1.1387648      16898.042      17899.567      18202.508    
    171000   85500          480.13695      16933.017      60331.681      21283.861      11505.393      9778.4684      3842.6255      4023.0976      10339.249      0             -8426.5042      0              158119.91      54.074875      54.074875      54.074875      1.1424265      16111.438      17278.218      17409.395    
    172000   86000          479.58125      16954.691      60340.325      21221.981      11492.077      9729.9042      3878.357       3868.3751      10313.638      0             -8330.4658      0              158202.99      54.084344      54.084344      54.084344      1.1418266      17196.924      15752.615      17914.533    
    173000   86500          481.39913      16927.744      60456.223      21269.846      11535.638      9734.208       3902.5229      3914.5355      10328.734      0             -8411.5849      0              158730.41      54.144379      54.144379      54.144379      1.1380326      16607.578      17474.252      16701.401    
    174000   87000          481.62672      17904.366      62467.652      21190.137      11541.092      9649.045       3802.4575      3917.1201      10340.968      0             -8411.501       0              158080.65      54.070398      54.070398      54.070398      1.1427103      18203.152      17340.478      18169.469    
    175000   87500          478.73409      17975.559      62764.591      21250.737      11471.777      9778.9598      3857.4967      3951.5902      10331.331      0             -8361.4579      0              158356.09      54.101784      54.101784      54.101784      1.1407227      17741.426      17866.948      18318.302    
    176000   88000          470.35678      17741.185      61729.299      20820.514      11271.033      9549.48        3819.0453      3859.0932      10271.582      0             -8400.2405      0              158109.54      54.073692      54.073692      54.073692      1.1425014      17518.943      18150.635      17553.976    
    177000   88500          480.03299      17048.585      60440.735      21126.117      11502.902      9623.2154      3858.8678      3961.865       10222.411      0             -8419.9287      0              158121.1       54.07501       54.07501       54.07501       1.1424179      16866.797      16665.616      17613.343    
    178000   89000          481.94889      18152.244      63153.039      21346.162      11548.812      9797.3504      4020.7242      3844.9456      10326.887      0             -8395.2066      0              157921.59      54.052258      54.052258      54.052258      1.1438612      18228.835      17691.309      18536.587    
    179000   89500          477.15766      18157.488      62863.854      21118.157      11434.001      9684.1556      3901.4203      3971.3571      10211.144      0             -8399.766       0              157644.95      54.020677      54.020677      54.020677      1.1458685      17598.841      18161.078      18712.545    
    180000   90000          478.43463      18224.712      63042.386      21280.885      11464.601      9816.284       3846.7146      3877.1896      10398.65       0             -8306.2697      0              157122.92      53.960982      53.960982      53.960982      1.1496755      17340.973      18415.143      18918.019    
    181000   90500          479.02854      18344.37       63523.61       21470.805      11478.833      9991.9728      3911.0923      3961.5747      10356.556      0             -8237.2508      0              157186.88      53.968303      53.968303      53.968303      1.1492077      17830.124      17816.063      19386.921    
    182000   91000          482.47205      18683.863      64267.959      21399.327      11561.348      9837.979       3941.7136      3828.325       10362.887      0             -8294.9471      0              157324.75      53.984078      53.984078      53.984078      1.1482006      18585.369      18241.747      19224.472    
    183000   91500          476.07473      18052.149      62666.714      21254.314      11408.051      9846.2626      3907.2527      3966.7561      10355.683      0             -8383.4293      0              157298.88      53.981118      53.981118      53.981118      1.1483895      18941.267      16757.164      18458.015    
    184000   92000          478.26997      18651.439      63991.105      21224.826      11460.655      9764.1713      3873.8438      3836.2464      10352.362      0             -8298.2807      0              157221.97      53.972319      53.972319      53.972319      1.1489513      18776.653      18832.339      18345.324    
    185000   92500          479.3867       18435.983      63551.087      21346.671      11487.415      9859.2561      3868.7476      3877.0789      10379.809      0             -8266.3796      0              156969.66      53.943431      53.943431      53.943431      1.1507981      17958.594      18510.593      18838.761    
    186000   93000          477.84813      19431.075      65869.131      21445.353      11450.547      9994.8066      3993.1891      3954.8896      10341.345      0             -8294.6173      0              156762.71      53.919715      53.919715      53.919715      1.1523173      19274.57       19215.287      19803.369    
    187000   93500          475.37285      19813.635      66452.779      21304.388      11391.232      9913.1555      3932.607       3881.593       10279.321      0             -8180.3657      0              156243.6       53.860131      53.860131      53.860131      1.1561458      19762.979      19599.005      20078.922    
    188000   94000          489.57333      19383.478      65536.853      21423.354      11731.515      9691.8393      3846.2975      3864.4645      10269.475      0             -8288.3979      0              156050.05      53.837882      53.837882      53.837882      1.1575798      18219.584      20058.414      19872.437    
    189000   94500          475.57703      19260.846      65263.458      21357.704      11396.125      9961.5791      3989.3007      3920.8884      10370.077      0             -8318.6867      0              156304.03      53.867075      53.867075      53.867075      1.1556988      18600.389      20265.542      18916.608    
    190000   95000          481.33467      18971.025      64594.388      21305.216      11534.094      9771.1224      3887.339       3893.1864      10275.627      0             -8285.0303      0              156463.34      53.885369      53.885369      53.885369      1.1545221      18669.628      19332.299      18911.148    
    191000   95500          477.81524      19420.054      65703.263      21367.133      11449.758      9917.375       3945.2788      3968.3867      10297.724      0             -8294.0142      0              156542.2       53.894422      53.894422      53.894422      1.1539404      18831.689      19785.378      19643.096    
    192000   96000          477.38556      19229.828      65240.206      21415.786      11439.462      9976.3234      3990.6468      3875.0107      10358.841      0             -8248.1752      0              156266.14      53.862722      53.862722      53.862722      1.155979       19307.236      19084.761      19297.488    
    193000   96500          486.32139      19419.861      66030.979      21831.112      11653.589      10177.523      4016.2126      3969.3456      10303.341      0             -8111.376       0              156062.64      53.83933       53.83933       53.83933       1.1574864      19693.909      19547.974      19017.702    
    194000   97000          484.10235      20283.932      67575.368      21546.281      11600.415      9945.8663      4002.2492      3814.9928      10391.572      0             -8262.9474      0              155598.11      53.785858      53.785858      53.785858      1.160942       20948.316      19480.685      20422.796    
    195000   97500          480.71767      19697.662      66331.624      21574.745      11519.309      10055.437      3920.7617      4015.8769      10266.533      0             -8147.7354      0              155800.64      53.809184      53.809184      53.809184      1.1594329      19482.114      20098.926      19511.945    
    196000   98000          484.22081      19186.74       65098.528      21636.498      11603.253      10033.245      3870.1795      3966.3094      10297.847      0             -8101.0911      0              155321.98      53.754023      53.754023      53.754023      1.1630059      18475.248      20285.296      18799.676    
    197000   98500          475.30703      20154.647      67247.885      21522.95       11389.655      10133.295      3997.8198      4010.2457      10316.938      0             -8191.7087      0              155561.46      53.781635      53.781635      53.781635      1.1612155      20266.627      19727.925      20469.39     
    198000   99000          479.61487      19930.712      66660.062      21522.999      11492.883      10030.117      3980.8804      3933.6172      10238.608      0             -8122.9891      0              155286.82      53.749966      53.749966      53.749966      1.1632692      19968.661      19416.35       20407.126    
    199000   99500          477.42102      20793.311      68680.688      21670.503      11440.312      10230.191      4129.2808      3910.5986      10244.2        0             -8053.8884      0              155021.68      53.719357      53.719357      53.719357      1.1652588      20044.291      21121.217      21214.425    
    200000   100000         488.21018      18943.968      64529.091      21723.317      11698.85       10024.468      3917.6965      3950.8602      10331.004      0             -8175.0932      0              154937.13      53.70959       53.70959       53.70959       1.1658947      18308.492      19149.715      19373.698    
    201000   100500         485.94863      19784.218      66474.091      21727.104      11644.657      10082.447      3986.3976      3839.3475      10395.428      0             -8138.7259      0              155084.72      53.726639      53.726639      53.726639      1.1647851      19991.207      19505.504      19855.943    
    202000   101000         482.06352      21072.558      69368.03       21812.791      11551.559      10261.232      4002.0626      4023.6965      10304.059      0             -8068.5867      0              154740.94      53.68691       53.68691       53.68691       1.1673729      20613.709      21325.123      21278.841    
    203000   101500         476.35438      20769.078      68673.307      21739.43       11414.752      10324.678      4036.0639      3952.9963      10326.424      0             -7990.8063      0              154950.63      53.711149      53.711149      53.711149      1.1657932      21205.273      20788.382      20313.578    
    204000   102000         476.03714      20743.911      68369.454      21558.864      11407.15       10151.713      3952.9481      3885.8014      10303.395      0             -7990.4309      0              154731.09      53.685771      53.685771      53.685771      1.1674472      20482.655      20244.896      21504.183    
    205000   102500         479.93134      20601.097      68269.015      21786.553      11500.466      10286.087      3990.0399      3947.195       10335.138      0             -7986.2858      0              154711.6       53.683517      53.683517      53.683517      1.1675942      20521.495      20363.378      20918.417    
    206000   103000         482.87542      21148.633      69606.653      21941.442      11571.014      10370.428      4009.869       3959.617       10377.893      0             -7976.9505      0              154540.86      53.663761      53.663761      53.663761      1.1688843      20013.969      21256.357      22175.574    
    207000   103500         485.46979      20939.924      69179.715      22026.642      11633.182      10393.46       4018.9227      4009.9706      10343.608      0             -7979.041       0              154404.16      53.647934      53.647934      53.647934      1.1699191      20710.639      20634.22       21474.912    
    208000   104000         483.0678       21764.051      70702.11       21791.014      11575.624      10215.39       3931.8535      3952.9556      10303.437      0             -7972.8565      0              154096.15      53.612237      53.612237      53.612237      1.1722576      21976.799      21343.134      21972.218    
    209000   104500         485.0179       21505.806      70172.802      21826.907      11622.354      10204.553      3936.0299      3885.4078      10334.289      0             -7951.1745      0              154144.49      53.617842      53.617842      53.617842      1.17189        21731.087      21176.976      21609.354    
    210000   105000         486.34916      21480.131      70242.277      21966.181      11654.255      10311.926      3869.4855      3959.6389      10339.386      0             -7856.5845      0              154105.92      53.61337       53.61337       53.61337       1.1721832      20990.802      22041.374      21408.218    
    211000   105500         484.74057      21818.722      71095.915      22033.178      11615.708      10417.47       4072.3254      3941.8754      10336.413      0             -7933.1442      0              154186.58      53.622722      53.622722      53.622722      1.1715701      20858.998      22914.273      21682.895    
    212000   106000         486.5145       21239.883      69874.47       22077.067      11658.217      10418.85       4045.7005      4003.8216      10253.468      0             -7884.1393      0              154303.68      53.636294      53.636294      53.636294      1.1706809      20765.783      21668.182      21285.684    
    213000   106500         469.25048      22451.955      72032.095      21626.439      11244.523      10381.915      4060.3107      3909.2477      10293.04       0             -7880.6829      0              153939.2       53.594029      53.594029      53.594029      1.1734528      22432.588      22729.086      22194.192    
    214000   107000         484.52843      20957.723      69127.903      21974.257      11610.625      10363.632      3980.9998      3982.9212      10372.539      0             -7972.8283      0              154274.91      53.63296       53.63296       53.63296       1.1708993      20371.568      21299.626      21201.976    
    215000   107500         477.66176      21465.65       70134.73       21909.968      11446.081      10463.887      4030.7701      3993.6693      10380.505      0             -7941.0575      0              154045.91      53.60641       53.60641       53.60641       1.1726399      21278.975      21116.165      22001.81     
    216000   108000         486.78288      21806.125      70927.959      21917.794      11664.648      10253.147      3965.1814      3935.2835      10317.731      0             -7965.0492      0              154110.34      53.613883      53.613883      53.613883      1.1721496      20809.323      22170.481      22438.569    
    217000   108500         480.15353      20293.563      67364.176      21774.96       11505.79       10269.17       3949.5894      4029.5134      10264.071      0             -7974.0042      0              154038.02      53.605495      53.605495      53.605495      1.1726999      20977.236      19867.305      20036.148    
[...]
    454000   227000         479.20868      45042.542      117560.46      26145.742      11483.149      14662.592      4366.8088      4242.3875      10461.149      0             -4407.7531      0              139160.94      51.821         51.821         51.821         1.2980681      44564.044      45737.074      44826.508    
    455000   227500         475.15819      45733.296      119021.62      26165.652      11386.088      14779.564      4403.9777      4351.1095      10491.832      0             -4467.3554      0              139219.94      51.828322      51.828322      51.828322      1.297518       45308.384      45396.712      46494.793    
    456000   228000         489.65399      44958.653      117575.29      26353.623      11733.447      14620.176      4318.7027      4349.2647      10481.618      0             -4529.41        0              139126.17      51.816683      51.816683      51.816683      1.2983926      44786.243      44227.504      45862.211    
    457000   228500         484.5954       45902.711      119532.78      26448.756      11612.23       14836.526      4355.9698      4398.6639      10481.333      0             -4399.4407      0              139046.77      51.806824      51.806824      51.806824      1.2991339      45562.395      46111.871      46033.866    
    458000   229000         474.97129      45424.207      118236.06      26085.73       11381.61       14704.121      4363.8541      4283.4378      10499.258      0             -4442.4293      0              139102.09      51.813693      51.813693      51.813693      1.2986173      45120.744      46136.104      45015.772    
    459000   229500         476.26461      45542.966      118477.29      26147.922      11412.601      14735.321      4410.5677      4285.261       10419.986      0             -4380.4942      0              139008.92      51.802123      51.802123      51.802123      1.2994876      45276.665      45123.938      46228.293    
    460000   230000         477.58719      45277.157      118119.18      26299.014      11444.294      14854.72       4310.3058      4281.5878      10491.952      0             -4229.1257      0              139053.86      51.807704      51.807704      51.807704      1.2990677      44970.951      44637.508      46223.01     
    461000   230500         474.22458      47290.78       122068.74      26467.732      11363.717      15104.015      4335.1845      4350.6901      10473.95       0             -4055.8098      0              138614.96      51.753139      51.753139      51.753139      1.303181       47524.962      47225.11       47122.268    
    462000   231000         480.80612      46431.129      120232.54      26173.451      11521.428      14652.023      4325.5196      4314.3375      10458.071      0             -4445.9045      0              138904.28      51.789122      51.789122      51.789122      1.3004666      45593.365      46162.758      47537.264    
    463000   231500         487.16588      46089.905      119805.3       26444.312      11673.826      14770.486      4314.176       4379.9721      10455.017      0             -4378.6788      0              138894.09      51.787855      51.787855      51.787855      1.300562       46178.216      46220.699      45870.798    
    464000   232000         481.24665      46260.867      120305.13      26708.543      11531.985      15176.558      4364.2005      4375.7719      10535.658      0             -4099.0726      0              138729.99      51.767451      51.767451      51.767451      1.3021004      46693.728      46816.99       45271.883    
    465000   232500         478.2691       46577.085      120657.48      26315.306      11460.634      14854.672      4438.4155      4296.9921      10446.349      0             -4327.0842      0              138885.75      51.786818      51.786818      51.786818      1.3006401      46748.647      46518.666      46463.943    
    466000   233000         477.97308      45944.058      119311.65      26377.954      11453.541      14924.414      4250.4635      4409.0525      10507.315      0             -4242.417       0              138697.28      51.763383      51.763383      51.763383      1.3024075      45989.599      45628.504      46214.07     
    467000   233500         476.25171      46859.051      121452.4       26628.577      11412.292      15216.285      4482.2189      4328.2675      10521.973      0             -4116.1744      0              138754.83      51.770541      51.770541      51.770541      1.3018673      47290.883      46429.678      46856.591    
    468000   234000         482.94379      46388.836      120386.78      26592.655      11572.653      15020.002      4398.6365      4376.2752      10475.727      0             -4230.6371      0              138639.28      51.756166      51.756166      51.756166      1.3029524      46041.737      45789.97       47334.799    
    469000   234500         480.87927      46664.32       120744.27      26322.421      11523.181      14799.239      4414.5516      4287.4857      10428.226      0             -4331.0235      0              138743.19      51.769093      51.769093      51.769093      1.3019766      47279.007      47305.516      45408.438    
    470000   235000         484.82159      46789.759      121022.68      26433.785      11617.65       14816.135      4353.8949      4226.8949      10444.767      0             -4209.4215      0              138616.03      51.753272      51.753272      51.753272      1.303171       47614.923      46866.559      45887.794    
    471000   235500         481.84344      47971.571      123243.48      26543.047      11546.285      14996.762      4359.357       4194.0271      10452.064      0             -4008.6865      0              138219.26      51.703847      51.703847      51.703847      1.3069117      47598.12       47355.782      48960.81     
    472000   236000         478.52683      46917.454      121180.67      26363.622      11466.81       14896.812      4454.5887      4293.9446      10489.944      0             -4341.6653      0              138572.2       51.747817      51.747817      51.747817      1.3035831      47028.118      47134.782      46589.462    
    473000   236500         479.56124      48035.461      123569.88      26557.6        11491.598      15066.002      4505.021       4312.3988      10378.569      0             -4129.9863      0              138480.57      51.736409      51.736409      51.736409      1.3044456      48530.254      47420.127      48156.001    
    474000   237000         484.16735      47108.019      121547.6       26351.935      11601.973      14749.962      4408.8808      4254.8366      10452.214      0             -4365.9686      0              138562.73      51.746638      51.746638      51.746638      1.3036722      46823.456      47924.969      46575.632    
    475000   237500         481.24152      46918.8        121163.98      26523.17       11531.862      14991.308      4274.8406      4440.253       10465.856      0             -4189.6409      0              138310.66      51.715241      51.715241      51.715241      1.3060481      46760.776      47322.444      46673.182    
    476000   238000         484.58683      47412.585      122651.2       26933.994      11612.024      15321.969      4422.8126      4279.7033      10594.623      0             -3975.1701      0              138426.9       51.729724      51.729724      51.729724      1.3049515      46864.456      47816.624      47556.675    
    477000   238500         479.4344       47709.328      122870.94      26687.764      11488.558      15199.205      4444.2977      4410.81        10420.799      0             -4076.7011      0              138235.6       51.705884      51.705884      51.705884      1.3067573      48052.4        47810.211      47265.372    
    478000   239000         474.93021      48064.856      123516.23      26648.8        11380.625      15268.175      4429.7878      4444.1618      10489.014      0             -4094.7883      0              138189.25      51.700104      51.700104      51.700104      1.3071956      48894.421      47209.917      48090.229    
    479000   239500         476.01083      47195.514      121606.3       26470.749      11406.52       15064.229      4308.4834      4405.8294      10395.637      0             -4045.7207      0              138218.52      51.703755      51.703755      51.703755      1.3069187      48267.266      46405.949      46913.326    
    480000   240000         477.2322       48053.156      123406.49      26491.768      11435.787      15055.981      4345.1646      4343.5737      10490.181      0             -4122.9386      0              138290.37      51.712711      51.712711      51.712711      1.3062398      47853.521      47713.019      48592.929    
    481000   240500         481.60377      48116.918      123751.48      26708.824      11540.542      15168.282      4387.9636      4411.9337      10488.803      0             -4120.4181      0              138289.42      51.712594      51.712594      51.712594      1.3062487      48738.154      48212.758      47399.843    
    482000   241000         489.13118      48714.818      125063.98      26992.467      11720.919      15271.548      4354.8632      4375.3284      10491.423      0             -3950.0668      0              138040.3       51.681522      51.681522      51.681522      1.3086061      49377.797      48450.558      48316.099    
    483000   241500         476.37553      47872.485      123072         26684.048      11415.259      15268.789      4380.385       4308.1241      10526.217      0             -3945.9373      0              138057.78      51.683704      51.683704      51.683704      1.3084404      47187.494      48376.852      48053.108    
    484000   242000         480.76923      47944.66       123114.69      26591.667      11520.544      15071.123      4417.2701      4201.5318      10447.942      0             -3995.6216      0              138043.13      51.681876      51.681876      51.681876      1.3085793      48473.786      47574.234      47785.959    
    485000   242500         486.21382      48958.349      125479.12      27097.48       11651.011      15446.469      4322.189       4416.1846      10511.714      0             -3803.6186      0              137788         51.650016      51.650016      51.650016      1.3110023      49084.107      48801.129      48989.81     
    486000   243000         483.6146       47515.231      122433.48      26819.314      11588.727      15230.588      4450.364       4291.2112      10396.512      0             -3907.5001      0              137979.17      51.673892      51.673892      51.673892      1.3091859      47249.492      47529.215      47766.986    
    487000   243500         476.9926       48417.605      123968.57      26677.323      11430.046      15247.277      4434.5643      4257.6168      10428.918      0             -3873.8217      0              137782.67      51.649351      51.649351      51.649351      1.311053       48483.017      48256.074      48513.723    
    488000   244000         478.92886      48592.879      124261.09      26505.848      11476.444      15029.404      4344.1137      4278.5186      10416.238      0             -4009.4667      0              137940.41      51.669054      51.669054      51.669054      1.3095537      48376.696      47805.103      49596.838    
    489000   244500         474.84952      49526.626      126254.2       26818.644      11378.692      15439.953      4455.0959      4405.9702      10424.68       0             -3845.7939      0              137666.13      51.634784      51.634784      51.634784      1.3121629      48898.512      49211.471      50469.894    
    490000   245000         480.77124      48482.739      124300.87      26991.347      11520.592      15470.754      4398.0423      4383.2957      10500.97       0             -3811.554       0              137623.4       51.629442      51.629442      51.629442      1.3125702      47768.417      48278.131      49401.669    
    491000   245500         483.79449      49061.707      125352.95      26788.339      11593.038      15195.302      4401.923       4347.5173      10438.357      0             -3992.496       0              137753.45      51.645699      51.645699      51.645699      1.3113311      48780.152      48981.479      49423.49     
    492000   246000         476.89025      50282.339      127692.38      26957.046      11427.593      15529.453      4412.4325      4381.2783      10456.409      0             -3720.6663      0              137369.55      51.597678      51.597678      51.597678      1.3149958      50593.847      49461.187      50791.985    
    493000   246500         483.03268      48758.35       124875.25      26873.015      11574.783      15298.232      4486.5851      4332.3343      10443.818      0             -3964.5049      0              137819.63      51.653969      51.653969      51.653969      1.3107013      48914.573      48739.618      48620.857    
    494000   247000         487.95596      49983.336      127547.96      27234.442      11692.758      15541.684      4434.4322      4364.6483      10487.175      0             -3744.5713      0              137612.64      51.628096      51.628096      51.628096      1.3126728      49294.623      50418.236      50237.148    
    495000   247500         483.82179      48357.398      124181.34      27174.405      11593.692      15580.713      4413.4792      4474.3964      10539.003      0             -3846.1656      0              137551.07      51.620395      51.620395      51.620395      1.3132604      47683.187      48161.608      49227.399    
    496000   248000         478.58561      49437.03       126023.39      26940.463      11468.219      15472.244      4428.9029      4407.8948      10417.667      0             -3782.2206      0              137426.53      51.604811      51.604811      51.604811      1.3144505      48893.549      48178.38       51239.16     
    497000   248500         477.38839      49373.282      125874.44      26804.304      11439.53       15364.774      4394.7467      4405.2949      10401.621      0             -3836.8892      0              137586.2       51.62479       51.62479       51.62479       1.3129251      48873.633      48708.586      50537.627    
    498000   249000         480.63393      49987.133      127282.05      27097.199      11517.302      15579.897      4404.0337      4380.5333      10504.231      0             -3708.9013      0              137425.69      51.604706      51.604706      51.604706      1.3144586      50181.78       49824.551      49955.068    
    499000   249500         474.28263      49830.27       126976.47      27110.847      11365.108      15745.74       4531.3032      4490.0429      10450.625      0             -3726.2315      0              137419.03      51.603872      51.603872      51.603872      1.3145223      49868.857      49588.236      50033.717    
    500000   250000         480.13342      49231.306      125849.13      26986.094      11505.308      15480.786      4484.6771      4353.2719      10477.466      0             -3834.6294      0              137694.54      51.638336      51.638336      51.638336      1.3118921      49526.306      48736.614      49430.997    
Loop time of 6935.18 on 1 procs for 500000 steps with 8040 atoms

Performance: 3.115 ns/day, 7.706 hours/ns, 72.096 timesteps/s, 579.653 katom-step/s
39.9% CPU use with 1 MPI tasks x 1 OpenMP threads

MPI task timing breakdown:
Section |  min time  |  avg time  |  max time  |%varavg| %total
---------------------------------------------------------------
Pair    | 507.58     | 507.58     | 507.58     |   0.0 |  7.32
Bond    | 2530.9     | 2530.9     | 2530.9     |   0.0 | 36.49
Neigh   | 3148.8     | 3148.8     | 3148.8     |   0.0 | 45.40
Comm    | 260.59     | 260.59     | 260.59     |   0.0 |  3.76
Output  | 17.773     | 17.773     | 17.773     |   0.0 |  0.26
Modify  | 366.45     | 366.45     | 366.45     |   0.0 |  5.28
Other   |            | 103        |            |       |  1.49

Nlocal:           8040 ave        8040 max        8040 min
Histogram: 1 0 0 0 0 0 0 0 0 0
Nghost:          26060 ave       26060 max       26060 min
Histogram: 1 0 0 0 0 0 0 0 0 0
Neighs:              0 ave           0 max           0 min
Histogram: 1 0 0 0 0 0 0 0 0 0
FullNghs:  8.01811e+06 ave 8.01811e+06 max 8.01811e+06 min
Histogram: 1 0 0 0 0 0 0 0 0 0

Total # of neighbors = 8018110
Ave neighs/atom = 997.27736
Ave special neighs/atom = 5.9701493
Neighbor list builds = 4410
Dangerous builds = 0

unfix npt_comp

undump dump_comp

write_dump all custom npt_compress_last.dump id type mol x y z xu yu zu vx vy vz modify sort id
write_data /home/arz2/PolyJarvis/data/cis-PBD1/lammps/equil/npt_compress/npt_compress_out.data
System init for write_data ...
Generated 3 of 3 mixed pair_coeff terms from arithmetic mixing rule

print "STAGE COMPLETE: NPT compression P=1.0->50000.0atm density target reached"
STAGE COMPLETE: NPT compression P=1.0->50000.0atm density target reached
quit
gh   | 3148.8     | 3148.8     | 3148.8     |   0.0 | 45.40
Comm    | 260.59     | 260.59     | 260.59     |   0.0 |  3.76
Output  | 17.773     | 17.773     | 17.773     |   0.0 |  0.26
Modify  | 366.45     | 366.45     | 366.45     |   0.0 |  5.28
Other   |            | 103        |            |       |  1.49

Nlocal:           8040 ave        8040 max        8040 min
Histogram: 1 0 0 0 0 0 0 0 0 0
Nghost:          26060 ave       26060 max       26060 min
Histogram: 1 0 0 0 0 0 0 0 0 0
Neighs:              0 ave           0 max           0 min
Histogram: 1 0 0 0 0 0 0 0 0 0
FullNghs:  8.01811e+06 ave 8.01811e+06 max 8.01811e+06 min
Histogram: 1 0 0 0 0 0 0 0 0 0

Total # of neighbors = 8018110
Ave neighs/atom = 997.27736
Ave special neighs/atom = 5.9701493
Neighbor list builds = 4410
Dangerous builds = 0
System init for write_data ...


---------------------------------------------------------------------
      Device Time Info (average): 
---------------------------------------------------------------------
Data Transfer:   73.0703 s.
Neighbor copy:   161.1899 s.
Neighbor unpack: 0.0000 s.
Force calc:      435.6149 s.
Device Overhead: 12.7776 s.
CPU Cast/Pack:   205.7790 s.
CPU Driver_Time: 9.8553 s.
CPU Idle_Time:   8.4525 s.
Average split:   1.0000.
Max Mem / Proc:  40.59 MB.
Prefetch mode:   None.
Vector width:    32.
Lanes / atom:    4.
Pair block:      256.
Neigh block:     128.
Neigh mode:      Host.
---------------------------------------------------------------------


--------------------------------------------------------------------------
- Using acceleration for lj/cut:
-  with 1 proc(s) per device.
-  with 1 thread(s) per proc.
-  Horizontal vector operations: ENABLED
-  Shared memory system: No
--------------------------------------------------------------------------
Device 0: Quadro RTX 6000, 72 CUs, 23/24 GB, 1.8 GHZ (Mixed Precision)
--------------------------------------------------------------------------

Initializing Device and compiling on process 0...Done.
Initializing Device 0 on core 0...Done.

Generated 3 of 3 mixed pair_coeff terms from arithmetic mixing rule
STAGE COMPLETE: NPT compression P=1.0->50000.0atm density target reached
Cuda driver error 4 in call at file '/home/arz2/lammps/lib/gpu/geryon/nvd_timer.h' in line 98.
Cuda driver error 4 in call at file '/home/arz2/lammps/lib/gpu/geryon/nvd_timer.h' in line 99.
Cuda driver error 4 in call at file '/home/arz2/lammps/lib/gpu/geryon/nvd_timer.h' in line 98.
Cuda driver error 4 in call at file '/home/arz2/lammps/lib/gpu/geryon/nvd_timer.h' in line 99.
Cuda driver error 4 in call at file '/home/arz2/lammps/lib/gpu/geryon/nvd_timer.h' in line 98.
Cuda driver error 4 in call at file '/home/arz2/lammps/lib/gpu/geryon/nvd_timer.h' in line 99.
