units real
atom_style full
boundary p p p

# --- Force Field (injected via PAIR_STYLE_BLOCK) ---
pair_style lj/class2/coul/cut 9.5 9.5
dielectric 1.000000
bond_style class2
angle_style class2
dihedral_style class2
improper_style class2
special_bonds lj/coul 0 0 1
pair_modify mix sixthpower tail yes
neighbor 2.0 bin
neigh_modify delay 0 every 1 check yes
neigh_modify one 4000
# KOKKOS: package loaded via -pk kokkos on the command line

read_data /home/arz2/PolyJarvis/data/PLA4/lammps/equil/nvt_softheat/nvt_softheat_out.data
Reading data file ...
  orthogonal box = (0 0 0) to (45.633123 45.633123 45.633123)
  1 by 1 by 1 MPI processor grid
WARNING: Pair style lj/class2/coul/long/kk in data file differs from currently defined pair style lj/class2/coul/cut/kk (src/read_data.cpp:811)
  reading atoms ...
  4520 atoms
  reading velocities ...
  4520 velocities
  scanning bonds ...
  4 = max bonds/atom
  scanning angles ...
  12 = max angles/atom
  scanning dihedrals ...
  21 = max dihedrals/atom
  scanning impropers ...
  8 = max impropers/atom
  orthogonal box = (0 0 0) to (45.633123 45.633123 45.633123)
  1 by 1 by 1 MPI processor grid
  reading bonds ...
  4510 bonds
  reading angles ...
  8000 angles
  reading dihedrals ...
  9970 dihedrals
  reading impropers ...
  4500 impropers
Finding 1-2 1-3 1-4 neighbors ...
  special bond factors lj:    0        0        1       
  special bond factors coul:  0        0        1       
     4 = max # of 1-2 neighbors
     6 = max # of 1-3 neighbors
    10 = max # of special neighbors
  special bonds CPU = 0.003 seconds
  read_data CPU = 0.246 seconds
include /home/arz2/PolyJarvis/data/PLA4/lammps/equil/emc_build.params
# LAMMPS parameters created by EMC v9.4.4, build Jul 31 2025 20:33:44

# Variables

variable	seed		index	481723
variable	ntotal		index	4520
variable	fshape		index	1
variable	output		index	emc_build
variable	field		index	pcff/pcff
variable	location1	index	/home/arz2/emc/field/
variable	nav		index	0.6022141179
variable	temperature	index	300
variable	radius		index	5
variable	nrelax		index	100
variable	weight_nonbond	index	0.0001
variable	weight_bond	index	0.0001
variable	weight_focus	index	1
variable	cutoff		index	9.5
variable	charge_cutoff	index	9.5
variable	kappa		index	4
variable	density1	index	0.63
variable	lprevious	index	0
variable	lphase		index	45.6331234262
variable	f_poly		index	10
variable	chem_repeat	index	*C(C)C(=O)O*
variable	chem_cap	index	*[H]
variable	lg_repeat	index	9
variable	lg_cap		index	1
variable	norm_poly	index	100
variable	l_poly		index	452
variable	mg_repeat	index	44.05358
variable	mg_cap		index	0
variable	m_poly		index	2202.679
variable	n_poly		index	10
variable	mtotal		index	36052.2247
variable	nphase1		index	4520
variable	mphase1		index	36052.2247
variable	vphase1		index	95025.5927105
variable	lbox		index	45.6331234262
variable	lphase1		index	45.6331234262
variable	lxx		index	45.6331234262
variable	lyy		index	45.6331234262
variable	lzz		index	45.6331234262
variable	lzy		index	0
variable	lzx		index	0
variable	lyx		index	0
variable	vtotal		index	95025.5927105
variable	nl_poly		index	10

# Types

variable	type_c		index	1
variable	type_c1		index	2
variable	type_c_1	index	3
variable	type_hc		index	4
variable	type_ho2	index	5
variable	type_o_1	index	6
variable	type_o_2	index	7

variable	type_bond_c_c	index	1
variable	type_bond_c_c1	index	2
variable	type_bond_c_c_1	index	3
variable	type_bond_c_hc	index	4
variable	type_bond_c1_c_1 index	5
variable	type_bond_c1_hc	index	6
variable	type_bond_c1_o_2 index	7
variable	type_bond_c_1_o_1 index	8
variable	type_bond_c_1_o_2 index	9
variable	type_bond_ho2_o_2 index	10

variable	type_angle_c_c_c_1 index	1
variable	type_angle_c_c_hc index	2
variable	type_angle_c_c1_c_1 index	3
variable	type_angle_c_c1_hc index	4
variable	type_angle_c_c1_o_2 index	5
variable	type_angle_c_c_1_o_1 index	6
variable	type_angle_c_c_1_o_2 index	7
variable	type_angle_c1_c_hc index	8
variable	type_angle_c1_c_1_o_1 index	9
variable	type_angle_c1_c_1_o_2 index	10
variable	type_angle_c1_o_2_c_1 index	11
variable	type_angle_c_1_c_hc index	12
variable	type_angle_c_1_c1_hc index	13
variable	type_angle_c_1_c1_o_2 index	14
variable	type_angle_c_1_o_2_ho2 index	15
variable	type_angle_hc_c_hc index	16
variable	type_angle_hc_c1_o_2 index	17
variable	type_angle_o_1_c_1_o_2 index	18

# Clusters

variable	n0_poly		index	1
variable	n1_poly		index	10
variable	nl_poly		index	10

# Flags

variable	flag_charged	index	1

# Masses

mass		1    12.01115  # c
mass		2    12.01115  # c1
mass		3    12.01115  # c_1
mass		4     1.00797  # hc
mass		5     1.00800  # ho2
mass		6    15.99940  # o_1
mass		7    15.99940  # o_2

# Potentials

pair_modify	mix sixthpower tail yes
special_bonds	lj/coul 0 0 1

# Pair Coeffs

pair_coeff	 1  1    0.05400    4.01000  # c,c
pair_coeff	 2  2    0.05400    4.01000  # c1,c1
pair_coeff	 3  3    0.12000    3.81000  # c_1,c_1
pair_coeff	 4  4    0.02000    2.99500  # hc,hc
pair_coeff	 5  5    0.01300    1.11000  # ho2,ho2
pair_coeff	 6  6    0.26700    3.30000  # o_1,o_1
pair_coeff	 7  7    0.24000    3.42000  # o_2,o_2

# Bond Coeffs

bond_coeff	 1    1.53000  299.67000 -501.77000  679.81000  # c,c
bond_coeff	 2    1.53000  299.67000 -501.77000  679.81000  # c,c1
bond_coeff	 3    1.52020  253.70670 -423.03700  396.90000  # c,c_1
bond_coeff	 4    1.10100  345.00000 -691.89000  844.60000  # c,hc
bond_coeff	 5    1.52020  253.70670 -423.03700  396.90000  # c1,c_1
bond_coeff	 6    1.10100  345.00000 -691.89000  844.60000  # c1,hc
bond_coeff	 7    1.43000  326.72730 -608.53060  689.03330  # c1,o_2
bond_coeff	 8    1.20200  851.14030 -1918.48820 2160.76590  # c_1,o_1
bond_coeff	 9    1.36830  367.14810 -794.79080 1055.23190  # c_1,o_2
bond_coeff	10    0.95200  534.29940 -1287.19370 1889.13960  # ho2,o_2

# Angle Coeffs

angle_coeff	 1  108.52950   51.97470   -9.48510  -10.99850  # c,c,c_1
angle_coeff	 2  110.77000   41.45300  -10.60400    5.12900  # c,c,hc
angle_coeff	 3  108.52950   51.97470   -9.48510  -10.99850  # c,c1,c_1
angle_coeff	 4  110.77000   41.45300  -10.60400    5.12900  # c,c1,hc
angle_coeff	 5  107.41000   63.39070  -13.45130    1.66500  # c,c1,o_2
angle_coeff	 6  123.14510   55.54310  -17.21230    0.13480  # c,c_1,o_1
angle_coeff	 7  100.31820   38.86310   -3.83230   -7.98020  # c,c_1,o_2
angle_coeff	 8  110.77000   41.45300  -10.60400    5.12900  # c1,c,hc
angle_coeff	 9  123.14510   55.54310  -17.21230    0.13480  # c1,c_1,o_1
angle_coeff	10  100.31820   38.86310   -3.83230   -7.98020  # c1,c_1,o_2
angle_coeff	11  113.28800   61.28680  -28.97860    7.99290  # c1,o_2,c_1
angle_coeff	12  107.73360   40.60990  -28.81210    0.00000  # c_1,c,hc
angle_coeff	13  107.73360   40.60990  -28.81210    0.00000  # c_1,c1,hc
angle_coeff	14  109.50000   60.00000    0.00000    0.00000  # c_1,c1,o_2
angle_coeff	15  112.87400   53.25120  -14.99790    2.46400  # c_1,o_2,ho2
angle_coeff	16  107.66000   39.64100  -12.92100   -2.43180  # hc,c,hc
angle_coeff	17  107.68800   65.48010  -10.34980    5.88660  # hc,c1,o_2
angle_coeff	18  120.79700   95.34460  -32.28690    6.37780  # o_1,c_1,o_2

# BondBond Coeffs

angle_coeff	 1 bb    5.41990    1.53000    1.52020  # c,c,c_1
angle_coeff	 2 bb    3.38720    1.53000    1.10100  # c,c,hc
angle_coeff	 3 bb    5.41990    1.53000    1.52020  # c,c1,c_1
angle_coeff	 4 bb    3.38720    1.53000    1.10100  # c,c1,hc
angle_coeff	 5 bb   23.26470    1.53000    1.43000  # c,c1,o_2
angle_coeff	 6 bb   46.06850    1.52020    1.20200  # c,c_1,o_1
angle_coeff	 7 bb   19.10690    1.52020    1.36830  # c,c_1,o_2
angle_coeff	 8 bb    3.38720    1.53000    1.10100  # c1,c,hc
angle_coeff	 9 bb   46.06850    1.52020    1.20200  # c1,c_1,o_1
angle_coeff	10 bb   19.10690    1.52020    1.36830  # c1,c_1,o_2
angle_coeff	11 bb   45.45030    1.43000    1.36830  # c1,o_2,c_1
angle_coeff	12 bb    0.71150    1.52020    1.10100  # c_1,c,hc
angle_coeff	13 bb    0.71150    1.52020    1.10100  # c_1,c1,hc
angle_coeff	14 bb    0.00000    1.52020    1.43000  # c_1,c1,o_2
angle_coeff	15 bb    9.56710    1.36830    0.95200  # c_1,o_2,ho2
angle_coeff	16 bb    5.33160    1.10100    1.10100  # hc,c,hc
angle_coeff	17 bb    5.64540    1.10100    1.43000  # hc,c1,o_2
angle_coeff	18 bb  121.48800    1.20200    1.36830  # o_1,c_1,o_2

# BondAngle Coeffs

angle_coeff	 1 ba   18.16780   15.87580    1.53000    1.52020  # c,c,c_1
angle_coeff	 2 ba   20.75400   11.42100    1.53000    1.10100  # c,c,hc
angle_coeff	 3 ba   18.16780   15.87580    1.53000    1.52020  # c,c1,c_1
angle_coeff	 4 ba   20.75400   11.42100    1.53000    1.10100  # c,c1,hc
angle_coeff	 5 ba   23.39200   47.94870    1.53000    1.43000  # c,c1,o_2
angle_coeff	 6 ba   34.99820   37.12980    1.52020    1.20200  # c,c_1,o_1
angle_coeff	 7 ba    1.34350    4.69780    1.52020    1.36830  # c,c_1,o_2
angle_coeff	 8 ba   20.75400   11.42100    1.53000    1.10100  # c1,c,hc
angle_coeff	 9 ba   34.99820   37.12980    1.52020    1.20200  # c1,c_1,o_1
angle_coeff	10 ba    1.34350    4.69780    1.52020    1.36830  # c1,c_1,o_2
angle_coeff	11 ba   41.91160   46.46080    1.43000    1.36830  # c1,o_2,c_1
angle_coeff	12 ba   12.46320    9.17650    1.52020    1.10100  # c_1,c,hc
angle_coeff	13 ba   12.46320    9.17650    1.52020    1.10100  # c_1,c1,hc
angle_coeff	14 ba    0.00000    0.00000    1.52020    1.43000  # c_1,c1,o_2
angle_coeff	15 ba   37.91630   21.43640    1.36830    0.95200  # c_1,o_2,ho2
angle_coeff	16 ba   18.10300   18.10300    1.10100    1.10100  # hc,c,hc
angle_coeff	17 ba    8.68640   57.49750    1.10100    1.43000  # hc,c1,o_2
angle_coeff	18 ba   76.26140   71.87610    1.20200    1.36830  # o_1,c_1,o_2

# Dihedral Coeffs

dihedral_coeff	 1    0.04420    0.00000    0.02920    0.00000    0.05620    0.00000  # c,c,c_1,o_1
dihedral_coeff	 2    1.83410    0.00000    2.06030    0.00000   -0.01950    0.00000  # c,c,c_1,o_2
dihedral_coeff	 3    0.04420    0.00000    0.02920    0.00000    0.05620    0.00000  # c,c1,c_1,o_1
dihedral_coeff	 4    1.83410    0.00000    2.06030    0.00000   -0.01950    0.00000  # c,c1,c_1,o_2
dihedral_coeff	 5    0.00000    0.00000    0.00000    0.00000   -0.19320    0.00000  # c,c1,o_2,c_1
dihedral_coeff	 6   -2.55940    0.00000    2.20130    0.00000    0.03250    0.00000  # c,c_1,o_2,c1
dihedral_coeff	 7   -2.55940    0.00000    2.20130    0.00000    0.03250    0.00000  # c1,c_1,o_2,c1
dihedral_coeff	 8   -2.91260    0.00000    1.01990    0.00000   -0.20770    0.00000  # c1,c_1,o_2,ho2
dihedral_coeff	 9    0.00000    0.00000    2.20890    0.00000    0.00000    0.00000  # c1,o_2,c_1,o_1
dihedral_coeff	10   -0.02280    0.00000    0.02800    0.00000   -0.18630    0.00000  # c_1,c,c,hc
dihedral_coeff	11   -0.02280    0.00000    0.02800    0.00000   -0.18630    0.00000  # c_1,c1,c,hc
dihedral_coeff	12    0.00000    0.00000    0.00000    0.00000   -0.19320    0.00000  # c_1,c1,o_2,c_1
dihedral_coeff	13    0.00000    0.00000    0.00000    0.00000   -0.19320    0.00000  # c_1,o_2,c1,hc
dihedral_coeff	14   -0.14320    0.00000    0.06170    0.00000   -0.10830    0.00000  # hc,c,c,hc
dihedral_coeff	15   -0.14320    0.00000    0.06170    0.00000   -0.10830    0.00000  # hc,c,c1,hc
dihedral_coeff	16    0.00000    0.00000    0.00000    0.00000   -0.25000    0.00000  # hc,c,c1,o_2
dihedral_coeff	17   -0.18040    0.00000    0.00120    0.00000    0.03710    0.00000  # hc,c,c_1,o_1
dihedral_coeff	18   -0.63590    0.00000    1.48070    0.00000   -0.04380    0.00000  # hc,c,c_1,o_2
dihedral_coeff	19   -0.18040    0.00000    0.00120    0.00000    0.03710    0.00000  # hc,c1,c_1,o_1
dihedral_coeff	20   -0.63590    0.00000    1.48070    0.00000   -0.04380    0.00000  # hc,c1,c_1,o_2
dihedral_coeff	21    0.00000    0.00000    2.20890    0.00000    0.00000    0.00000  # ho2,o_2,c_1,o_1
dihedral_coeff	22    0.00000  180.00000    0.00000    0.00000    0.00000    0.00000  # o_1,c_1,c1,o_2
dihedral_coeff	23    0.00000  180.00000    0.00000    0.00000    0.00000    0.00000  # o_2,c1,c_1,o_2

# MiddleBondTorsion Coeffs

dihedral_coeff	 1 mbt    0.33880   -0.10960    0.12190    1.52020  # c,c,c_1,o_1
dihedral_coeff	 2 mbt  -17.32800   -5.79000   -3.21140    1.52020  # c,c,c_1,o_2
dihedral_coeff	 3 mbt    0.33880   -0.10960    0.12190    1.52020  # c,c1,c_1,o_1
dihedral_coeff	 4 mbt  -17.32800   -5.79000   -3.21140    1.52020  # c,c1,c_1,o_2
dihedral_coeff	 5 mbt   -5.43500    0.00000    0.00000    1.43000  # c,c1,o_2,c_1
dihedral_coeff	 6 mbt    1.34450    3.55150   -4.92020    1.36830  # c,c_1,o_2,c1
dihedral_coeff	 7 mbt    1.34450    3.55150   -4.92020    1.36830  # c1,c_1,o_2,c1
dihedral_coeff	 8 mbt    2.14520    0.54820   -2.36930    1.36830  # c1,c_1,o_2,ho2
dihedral_coeff	 9 mbt    4.26000    0.00000    0.00000    1.36830  # c1,o_2,c_1,o_1
dihedral_coeff	10 mbt   -3.50390    1.24580   -0.76100    1.53000  # c_1,c,c,hc
dihedral_coeff	11 mbt   -3.50390    1.24580   -0.76100    1.53000  # c_1,c1,c,hc
dihedral_coeff	12 mbt    0.00000    0.00000    0.00000    1.43000  # c_1,c1,o_2,c_1
dihedral_coeff	13 mbt    0.00000    0.00000    0.00000    1.43000  # c_1,o_2,c1,hc
dihedral_coeff	14 mbt  -14.26100   -0.53220   -0.48640    1.53000  # hc,c,c,hc
dihedral_coeff	15 mbt  -14.26100   -0.53220   -0.48640    1.53000  # hc,c,c1,hc
dihedral_coeff	16 mbt    0.00000    0.00000    0.00000    1.53000  # hc,c,c1,o_2
dihedral_coeff	17 mbt    0.23590    0.91390    0.95940    1.52020  # hc,c,c_1,o_1
dihedral_coeff	18 mbt  -13.76860   -2.59590    1.19340    1.52020  # hc,c,c_1,o_2
dihedral_coeff	19 mbt    0.23590    0.91390    0.95940    1.52020  # hc,c1,c_1,o_1
dihedral_coeff	20 mbt  -13.76860   -2.59590    1.19340    1.52020  # hc,c1,c_1,o_2
dihedral_coeff	21 mbt    4.26000    0.00000    0.00000    1.36830  # ho2,o_2,c_1,o_1
dihedral_coeff	22 mbt    0.00000    0.00000    0.00000    1.52020  # o_1,c_1,c1,o_2
dihedral_coeff	23 mbt    0.00000    0.00000    0.00000    1.52020  # o_2,c1,c_1,o_2

# EndBondTorsion Coeffs

dihedral_coeff	 1 ebt    0.26540    0.05030    0.10460   -0.28100    0.08160   -0.15220    1.53000    1.20200  # c,c,c_1,o_1
dihedral_coeff	 2 ebt    0.00000    0.00000    0.00000    0.00000    0.00000    0.00000    1.53000    1.36830  # c,c,c_1,o_2
dihedral_coeff	 3 ebt    0.26540    0.05030    0.10460   -0.28100    0.08160   -0.15220    1.53000    1.20200  # c,c1,c_1,o_1
dihedral_coeff	 4 ebt    0.00000    0.00000    0.00000    0.00000    0.00000    0.00000    1.53000    1.36830  # c,c1,c_1,o_2
dihedral_coeff	 5 ebt    0.00000    0.00000    0.00000    0.00000    0.00000    0.00000    1.53000    1.36830  # c,c1,o_2,c_1
dihedral_coeff	 6 ebt    0.00000    0.00000    0.00000    0.00000    0.00000    0.00000    1.52020    1.43000  # c,c_1,o_2,c1
dihedral_coeff	 7 ebt    0.00000    0.00000    0.00000    0.00000    0.00000    0.00000    1.52020    1.43000  # c1,c_1,o_2,c1
dihedral_coeff	 8 ebt    0.00000    0.00000    0.00000    0.00000    0.00000    0.00000    1.52020    0.95200  # c1,c_1,o_2,ho2
dihedral_coeff	 9 ebt    0.00000    0.00000    0.00000    0.00000    0.00000    0.00000    1.43000    1.20200  # c1,o_2,c_1,o_1
dihedral_coeff	10 ebt   -0.02040    0.36280   -0.44260   -0.00970   -0.03150   -0.07550    1.52020    1.10100  # c_1,c,c,hc
dihedral_coeff	11 ebt   -0.02040    0.36280   -0.44260   -0.00970   -0.03150   -0.07550    1.52020    1.10100  # c_1,c1,c,hc
dihedral_coeff	12 ebt    0.00000    0.00000    0.00000    0.00000    0.00000    0.00000    1.52020    1.36830  # c_1,c1,o_2,c_1
dihedral_coeff	13 ebt    0.00000    0.00000    0.00000    0.00000    0.00000    0.00000    1.36830    1.10100  # c_1,o_2,c1,hc
dihedral_coeff	14 ebt    0.21300    0.31200    0.07770    0.21300    0.31200    0.07770    1.10100    1.10100  # hc,c,c,hc
dihedral_coeff	15 ebt    0.21300    0.31200    0.07770    0.21300    0.31200    0.07770    1.10100    1.10100  # hc,c,c1,hc
dihedral_coeff	16 ebt    0.00000    0.00000    0.00000    0.00000    0.00000    0.00000    1.10100    1.43000  # hc,c,c1,o_2
dihedral_coeff	17 ebt    1.21430    0.28310    0.39160   -0.22980    0.03540    0.38530    1.10100    1.20200  # hc,c,c_1,o_1
dihedral_coeff	18 ebt    0.00000    0.00000    0.00000    0.00000    0.00000    0.00000    1.10100    1.36830  # hc,c,c_1,o_2
dihedral_coeff	19 ebt    1.21430    0.28310    0.39160   -0.22980    0.03540    0.38530    1.10100    1.20200  # hc,c1,c_1,o_1
dihedral_coeff	20 ebt    0.00000    0.00000    0.00000    0.00000    0.00000    0.00000    1.10100    1.36830  # hc,c1,c_1,o_2
dihedral_coeff	21 ebt    0.00000    0.00000    0.00000    0.00000    0.00000    0.00000    0.95200    1.20200  # ho2,o_2,c_1,o_1
dihedral_coeff	22 ebt    0.00000    0.00000    0.00000    0.00000    0.00000    0.00000    1.20200    1.43000  # o_1,c_1,c1,o_2
dihedral_coeff	23 ebt    0.00000    0.00000    0.00000    0.00000    0.00000    0.00000    1.43000    1.36830  # o_2,c1,c_1,o_2

# AngleTorsion Coeffs

dihedral_coeff	 1 at    0.08850   -1.37030   -0.54520    0.67500    0.59650    0.67250  108.52950  123.14510  # c,c,c_1,o_1
dihedral_coeff	 2 at    0.00000    0.00000    0.00000    0.00000    0.00000    0.00000  108.52950  100.31820  # c,c,c_1,o_2
dihedral_coeff	 3 at    0.08850   -1.37030   -0.54520    0.67500    0.59650    0.67250  108.52950  123.14510  # c,c1,c_1,o_1
dihedral_coeff	 4 at    0.00000    0.00000    0.00000    0.00000    0.00000    0.00000  108.52950  100.31820  # c,c1,c_1,o_2
dihedral_coeff	 5 at    0.00000    0.00000    0.00000    0.00000    0.00000    0.00000  107.41000  113.28800  # c,c1,o_2,c_1
dihedral_coeff	 6 at    0.00000    0.00000    0.00000    0.00000    0.00000    0.00000  100.31820  113.28800  # c,c_1,o_2,c1
dihedral_coeff	 7 at    0.00000    0.00000    0.00000    0.00000    0.00000    0.00000  100.31820  113.28800  # c1,c_1,o_2,c1
dihedral_coeff	 8 at    0.00000    0.00000    0.00000    0.00000    0.00000    0.00000  100.31820  112.87400  # c1,c_1,o_2,ho2
dihedral_coeff	 9 at    0.00000    0.00000    0.00000    0.00000    0.00000    0.00000  113.28800  120.79700  # c1,o_2,c_1,o_1
dihedral_coeff	10 at   -0.74660   -0.94480   -0.63210    0.01620    1.42110   -1.40920  108.52950  110.77000  # c_1,c,c,hc
dihedral_coeff	11 at   -0.74660   -0.94480   -0.63210    0.01620    1.42110   -1.40920  108.52950  110.77000  # c_1,c1,c,hc
dihedral_coeff	12 at    0.00000    0.00000    0.00000    0.00000    0.00000    0.00000  109.50000  113.28800  # c_1,c1,o_2,c_1
dihedral_coeff	13 at    0.00000    0.00000    0.00000    0.00000    0.00000    0.00000  113.28800  107.68800  # c_1,o_2,c1,hc
dihedral_coeff	14 at   -0.80850    0.55690   -0.24660   -0.80850    0.55690   -0.24660  110.77000  110.77000  # hc,c,c,hc
dihedral_coeff	15 at   -0.80850    0.55690   -0.24660   -0.80850    0.55690   -0.24660  110.77000  110.77000  # hc,c,c1,hc
dihedral_coeff	16 at    0.00000    0.00000    0.00000    0.00000    0.00000    0.00000  110.77000  107.41000  # hc,c,c1,o_2
dihedral_coeff	17 at    9.12990   -0.48470    0.35820   -1.49460    0.73080   -0.20830  107.73360  123.14510  # hc,c,c_1,o_1
dihedral_coeff	18 at    0.00000    0.00000    0.00000    0.00000    0.00000    0.00000  107.73360  100.31820  # hc,c,c_1,o_2
dihedral_coeff	19 at    9.12990   -0.48470    0.35820   -1.49460    0.73080   -0.20830  107.73360  123.14510  # hc,c1,c_1,o_1
dihedral_coeff	20 at    0.00000    0.00000    0.00000    0.00000    0.00000    0.00000  107.73360  100.31820  # hc,c1,c_1,o_2
dihedral_coeff	21 at    0.00000    0.00000    0.00000    0.00000    0.00000    0.00000  112.87400  120.79700  # ho2,o_2,c_1,o_1
dihedral_coeff	22 at    0.00000    0.00000    0.00000    0.00000    0.00000    0.00000  123.14510  109.50000  # o_1,c_1,c1,o_2
dihedral_coeff	23 at    0.00000    0.00000    0.00000    0.00000    0.00000    0.00000  109.50000  100.31820  # o_2,c1,c_1,o_2

# AngleAngleTorsion Coeffs

dihedral_coeff	 1 aat   -8.01900  108.52950  123.14510  # c,c,c_1,o_1
dihedral_coeff	 2 aat    0.00000  108.52950  100.31820  # c,c,c_1,o_2
dihedral_coeff	 3 aat   -8.01900  108.52950  123.14510  # c,c1,c_1,o_1
dihedral_coeff	 4 aat    0.00000  108.52950  100.31820  # c,c1,c_1,o_2
dihedral_coeff	 5 aat    0.00000  107.41000  113.28800  # c,c1,o_2,c_1
dihedral_coeff	 6 aat    0.00000  100.31820  113.28800  # c,c_1,o_2,c1
dihedral_coeff	 7 aat    0.00000  100.31820  113.28800  # c1,c_1,o_2,c1
dihedral_coeff	 8 aat    0.00000  100.31820  112.87400  # c1,c_1,o_2,ho2
dihedral_coeff	 9 aat    0.00000  113.28800  120.79700  # c1,o_2,c_1,o_1
dihedral_coeff	10 aat   -5.36240  108.52950  110.77000  # c_1,c,c,hc
dihedral_coeff	11 aat   -5.36240  108.52950  110.77000  # c_1,c1,c,hc
dihedral_coeff	12 aat    0.00000  109.50000  113.28800  # c_1,c1,o_2,c_1
dihedral_coeff	13 aat    0.00000  113.28800  107.68800  # c_1,o_2,c1,hc
dihedral_coeff	14 aat  -12.56400  110.77000  110.77000  # hc,c,c,hc
dihedral_coeff	15 aat  -12.56400  110.77000  110.77000  # hc,c,c1,hc
dihedral_coeff	16 aat    0.00000  110.77000  107.41000  # hc,c,c1,o_2
dihedral_coeff	17 aat  -15.34960  107.73360  123.14510  # hc,c,c_1,o_1
dihedral_coeff	18 aat    0.00000  107.73360  100.31820  # hc,c,c_1,o_2
dihedral_coeff	19 aat  -15.34960  107.73360  123.14510  # hc,c1,c_1,o_1
dihedral_coeff	20 aat    0.00000  107.73360  100.31820  # hc,c1,c_1,o_2
dihedral_coeff	21 aat    0.00000  112.87400  120.79700  # ho2,o_2,c_1,o_1
dihedral_coeff	22 aat    0.00000  123.14510  109.50000  # o_1,c_1,c1,o_2
dihedral_coeff	23 aat    0.00000  109.50000  100.31820  # o_2,c1,c_1,o_2

# BondBond13 Coeffs

dihedral_coeff	 1 bb13    0.00000    1.53000    1.20200  # c,c,c_1,o_1
dihedral_coeff	 2 bb13    0.00000    1.53000    1.36830  # c,c,c_1,o_2
dihedral_coeff	 3 bb13    0.00000    1.53000    1.20200  # c,c1,c_1,o_1
dihedral_coeff	 4 bb13    0.00000    1.53000    1.36830  # c,c1,c_1,o_2
dihedral_coeff	 5 bb13    0.00000    1.53000    1.36830  # c,c1,o_2,c_1
dihedral_coeff	 6 bb13    0.00000    1.52020    1.43000  # c,c_1,o_2,c1
dihedral_coeff	 7 bb13    0.00000    1.52020    1.43000  # c1,c_1,o_2,c1
dihedral_coeff	 8 bb13    0.00000    1.52020    0.95200  # c1,c_1,o_2,ho2
dihedral_coeff	 9 bb13    0.00000    1.43000    1.20200  # c1,o_2,c_1,o_1
dihedral_coeff	10 bb13    0.00000    1.52020    1.10100  # c_1,c,c,hc
dihedral_coeff	11 bb13    0.00000    1.52020    1.10100  # c_1,c1,c,hc
dihedral_coeff	12 bb13    0.00000    1.52020    1.36830  # c_1,c1,o_2,c_1
dihedral_coeff	13 bb13    0.00000    1.36830    1.10100  # c_1,o_2,c1,hc
dihedral_coeff	14 bb13    0.00000    1.10100    1.10100  # hc,c,c,hc
dihedral_coeff	15 bb13    0.00000    1.10100    1.10100  # hc,c,c1,hc
dihedral_coeff	16 bb13    0.00000    1.10100    1.43000  # hc,c,c1,o_2
dihedral_coeff	17 bb13    0.00000    1.10100    1.20200  # hc,c,c_1,o_1
dihedral_coeff	18 bb13    0.00000    1.10100    1.36830  # hc,c,c_1,o_2
dihedral_coeff	19 bb13    0.00000    1.10100    1.20200  # hc,c1,c_1,o_1
dihedral_coeff	20 bb13    0.00000    1.10100    1.36830  # hc,c1,c_1,o_2
dihedral_coeff	21 bb13    0.00000    0.95200    1.20200  # ho2,o_2,c_1,o_1
dihedral_coeff	22 bb13    0.00000    1.20200    1.43000  # o_1,c_1,c1,o_2
dihedral_coeff	23 bb13    0.00000    1.43000    1.36830  # o_2,c1,c_1,o_2

# Improper Coeffs

improper_coeff	 1    0.00000    0.00000  # c,c,hc,c_1
improper_coeff	 2    0.00000    0.00000  # c,c,hc,hc
improper_coeff	 3    0.00000    0.00000  # c,c1,hc,hc
improper_coeff	 4    0.00000    0.00000  # c,c_1,hc,hc
improper_coeff	 5    0.00000    0.00000  # c,hc,hc,hc
improper_coeff	 6    0.00000    0.00000  # c1,c,hc,c_1
improper_coeff	 7    0.00000    0.00000  # c1,c,hc,o_2
improper_coeff	 8    0.00000    0.00000  # c1,c,o_2,c_1
improper_coeff	 9    0.00000    0.00000  # c1,c_1,hc,o_2
improper_coeff	10   46.92640    0.00000  # c_1,c,o_2,o_1
improper_coeff	11   46.92640    0.00000  # c_1,c1,o_2,o_1

# AngleAngle Coeffs

improper_coeff	 1 aa    1.08270   -1.82020    2.04030  110.77000  108.52950  107.73360  # c,c,hc,c_1
improper_coeff	 2 aa    0.27380   -0.48250    0.27380  110.77000  110.77000  107.66000  # c,c,hc,hc
improper_coeff	 3 aa    0.27380   -0.48250    0.27380  110.77000  110.77000  107.66000  # c,c1,hc,hc
improper_coeff	 4 aa   -3.38670   -3.49760   -3.38670  107.73360  107.73360  107.66000  # c,c_1,hc,hc
improper_coeff	 5 aa   -0.31570   -0.31570   -0.31570  107.66000  107.66000  107.66000  # c,hc,hc,hc
improper_coeff	 6 aa    1.08270   -1.82020    2.04030  110.77000  108.52950  107.73360  # c1,c,hc,c_1
improper_coeff	 7 aa    0.00000    0.00000    0.00000  110.77000  107.41000  107.68800  # c1,c,hc,o_2
improper_coeff	 8 aa    0.00000    0.00000    0.00000  107.41000  108.52950  109.50000  # c1,c,o_2,c_1
improper_coeff	 9 aa    0.00000    0.00000    0.00000  107.73360  109.50000  107.68800  # c1,c_1,hc,o_2
improper_coeff	10 aa    0.00000    0.00000    0.00000  100.31820  123.14510  120.79700  # c_1,c,o_2,o_1
improper_coeff	11 aa    0.00000    0.00000    0.00000  100.31820  123.14510  120.79700  # c_1,c1,o_2,o_1


# --- Thermo Output ---
thermo_style custom step time temp press enthalpy etotal ke pe ebond eangle edihed eimp evdwl ecoul vol lx ly lz density pxx pyy pzz
thermo_modify flush yes
thermo 1000

# --- Trajectory ---
dump dump_comp all custom 2000 npt_compress.dump id type mol x y z ix iy iz vx vy vz

restart 10000 compress_1.rst compress_2.rst
velocity all create 600.0 616469 mom yes rot yes dist gaussian
# SHAKE disabled

# --- NPT Compression ---
# High pressure compresses the cell from low to target density
# P ramp: 1.0 -> 50000.0 atm
timestep 0.5
fix npt_comp all npt temp 700.0 700.0 100.0 iso 1.0 50000.0 1000.0

run 300000
Generated 21 of 21 mixed pair_coeff terms from sixthpower/sixthpower mixing rule
Neighbor list info ...
  update: every = 1 steps, delay = 0 steps, check = yes
  max neighbors/atom: 4000, page size: 100000
  master list distance cutoff = 11.5
  ghost atom cutoff = 11.5
  binsize = 11.5, bins = 4 4 4
  1 neighbor lists, perpetual/occasional/extra = 1 0 0
  (1) pair lj/class2/coul/cut/kk, perpetual
      attributes: full, newton off, kokkos_device
      pair build: full/bin/kk/device
      stencil: full/bin/3d
      bin: kk/device
Per MPI rank memory allocation (min/avg/max) = 19.75 | 19.75 | 19.75 Mbytes
   Step          Time           Temp          Press         Enthalpy        TotEng         KinEng         PotEng         E_bond        E_angle        E_dihed        E_impro         E_vdwl         E_coul         Volume           Lx             Ly             Lz          Density          Pxx            Pyy            Pzz      
         0   0              600           -792.44901      26286.013      27384.229      8082.1684      19302.06       4431.5841      5908.8815     -3393.7213      309.59645     -781.55221      12827.272      95025.593      45.633123      45.633123      45.633123      0.62999999    -1368.6157     -1377.8568      369.12551    
      1000   500            703.24201      1031.775       30806.684      29409.432      9472.8671      19936.565      4144.5922      5888.8548     -3331.8781      337.49327     -676.90369      13574.407      92856.814      45.283285      45.283285      45.283285      0.64471437     902.20183      2045.4765      147.6468     
      2000   1000           713.73436      570.90367      30123.866      29374.531      9614.2021      19760.329      4175.0162      6136.9147     -3340.5363      357.95006     -843.82386      13274.809      89998.852      44.813857      44.813857      44.813857      0.66518762    -46.035709      497.51389      1261.2328    
      3000   1500           708.90815      96.481196      28602.457      28480.847      9549.1918      18931.655      4210.4619      5956.3858     -3303.0775      379.68537     -775.77086      12463.97       86427.476      44.213064      44.213064      44.213064      0.69267466     96.43383      -1798.5001      1991.5099    
      4000   2000           700.53365      1547.9632      32325.988      30463.5        9436.3848      21027.115      4076.5083      6072.7051     -3157.581       341.60906     -863.02002      14556.893      82500.573      43.533039      43.533039      43.533039      0.72564493     1966.7555      2277.8531      399.28102    
      5000   2500           697.40623      1443.2066      30977.446      29289.219      9394.2576      19894.962      4172.8554      5934.092      -3304.2896      310.15492     -905.95715      13688.106      80209.583      43.126289      43.126289      43.126289      0.7463712      317.72547      2098.7914      1913.103     
      6000   3000           707.08657      684.97033      31593.032      30822.968      9524.6545      21298.314      3921.1177      5925.8078     -3131.2315      353.26887     -1011.6172      15240.968      77086.654      42.559162      42.559162      42.559162      0.77660814     704.35678     -325.03781      1675.592     
      7000   3500           681.24266      783.56363      31679.613      30825.067      9176.5298      21648.538      4190.7561      6103.5826     -3169.8664      358.35262     -1014.6801      15180.393      74779.95       42.130349      42.130349      42.130349      0.80056381     1136.6717     -973.38674      2187.4059    
      8000   4000           700.44605      768.67936      29212.664      28405.973      9435.2048      18970.768      4067.9312      5838.6175     -3128.594       350.94538     -1051.9579      12893.826      71959.158      41.593809      41.593809      41.593809      0.83194584     1158.7593      1049.774       97.504758    
      9000   4500           704.84757      653.97368      31166.154      30505.561      9494.4945      21011.067      4051.0435      5880.6952     -3200.9271      290.74858     -1128.5005      15118.007      69262.437      41.067594      41.067594      41.067594      0.86433751     406.3289       628.76675      926.82537    
     10000   5000           707.8518       774.88083      30234.331      29480.246      9534.9624      19945.284      4038.2957      6097.9658     -3212.6261      365.13793     -1240.646       13897.157      66728.232      40.560491      40.560491      40.560491      0.89716333     2061.8414     -663.73707      926.53821    
     11000   5500           698.30053      915.73264      31551.141      30694.084      9406.3041      21287.78       4200.5775      5968.3073     -3182.249       355.85968     -1286.3482      15231.633      64174.873      40.036399      40.036399      40.036399      0.93285923     4512.8174     -339.41657     -1426.2029    
     12000   6000           688.01692      583.55853      29509.953      28980.266      9267.7809      19712.485      4349.7747      5953.6163     -3122.672       343.49173     -1285.9243      13474.199      62238.506      39.629603      39.629603      39.629603      0.96188238    -1608.7949     -39.79155       3399.2621    
     13000   6500           699.98402      1565.1449      29876.644      28493.354      9428.9812      19064.373      4071.0811      5964.2258     -3164.1726      364.70403     -1341.154       13169.689      60601.424      39.279047      39.279047      39.279047      0.9878666      924.77417     -873.29186      4643.9523    
     14000   7000           697.87839      184.02145      28719.257      28560.501      9400.6178      19159.883      4096.5254      5912.1043     -3001.2302      333.82692     -1393.1743      13211.831      59154.417      38.963898      38.963898      38.963898      1.0120313     -1557.7074      2606.6351     -496.86336    
     15000   7500           700.26553      1886.707       30716.133      29127.133      9432.7733      19694.359      4081.3716      5896.0675     -3130.5403      335.98363     -1365.0673      13876.544      57748.877      38.65282       38.65282       38.65282       1.036663       3740.5301      701.03457      1218.5563    
     16000   8000           691.77975      1276.962       29720.099      28670.658      9318.4673      19352.191      4082.8735      6036.456      -3122.572       372.47134     -1527.6982      13510.66       56351.305      38.33846       38.33846       38.33846       1.0623733      3069.4944      892.16955     -130.7778     
     17000   8500           715.76818      3949.5086      31023.473      27853.376      9641.5982      18211.778      3962.62        5888.0643     -3219.2097      386.54688     -1588.14        12781.897      55036.852      38.038016      38.038016      38.038016      1.0877461      4324.1015      2336.1182      5188.3062    
     18000   9000           712.33287      2651.0412      30553.183      28450.25       9595.3237      18854.926      4078.8904      5883.8926     -3214.2211      342.68158     -1532.0569      13295.74       54391.747      37.888813      37.888813      37.888813      1.1006472      150.40312      2521.1474      5281.5732    
     19000   9500           710.83981      2881.3396      31293.329      29058.403      9575.2118      19483.191      4224.6849      6134.8893     -3126.5644      351.24066     -1605.116       13504.056      53185.463      37.606621      37.606621      37.606621      1.1256106      4226.3178      1318.8868      3098.8141    
     20000   10000          706.54807      3213.6331      30507.972      28041.577      9517.4007      18524.177      4034.1113      5988.6702     -3147.7501      370.74749     -1651.1653      12929.563      52624.804      37.47401       37.47401       37.47401       1.1376028      4229.2289      4733.4535      678.21706    
     21000   10500          696.71512      3603.2362      31546.106      28809.933      9384.9482      19424.984      4073.4079      5904.7243     -3091.94        367.23628     -1638.1165      13809.672      52068.495      37.341493      37.341493      37.341493      1.1497571      2053.6125      2859.5456      5896.5503    
     22000   11000          695.60301      3750.8789      30895.476      28040.678      9369.9678      18670.71       4066.997       5975.0338     -3079.3054      329.85695     -1601.4834      12979.611      52187.509      37.369922      37.369922      37.369922      1.1471351      5844.6717      3609.4469      1798.5182    
     23000   11500          690.63324      5306.7741      33043.612      29023.373      9303.0236      19720.35       4008.7064      5845.3876     -3129.5582      342.78243     -1653.3336      14306.365      51945.197      37.311995      37.311995      37.311995      1.1524862      6578.0197      4493.1961      4849.1064    
     24000   12000          688.82632      3558.5995      31765.44       29103.07       9278.6839      19824.386      3933.7208      6005.647      -3116.4159      343.34239     -1737.7251      14395.817      51299.526      37.156756      37.156756      37.156756      1.1669917      2846.9076      4791.2664      3037.6245    
     25000   12500          700.30987      2693.5375      30054.599      28042.643      9433.3705      18609.272      3778.847       6000.4023     -2927.2164      325.51082     -1774.25        13205.979      51217.647      37.136976      37.136976      37.136976      1.1688573      2649.4858      3457.6587      1973.468     
     26000   13000          695.81685      2358.2285      29703.034      27978.38       9372.8482      18605.532      3997.2011      6007.3874     -2996.4723      321.81519     -1712.8179      12988.419      50146.432      36.876244      36.876244      36.876244      1.1938262     -762.75953      2672.407       5165.038     
     27000   13500          711.30267      3543.8562      32599.601      30025.986      9581.4465      20444.54       3992.1908      6031.0182     -3069.6702      323.00755     -1777.7735      14945.767      49795.669      36.790062      36.790062      36.790062      1.2022355      4472.8589      1602.5254      4556.1844    
     28000   14000          715.80789      3918.882       31894.834      29044.001      9642.1332      19401.868      4002.5313      6008.3905     -3037.9524      347.22324     -1891.6212      13973.296      49880.828      36.811023      36.811023      36.811023      1.200183       3472.2667      1087.0308      7197.3485    
     29000   14500          713.34779      5496.5369      31961.563      28017.844      9608.995       18408.849      4045.7449      5910.036      -3024.956       320.52133     -1806.8741      12964.377      49197.261      36.642096      36.642096      36.642096      1.2168588      6566.9171      3264.024       6658.6695    
     30000   15000          703.90473      4594.0573      31724.457      28440.057      9481.7942      18958.263      3953.4696      5879.02       -3038.4579      368.60484     -1793.4286      13589.055      49021.17       36.598326      36.598326      36.598326      1.22123        5221.348       1986.9754      6573.8487    
     31000   15500          702.19008      5168.1987      31788.398      28118.635      9458.6974      18659.938      3941.7263      6045.5148     -3119.3353      331.87705     -1935.9148      13396.07       48688.111      36.515253      36.515253      36.515253      1.229584       6473.6864      4553.7774      4477.1322    
     32000   16000          690.77742      6098.6354      33692.651      29356.19       9304.9657      20051.224      4145.3682      6028.4447     -3171.5971      320.79114     -1899.5251      14627.742      48755.875      36.532185      36.532185      36.532185      1.227875       4932.415       4827.9431      8535.5482    
     33000   16500          696.14008      5823.6991      32298.758      28190.318      9377.2022      18813.116      3973.2407      5891.743      -3089.5544      347.49666     -1828.7659      13518.956      48372.896      36.43628       36.43628       36.43628       1.2375964      7957.0125      5187.1576      4326.9273    
     34000   17000          693.17227      6219.1944      33109.985      28704.968      9337.2249      19367.743      4021.1018      6057.6786     -3130.4996      339.30199     -1884.1233      13964.284      48566.579      36.484845      36.484845      36.484845      1.2326609      8563.0495      7274.6859      2819.8478    
     35000   17500          699.29638      1703.8383      28561.257      27359.186      9419.7185      17939.467      3972.8885      6027.16       -3128.332       335.67396     -1877.3259      12609.403      48375.55       36.436946      36.436946      36.436946      1.2375285      2998.5193      1031.5074      1081.4884    
     36000   18000          688.06294      7695.4564      34012.693      28679.538      9268.4009      19411.137      4080.6064      5890.8814     -3046.0139      383.8187      -1910.507       14012.351      47519.728      36.220795      36.220795      36.220795      1.2598162      6173.6049      8896.7875      8015.9767    
     37000   18500          680.02349      6623.9598      32875.605      28267.355      9160.1073      19107.247      3888.6154      5914.4812     -2963.5103      346.98425     -1999.982       13920.659      47702.644      36.26721       36.26721       36.26721       1.2549854      7160.4798      5120.9287      7590.471     
     38000   19000          698.58405      4552.3794      30707.287      27553.894      9410.1232      18143.77       4200.3967      5997.7839     -3010.9862      362.56065     -1956.4676      12550.483      47496.747      36.214955      36.214955      36.214955      1.2604257      5779.3623      1627.3389      6250.4369    
     39000   19500          708.78752      5728.8334      30974.391      27015.575      9547.5668      17468.009      4029.6942      6063.5717     -3080.1043      369.14191     -1972.4239      12058.129      47383.065      36.186039      36.186039      36.186039      1.2634498      8551.4028      5473.8895      3161.208     
     40000   20000          697.54456      3742.4658      31016.818      28404.885      9396.1209      19008.764      3962.3644      6048.8773     -3036.4246      339.09888     -1900.6014      13595.45       47855.106      36.305807      36.305807      36.305807      1.2509871      4649.9687      3440.0706      3137.358     
     41000   20500          696.76346      8007.7369      34589.336      29061.112      9385.5993      19675.513      3978.1309      6015.1991     -3041.8879      339.14556     -1852.1087      14237.034      47336.912      36.174286      36.174286      36.174286      1.2646816      8282.7673      7521.5397      8218.9038    
     42000   21000          704.81537      6398.4933      32625.051      28206.258      9494.0608      18712.197      3943.1255      6025.1314     -3055.872       342.81739     -2015.0338      13472.028      47353.277      36.178455      36.178455      36.178455      1.2642446      6290.0697      8553.7672      4351.6429    
     43000   21500          707.13695      7051.0889      33129.759      28260.833      9525.3331      18735.5        4112.0635      5913.8768     -2989.1152      375.3514      -1884.8532      13208.177      47347.934      36.177094      36.177094      36.177094      1.2643872      7281.6294      6854.56        7017.0774    
     44000   22000          705.11667      5946.5715      32418.813      28298.181      9498.1194      18800.062      4051.3313      5947.7512     -3042.518       366.57363     -1913.701       13390.625      47513.959      36.219329      36.219329      36.219329      1.2599691      9092.3262      3213.2935      5534.0947    
     45000   22500          688.29683      7041.1208      32329.208      27467.308      9271.5515      18195.756      4060.7961      6029.7542     -3095.4235      364.58231     -1876.3272      12712.374      47346.559      36.176744      36.176744      36.176744      1.2644239      11818.186      4876.5462      4428.63      
     46000   23000          699.53693      8591.8611      33939.339      28063.963      9422.9587      18641.004      3838.3367      6034.5598     -2980.0827      376.09447     -2044.9949      13417.091      46889.171      36.059872      36.059872      36.059872      1.276758       7108.5189      7197.255       11469.809    
     47000   23500          695.94803      7246.7802      33954.035      28986.182      9374.6153      19611.566      3967.1868      5906.5915     -3068.9181      361.65113     -1952.7414      14397.796      47005.403      36.089644      36.089644      36.089644      1.2736009      8604.911       6358.3933      6777.0362    
     48000   24000          702.56182      8680.946       34863.683      28922.654      9463.7049      19458.949      3915.2062      6034.84       -3047.4422      328.02286     -1924.0174      14152.34       46926.56       36.069454      36.069454      36.069454      1.2757407      9580.7372      7089.1921      9372.9088    
     49000   24500          699.9471       8774.499       34930.64       28954.612      9428.4839      19526.128      3917.3165      5913.3444     -2942.7854      353.06868     -1943.8066      14228.991      46699.734      36.011245      36.011245      36.011245      1.2819371      10415.895      6012.033       9895.5684    
     50000   25000          703.86424      8317.4384      34101.136      28455.2        9481.2488      18973.951      4087.6738      5869.1087     -3030.4983      354.72067     -1887.7521      13580.698      46544.727      35.971358      35.971358      35.971358      1.2862063      8751.4882      8366.6564      7834.1706    
     51000   25500          707.48624      7271.9724      31760.343      26839.502      9530.0382      17309.464      4099.3814      5902.3562     -3003.6679      395.48487     -1977.4984      11893.408      46399.278      35.933849      35.933849      35.933849      1.2902382      7198.829       5921.7759      8695.3124    
     52000   26000          702.89341      6551.3849      31287.155      26876.136      9468.1715      17407.964      3855.7474      5918.8458     -3003.4278      362.25155     -2011.6822      12286.23       46166.817      35.873739      35.873739      35.873739      1.2967349      4381.0444      7142.2488      8130.8615    
     53000   26500          694.57459      10317.739      36264.19       29334.052      9356.1146      19977.937      4088.8815      5864.5494     -3021.1548      324.26742     -1977.7945      14699.188      46055.494      35.844881      35.844881      35.844881      1.2998693      12182.632      9814.3594      8956.2257    
     54000   27000          696.24906      9086.4799      35100.069      28983.669      9378.6703      19604.999      4020.038       5941.718      -3034.4309      324.28361     -1982.0895      14335.48       46155.592      35.870831      35.870831      35.870831      1.2970503      12613.622      7121.7134      7524.1045    
     55000   27500          698.5361       8482.2557      35521.026      29860.069      9409.4772      20450.591      4055.3153      5951.045      -2938.3103      300.5793      -1911.3937      14993.356      45761.75       35.768512      35.768512      35.768512      1.3082131      6839.9219      12181.345      6425.5001    
     56000   28000          722.03401      5497.2248      32400.494      28694.778      9726.0008      18968.777      4112.3722      5990.2505     -2992.7582      341.10901     -2056.2708      13574.075      46222.426      35.888137      35.888137      35.888137      1.2951748      4896.5925      7726.9205      3868.1615    
     57000   28500          693.38102      10726.902      35258.577      28119.377      9340.0369      18779.34       3905.3028      5928.6932     -3032.654       302.68887     -1924.0477      13599.357      45635.137      35.735494      35.735494      35.735494      1.3118427      13416.173      10458.953      8305.5812    
     58000   29000          702.02637      11710.195      37171.41       29327.787      9456.4922      19871.295      4030.3972      5942.6939     -3066.5968      360.28469     -1846.1553      14450.671      45927.909      35.811751      35.811751      35.811751      1.3034803      10771.423      13102.272      11256.891    
     59000   29500          707.88034      11098.229      37052.059      29648.663      9535.3468      20113.316      3939.6971      5891.5069     -3059.4601      351.10491     -1875.9652      14866.433      45740.55       35.762988      35.762988      35.762988      1.3088195      7067.6018      13493.42       12733.665    
     60000   30000          707.01672      10919.977      36789.196      29504.005      9523.7137      19980.291      3985.9042      5857.6136     -2972.5448      386.44295     -1870.7561      14593.631      45744.973      35.76414       35.76414       35.76414       1.3086929      14565.79       10261.185      7932.9555    
     61000   30500          698.97537      10637.041      36317.347      29258.19       9415.3944      19842.795      4104.2872      5830.1688     -2974.4633      362.28284     -1911.6674      14432.187      45504.683      35.70141       35.70141       35.70141       1.3156036      9209.5984      9908.4448      12793.081    
     62000   31000          707.83219      9568.1866      36136.055      29726.902      9534.6983      20192.204      3931.5696      5992.8729     -2956.2485      370.02792     -1953.4659      14807.448      45929.862      35.812259      35.812259      35.812259      1.3034248      11035.203      10388.611      7280.7459    
     63000   31500          712.37575      12492.839      36472.645      28242.079      9595.9012      18646.178      3965.1358      5711.42       -2948.9045      309.38055     -1892.5922      13501.739      45174.425      35.61483       35.61483       35.61483       1.3252216      14568.36       10634.101      12276.056    
     64000   32000          701.68615      8885.576       33788.314      27904.356      9451.9094      18452.447      3894.8611      5947.596      -2940.4404      313.8537      -1922.5258      13159.102      45405.459      35.675442      35.675442      35.675442      1.3184785      9501.3139      6811.7575      10343.657    
     65000   32500          701.66708      12466.709      36687.138      28468.995      9451.6525      19017.343      3902.905       5955.3154     -2876.3449      368.54848     -1808.3658      13475.284      45200.786      35.621756      35.621756      35.621756      1.3244487      12905.192      11229.483      13265.452    
     66000   33000          703.10573      11729.222      35762.853      28048.494      9471.0315      18577.463      3849.8476      6014.5513     -2878.8684      375.46163     -1929.7702      13146.241      45097.737      35.594666      35.594666      35.594666      1.3274751      13532.502      11882.203      9772.9601    
     67000   33500          683.21151      12672.911      37702.47       29397.767      9203.0508      20194.716      3937.2115      6021.2105     -2855.234       353.58906     -2009.4815      14747.421      44933.668      35.551448      35.551448      35.551448      1.3323222      12997.36       12767.535      12253.836    
     68000   34000          688.11355      12429.925      36307.879      28136.199      9269.0826      18867.117      3980.6705      5994.3306     -2925.9809      344.39914     -2046.6999      13520.397      45078.234      35.589534      35.589534      35.589534      1.3280494      9612.3562      15257.465      12419.955    
     69000   34500          701.49082      13236.263      36635.912      27990.993      9449.2781      18541.714      4056.9889      5993.2946     -2949.5074      352.63295     -2030.2209      13118.526      44783.67       35.511844      35.511844      35.511844      1.3367846      12266.117      12156.674      15285.998    
     70000   35000          703.80637      10283.781      34336.909      27651.583      9480.4694      18171.113      3897.5292      5865.9063     -2823.2959      353.12441     -2021.5619      12899.411      44575.262      35.456672      35.456672      35.456672      1.3430347      9174.7215      12475.779      9200.8421    
     71000   35500          697.42137      13113.723      35470.169      26991.815      9394.4616      17597.353      3878.7646      6002.1354     -2832.2297      357.66219     -1959.7472      12150.768      44331.217      35.391846      35.391846      35.391846      1.3504281      13043.345      12876.386      13421.439    
     72000   36000          702.53344      13336.582      39545.363      30835.887      9463.3226      21372.564      3890.7198      6024.6312     -2895.9275      375.51415     -1983.9799      15961.607      44778.712      35.510534      35.510534      35.510534      1.3369327      15993.09       13573.283      10443.374    
     73000   36500          687.72504      13892.736      38905.391      29914.689      9263.8493      20650.84       4008.4702      5968.7664     -2890.6782      351.51703     -2011.2004      15223.965      44374.136      35.403264      35.403264      35.403264      1.349122       11630.913      15216.532      14830.762    
     74000   37000          690.11059      9229.675       33261.497      27290.065      9295.9833      17994.082      3908.6723      5970.7999     -2892.9196      375.41007     -2032.4865      12664.606      44362.521      35.400175      35.400175      35.400175      1.3494752      9779.7672      8891.4871      9017.7706    
     75000   37500          702.97596      12682.778      36048.724      27893.707      9469.2834      18424.424      3897.9449      5986.9174     -2834.1428      331.10134     -1961.9171      13004.52       44089.437      35.327387      35.327387      35.327387      1.3578337      14026.335      13212.526      10809.473    
     76000   38000          706.80735      12430.381      36260.906      28267.122      9520.8934      18746.229      3863.318       5892.8588     -2931.3975      341.60026     -1937.0656      13516.915      44095.275      35.328946      35.328946      35.328946      1.3576539      10613.757      9866.2422      16811.144    
     77000   38500          681.05589      11685.708      33916.147      26306.266      9174.014       17132.252      4055.0111      5838.7177     -2907.9191      335.78143     -1988.86        11799.521      44652.622      35.477172      35.477172      35.477172      1.3407079      16416.55       10006.543      8634.0305    
     78000   39000          684.4547       12605.192      35990.245      27873.905      9219.7969      18654.108      3956.1532      5771.6454     -2895.5227      393.59365     -1948.6726      13376.911      44150.425      35.343669      35.343669      35.343669      1.355958       13219.457      11618.856      12977.264    
     79000   39500          693.53015      15819.765      38243.951      28093.243      9342.0457      18751.198      3839.0631      5850.7685     -2892.7299      351.91289     -1868.1044      13470.288      43996.729      35.302609      35.302609      35.302609      1.3606948      15493.744      16479.912      15485.639    
     80000   40000          700.24094      13206.796      36018.24       27518.396      9432.4419      18085.954      3905.3679      5859.218      -2805.408       345.66518     -1909.8767      12690.987      44130.378      35.338319      35.338319      35.338319      1.356574       14346.771      14472.181      10801.436    
     81000   40500          706.99537      15627.35       37677.391      27699.689      9523.426       18176.263      3866.8881      5736.1882     -2914.5375      337.42379     -1910.7336      13061.034      43779.35       35.244371      35.244371      35.244371      1.3674512      16514.435      13941.338      16426.276    
     82000   41000          695.26834      13310.813      37446.635      28884.904      9365.4597      19519.445      3930.0536      5982.7458     -2933.865       360.85038     -1972.3473      14152.007      44104.315      35.33136       35.33136       35.33136       1.3573756      15036.224      13068.736      11827.48     
     83000   41500          701.98673      14888.688      38151.255      28729.358      9455.9582      19273.4        3957.1419      5876.2646     -2848.215       385.52561     -1928.0586      13830.742      43391.634      35.14002       35.14002       35.14002       1.3796697      17434.913      11295.355      15935.796    
     84000   42000          699.87697      15554.954      37687.125      27722.564      9427.5392      18295.025      3845.8165      6043.0223     -2937.9134      349.29369     -1904.5179      12899.324      43925.18       35.283461      35.283461      35.283461      1.3629113      18431.434      12322.056      15911.373    
     85000   42500          678.53586      14625.694      37904.842      28611.633      9140.0685      19471.565      3781.4809      5869.6367     -2832.8305      368.80392     -1923.0511      14207.525      43568.574      35.187719      35.187719      35.187719      1.3740666      13835.241      13758.238      16283.602    
     86000   43000          710.28609      17315.618      40679.119      29655.953      9567.7529      20088.2        3931.4715      5945.8475     -2951.5502      361.30431     -1971.415       14772.542      43650.824      35.209848      35.209848      35.209848      1.3714775      17945.369      16257.481      17744.003    
     87000   43500          715.73263      15280.17       38615.569      28876.297      9641.1194      19235.177      4019.9368      5830.828      -2817.4383      350.62159     -1930.1586      13781.388      43704.123      35.224173      35.224173      35.224173      1.3698049      17602.137      14869.418      13368.957    
     88000   44000          696.01778      15038.905      38900.023      29371.221      9375.5548      19995.666      3853.9359      6060.9098     -2863.0076      346.07121     -1958.0749      14555.832      43445.639      35.154592      35.154592      35.154592      1.3779547      14311.505      15840.279      14964.931    
     89000   44500          691.11874      16803.121      38714.006      28080.201      9309.5633      18770.638      3948.9561      5899.2872     -2998.1133      394.71422     -1909.049       13434.842      43393.315      35.140474      35.140474      35.140474      1.3796162      16239.141      18640.13       15530.093    
     90000   45000          685.32904      12143.789      36174.196      28367.245      9231.5745      19135.67       3859.4579      5831.0226     -2913.8158      403.08186     -1987.5232      13943.447      44080.996      35.325133      35.325133      35.325133      1.3580937      13991.027      8521.3528      13918.987    
     91000   45500          708.62228      19031.68       41831.943      29844.418      9545.3409      20299.077      3848.7026      5760.6842     -2900.1279      356.74804     -1959.367       15192.437      43189.336      35.085325      35.085325      35.085325      1.386132       18196.681      18983.98       19914.379    
     92000   46000          692.3721       16187.956      38556.728      28266.467      9326.4465      18940.02       3848.8708      5880.7632     -2883.1339      357.27884     -1881.4468      13617.688      43587.151      35.192719      35.192719      35.192719      1.373481       17199.684      16625.754      14738.432    
     93000   46500          700.71081      13887.521      36759.681      28014.149      9438.7713      18575.378      3915.8972      5957.6667     -2868.6833      376.48148     -1969.6504      13163.666      43180.297      35.082878      35.082878      35.082878      1.3864222      13709.526      12312.262      15640.775    
     94000   47000          701.67217      14688.225      37303.045      28054.746      9451.7211      18603.025      3910.4299      6058.847      -2918.9302      340.24683     -2024.8811      13237.313      43173.437      35.08102       35.08102       35.08102       1.3866425      15777.091      14317.777      13969.806    
     95000   47500          684.20702      15285.043      37976.831      28335.97       9216.4605      19119.509      3924.0547      6014.3745     -2937.8935      371.44801     -1962.8676      13710.393      43248.724      35.1014        35.1014        35.1014        1.3842286      11896.864      15296.935      18661.331    
     96000   48000          699.96041      18206.078      39079.398      27692.027      9428.6632      18263.364      3759.1674      5833.081      -2887.7596      345.50902     -1942.0495      13155.416      42887.545      35.003413      35.003413      35.003413      1.395886       17349.507      19412.332      17856.394    
     97000   48500          701.01602      13841.979      37362.01       28619.658      9442.8824      19176.775      3802.4275      5799.4552     -2829.857       357.68514     -1934.3023      13981.367      43306.613      35.117054      35.117054      35.117054      1.3823783      14551.032      15345.659      11629.247    
     98000   49000          709.42074      15960.658      38451.165      28468.99       9556.0965      18912.893      3795.2982      5960.098      -2862.0429      365.20403     -1877.5975      13531.933      42884.318      35.002535      35.002535      35.002535      1.395991       17944.559      15519.044      14418.372    
     99000   49500          700.77523      20375.692      41440.136      28631.548      9439.639       19191.909      3805.4067      5868.8548     -2797.6752      337.53844     -1831.6211      13809.405      43103.547      35.062079      35.062079      35.062079      1.3888909      21571.242      16465.321      23090.513    
    100000   50000          709.92305      15377.304      39071.8        29422.801      9562.8627      19859.938      3851.3838      5973.178      -2867.716       333.42194     -1805.0176      14374.688      43025.525      35.040911      35.040911      35.040911      1.3914095      17511.036      14830.271      13790.607    
    101000   50500          713.46197      17676.447      41143.262      30093.369      9610.533       20482.836      3799.7957      6199.3073     -2874.9692      342.46431     -1829.3148      14845.553      42863.457      34.996859      34.996859      34.996859      1.3966704      19081.106      15799.291      18148.944    
    102000   51000          689.74413      16630.489      39272.934      28832.913      9291.047       19541.866      3866.0329      6116.4049     -2832.8144      342.78947     -1908.7922      13958.246      43044.776      35.046137      35.046137      35.046137      1.3907872      15660.992      16128.96       18101.515    
    103000   51500          699.23596      17383.652      40535.009      29702.073      9418.9046      20283.169      3946.4213      5775.6807     -2860.0814      342.31129     -1879.5911      14958.428      42729.643      34.960402      34.960402      34.960402      1.4010443      19911.116      18018.614      14221.227    
    104000   52000          691.268        13691.215      36371.519      27810.572      9311.574       18498.998      3794.0997      6080.4223     -2838.1371      340.02183     -1926.5603      13049.152      42874.976      34.999993      34.999993      34.999993      1.3962952      13726.31       12097.399      15249.936    
    105000   52500          703.77206      17059.204      38827.022      28224.068      9480.0072      18744.061      3953.4909      5890.487      -2864.4901      374.29307     -1877.7399      13268.02       42617.918      34.929905      34.929905      34.929905      1.4047172      16849.881      15722.183      18605.547    
    106000   53000          712.90697      15953.633      38352.225      28425.351      9603.0569      18822.294      3932.0232      5961.0099     -2886.2778      356.51687     -1865.8069      13324.829      42665.519      34.942905      34.942905      34.942905      1.40315        16700.933      17908.543      13251.422    
    107000   53500          712.4439       19173.318      41700.844      29757.877      9596.8192      20161.058      3875.3632      6016.6955     -2867.5432      337.3996      -1867.4653      14666.608      42710.934      34.955299      34.955299      34.955299      1.401658       17659.862      19427.211      20432.882    
    108000   54000          696.39394      18146.686      41309.945      30066.77       9380.6218      20686.148      3838.28        5962.1987     -2795.5987      396.9296      -1795.6667      15080.005      42483.06       34.893023      34.893023      34.893023      1.4091763      15460.851      20566.759      18412.448    
    109000   54500          714.05776      17278.593      38042.417      27313.704      9618.5584      17695.145      3752.7055      5886.7585     -2870.1818      395.0393      -1932.3899      12463.214      42575.854      34.91841       34.91841       34.91841       1.406105       17916.573      14775.844      19143.362    
    110000   55000          683.31541      19366.649      40068.613      28098.236      9204.4504      18893.785      3811.2088      5849.562      -2922.4133      415.92832     -1790.4382      13529.938      42381.613      34.865227      34.865227      34.865227      1.4125494      18324.906      18365.922      21409.118    
    111000   55500          699.51724      18448.493      39144.823      27735.63       9422.6935      18312.936      3824.5642      5948.7194     -2866.9673      356.65301     -1805.4815      12855.448      42405.105      34.871667      34.871667      34.871667      1.4117669      17349.727      17557.843      20437.91     
    112000   56000          700.11901      18362.459      39790.517      28464.201      9430.7995      19033.401      3949.6973      5845.4341     -2780.9636      375.82559     -1829.9321      13473.34       42294.313      34.841271      34.841271      34.841271      1.4154651      17827.636      18841.27       18418.471    
    113000   56500          711.97846      20952.283      42543.552      29617.379      9590.5496      20026.829      3828.7135      6001.9462     -2861.5885      365.54146     -1821.5459      14513.762      42302.178      34.843431      34.843431      34.843431      1.4152019      20279.907      20536.461      22040.48     
    114000   57000          696.49313      19546.918      40598.114      28624.243      9381.9579      19242.285      4073.4488      5858.3011     -2836.0956      352.26805     -1688.2658      13482.628      42003.008      34.761096      34.761096      34.761096      1.4252818      19813.53       18516.539      20310.687    
    115000   57500          690.64595      23510.886      43492.026      28984.429      9303.1948      19681.234      3742.12        5995.411      -2828.6744      353.09394     -1826.6687      14245.952      42310.739      34.845781      34.845781      34.845781      1.4149155      21631.215      22773.114      26128.329    
    116000   58000          707.25652      18980.806      41003.698      29375.174      9526.9438      19848.23       3748.9818      5835.5036     -2778.4525      323.1514      -1874.4994      14593.545      42008.2        34.762529      34.762529      34.762529      1.4251056      19882.601      19491.139      17568.677    
    117000   58500          687.69684      20534.957      41705.106      29091.65       9263.4695      19828.181      3877.1256      5872.8448     -2808.9646      378.37696     -1839.9396      14348.738      42117.674      34.7927        34.7927        34.7927        1.4214014      20784.466      17090.857      23729.547    
    118000   59000          698.21576      19472.778      40753.006      28755.602      9405.1622      19350.44       3893.8804      5979.0757     -2903.0431      346.50768     -1901.9331      13935.952      42245.792      34.827943      34.827943      34.827943      1.4170908      20954.182      17841.827      19622.325    
    119000   59500          695.31204      21296.777      41056.659      28027.973      9366.0482      18661.925      3765.6937      5886.1715     -2795.3053      325.83816     -1887.2076      13366.735      41947.958      34.745904      34.745904      34.745904      1.4271522      22492.799      18110.907      23286.627    
    120000   60000          690.63004      20924.094      41084.209      28278.021      9302.9805      18975.041      3863.4863      5914.7114     -2831.0304      323.44489     -1899.2684      13603.697      41965.976      34.750877      34.750877      34.750877      1.4265395      22359.439      18057.302      22355.542    
    121000   60500          698.9292       19207.69       40319.935      28536.722      9414.7725      19121.95       3909.7231      5779.9664     -2857.2861      356.04247     -1736.7308      13670.235      42064.206      34.77797       34.77797       34.77797       1.4232082      17129.232      18501.381      21992.457    
    122000   61000          707.69951      20704.523      41627.69       29024.936      9532.911       19492.025      3701.9207      5857.7253     -2817.4281      411.37485     -1832.0501      14170.483      41737.297      34.687642      34.687642      34.687642      1.4343555      23003.708      21036.178      18073.684    
    123000   61500          707.35845      21391.54       42213.058      29110.074      9528.3168      19581.757      3784.0429      5938.3034     -2776.2782      344.2845      -1852.9013      14144.306      42000.287      34.760346      34.760346      34.760346      1.4253741      20991.83       18760.937      24421.853    
    124000   62000          691.41881      23022.404      42883.484      28924.502      9313.6054      19610.897      3789.3723      5857.8832     -2908.6307      316.60962     -1734.732       14290.394      41574.515      34.642487      34.642487      34.642487      1.4399716      23722.108      22263.697      23081.408    
    125000   62500          696.42207      19900.04       39526.065      27313.243      9381.0007      17932.242      3808.6751      5850.3255     -2876.2739      384.55733     -1808.3735      12573.332      42081.013      34.782602      34.782602      34.782602      1.4226398      22677.61       17807.654      19214.856    
    126000   63000          702.20115      24385.265      43279.062      28392.347      9458.8465      18933.5        3840.2548      5877.0338     -2776.9179      360.62834     -1856.6803      13489.181      41859.642      34.721502      34.721502      34.721502      1.4301633      25799.276      25196.099      22160.421    
    127000   63500          698.27805      23790.505      41641.309      27224.126      9406.0013      17818.124      3669.8053      5812.2184     -2831.6115      418.48054     -1687.811       12437.043      41552.855      34.63647       34.63647       34.63647       1.4407223      23865.989      21013.429      26492.097    
    128000   64000          685.7434       20733.998      41168.202      28576.001      9237.156       19338.845      3831.7409      5878.2        -2780.3387      359.69284     -1795.2582      13844.808      41643.065      34.661517      34.661517      34.661517      1.4376013      22480.849      18330.761      21390.385    
    129000   64500          688.68074      18575.53       38600.566      27267.647      9276.7228      17990.925      3896.2036      5983.639      -2853.6739      418.73814     -1868.4145      12414.432      41833.544      34.714285      34.714285      34.714285      1.4310555      18551.084      17256.24       19919.266    
    130000   65000          703.37201      21091.003      41299.029      28540.543      9474.6184      19065.925      3951.8989      5862.7231     -2841.7214      393.03071     -1901.2083      13601.202      41478.783      34.615877      34.615877      34.615877      1.443295       20731.332      19328.15       23213.527    
    131000   65500          691.73321      19606.449      41401.005      29562.503      9317.8404      20244.662      4049.1864      6021.6268     -2806.7989      370.90834     -1752.2112      14361.951      41402.057      34.59452       34.59452       34.59452       1.4459697      17674.864      20128.509      21015.973    
    132000   66000          714.93803      21302.145      40804.112      27949.385      9630.4158      18318.969      3933.589       6016.1447     -2813.4925      350.86456     -1767.2374      12599.101      41377.441      34.587662      34.587662      34.587662      1.44683        18939.314      24098.989      20868.132    
    133000   66500          703.81769      18904.298      39746.453      28208.386      9480.6218      18727.764      3937.1401      5881.2834     -2790.7658      372.09879     -1865.6241      13193.632      41850.111      34.718866      34.718866      34.718866      1.430489       21268.428      20020.013      15424.453    
    134000   67000          705.47168      26423.2        45726.479      29810.345      9502.9016      20307.444      3823.4555      5763.6809     -2800.3992      344.54095     -1762.911       14939.077      41302.496      34.566767      34.566767      34.566767      1.4494553      26977.083      26439.165      25853.351    
    135000   67500          693.00472      23779.9        43549.66       29105.559      9334.968       19770.591      3903.0363      5924.6129     -2850.9141      310.1686      -1761.0484      14244.736      41649.003      34.663164      34.663164      34.663164      1.4373963      21679.917      22940.519      26719.264    
    136000   68000          698.72124      20330.606      41448.037      29157.171      9411.9712      19745.2        3965.9729      5829.0616     -2748.8231      341.36003     -1783.4193      14141.048      41453.029      34.608711      34.608711      34.608711      1.4441917      19227.83       18401.642      23362.346    
    137000   68500          705.37646      24737.743      44075.498      29174.241      9501.6189      19672.622      3928.0037      5896.2104     -2749.0842      330.04763     -1762.9108      14030.356      41303.507      34.567049      34.567049      34.567049      1.4494198      26732.386      24682.42       22798.422    
    138000   69000          718.56241      21215.703      40708.703      27913.313      9679.2373      18234.076      3773.5817      5860.865      -2724.6823      363.85601     -1737.794       12698.249      41354.256      34.581201      34.581201      34.581201      1.4476411      20536.04       19975.356      23135.712    
    139000   69500          705.99362      26481.79       46417.163      30493.258      9509.9322      20983.325      3830.2794      5859.5321     -2817.5123      399.92312     -1746.0404      15457.143      41231.236      34.546876      34.546876      34.546876      1.4519604      28900.234      24210.623      26334.514    
    140000   70000          699.51948      24924.028      43382.671      28384.545      9422.7238      18961.822      3889.2752      5715.6008     -2793.2168      367.30013     -1728.479       13511.341      41261.297      34.55527       34.55527       34.55527       1.4509026      23838.942      27456.947      23476.194    
    141000   70500          703.7599       24606.392      44706.121      29785.609      9479.8433      20305.766      3879.6395      5846.3625     -2774.3418      353.61305     -1824.1333      14824.626      41577.647      34.643357      34.643357      34.643357      1.4398632      22420.33       27268.846      24130.001    
    142000   71000          698.7596       21569.127      42792.198      29856.327      9412.4879      20443.839      3812.4105      5829.7373     -2869.1633      359.85059     -1699.6009      15010.605      41123.23       34.516685      34.516685      34.516685      1.4557738      20351.816      20490.603      23864.963    
    143000   71500          685.34096      24927.809      43651.775      28628.686      9231.7351      19396.951      3894.477       5937.9552     -2829.7388      353.20721     -1813.175       13854.226      41323.704      34.572683      34.572683      34.572683      1.4487114      23635.222      27069.289      24078.915    
    144000   72000          690.20567      23780.279      42633.043      28351.363      9297.2641      19054.099      3750.9695      5852.7311     -2785.1623      413.99071     -1771.9642      13593.535      41180.009      34.532563      34.532563      34.532563      1.4537666      19074.363      27127.759      25138.717    
    145000   72500          700.43038      20339.505      40607.878      28384.154      9434.9938      18949.16       3770.0769      5922.9465     -2645.4189      333.17771     -1806.3557      13374.734      41208.541      34.540537      34.540537      34.540537      1.45276        21914.745      18598.071      20505.701    
    146000   73000          700.36964      25064.428      44441.575      29466.751      9434.1756      20032.575      3632.2475      5922.7942     -2723.5887      376.76588     -1592.2015      14416.558      40966.423      34.472757      34.472757      34.472757      1.4613461      25649.156      24429.211      25114.916    
    147000   73500          705.03908      26702.548      44602.686      28673.467      9497.0743      19176.393      3816.039       5943.3652     -2806.5758      401.44521     -1671.0205      13493.14       40904.009      34.455241      34.455241      34.455241      1.4635759      26683.902      25609.147      27814.595    
    148000   74000          680.93415      26404.6        45789.005      30095.515      9172.3741      20923.141      3780.6613      5785.4181     -2765.4868      342.30274     -1596.9058      15377.151      40753.421      34.412907      34.412907      34.412907      1.468984       26413.223      28463.028      24337.548    
    149000   74500          699.49359      27481.321      44840.651      28457.845      9422.3749      19035.47       3925.447       5800.17       -2779.1428      372.38561     -1656.8015      13373.412      40876.603      34.447544      34.447544      34.447544      1.4645572      28919.657      28295.323      25228.984    
    150000   75000          698.66611      22418.579      41811.37       28353.693      9411.2285      18942.465      3794.5534      5936.8976     -2708.1251      328.37027     -1695.9198      13286.689      41161.018      34.527254      34.527254      34.527254      1.4544374      21746.593      24644.917      20864.227    
    151000   75500          694.61419      24412.072      43545.917      29029.587      9356.648       19672.939      3841.3825      5723.0891     -2773.4982      392.26116     -1610.6316      14100.336      40773.339      34.418512      34.418512      34.418512      1.4682664      22064.587      25641.598      25530.032    
    152000   76000          695.55167      24804.272      42401.932      27565.531      9369.2762      18196.254      3707.2354      5802.8831     -2834.0536      378.08564     -1608.887       12750.991      41013.441      34.48594       34.48594       34.48594       1.4596708      22059.846      27234.97       25118        
    153000   76500          700.07895      26325.511      44974.701      29262.915      9430.2599      19832.655      3862.1177      5728.4761     -2782.1108      351.73929     -1663.4941      14335.927      40923.508      34.460715      34.460715      34.460715      1.4628785      28545.841      25638.732      24791.96     
    154000   77000          702.67825      25854.483      44491.055      29093.872      9465.2733      19628.599      3904.9475      5899.6055     -2737.6705      359.27001     -1598.095       13800.541      40834.713      34.435773      34.435773      34.435773      1.4660596      25871.122      23023.009      28669.319    
    155000   77500          716.89817      27485.859      46292.511      29910.709      9656.8195      20253.889      3659.4126      5969.356      -2714.3713      336.23363     -1616.5952      14619.853      40867.349      34.444945      34.444945      34.444945      1.4648888      29594.542      26096.25       26766.787    
    156000   78000          706.75796      25211.94       45737.621      30741.932      9520.2281      21221.704      3881.0966      5801.6606     -2873.0273      383.96289     -1608.1749      15636.186      40783.478      34.421365      34.421365      34.421365      1.4679014      25005.685      26032.763      24597.374    
    157000   78500          692.15982      26483.171      46834.295      31175.496      9323.5871      21851.909      3914.1643      5878.2418     -2828.8615      360.78142     -1644.4365      16172.02       40542.692      34.35349       34.35349       34.35349       1.4766193      26996.048      25800.793      26652.67     
    158000   79000          708.53302      25125.341      44305.913      29328.748      9544.1387      19784.61       3794.1137      5857.1804     -2759.6291      347.06979     -1701.0639      14246.939      40873.493      34.446671      34.446671      34.446671      1.4646686      27367.561      20851.713      27156.749    
    159000   79500          698.72256      27996.023      45076.378      28550.142      9411.9889      19138.153      3840.2993      5731.0637     -2744.2377      334.54084     -1624.4295      13600.916      40476.386      34.334751      34.334751      34.334751      1.4790382      27017.152      25935.846      31035.072    
    160000   80000          689.70567      29202.367      46785.352      29550.434      9290.5289      20259.905      3737.1647      5736.0629     -2768.9813      363.93008     -1588.0487      14779.777      40468.33       34.332474      34.332474      34.332474      1.4793327      31907.028      26253.571      29446.501    
    161000   80500          703.36452      27432.502      45123.979      28899.699      9474.5175      19425.181      3849.8801      5826.1499     -2775.8058      356.35643     -1556.2645      13724.865      40553.108      34.356431      34.356431      34.356431      1.4762401      30595.636      25552.199      26149.67     
    162000   81000          708.20932      26088.123      45052.916      29642.461      9539.7783      20102.683      3679.1681      5927.4699     -2778.9133      359.15952     -1636.1082      14551.907      40503.889      34.342526      34.342526      34.342526      1.4780339      24798.144      27227.517      26238.707    
[...]
    249000   124500         689.19868      38787.886      51343.64       29554.665      9283.6997      20270.966      3676.9207      5754.8864     -2671.8603      391.86882     -1058.8334      14177.983      38518.095      33.771856      33.771856      33.771856      1.5542337      38533.663      40063.917      37766.078    
    250000   125000         708.79878      36978.37       50252.775      29424.571      9547.7185      19876.853      3767.2539      5738.9563     -2591.7219      358.47711     -1164.8395      13768.727      38621.413      33.802025      33.802025      33.802025      1.5500759      39106.979      36629.044      35199.088    
    251000   125500         706.20208      45107.554      56011.424      30678.931      9512.7402      21166.191      3597.612       5781.4262     -2678.7914      391.14875     -1186.4361      15261.231      38508.16       33.768952      33.768952      33.768952      1.5546347      45566.731      46563.004      43192.927    
    252000   126000         689.84428      42679.681      54064.894      30153.234      9292.3961      20860.838      3595.633       5756.6532     -2650.7818      397.04079     -1098.5366      14860.829      38416.048      33.742006      33.742006      33.742006      1.5583623      41958.912      41518.623      44561.508    
    253000   126500         698.03232      43127.082      53886.089      29651.75       9402.6913      20249.059      3792.3752      5825.9579     -2730.1866      339.90838     -1107.0026      14128.007      38530.549      33.775496      33.775496      33.775496      1.5537313      39843.161      46120.001      43418.085    
    254000   127000         707.94335      40987.69       54124.706      31078.339      9536.1956      21542.143      3809.8212      5694.5923     -2672.9417      361.40222     -1077.7886      15427.058      38554.327      33.782442      33.782442      33.782442      1.5527731      41174.932      39845.413      41942.725    
    255000   127500         700.62894      42707.849      54386.593      30551.629      9437.6684      21113.96       3625.5455      5897.9181     -2597.0429      344.57495     -913.46447      14756.429      38267.573      33.698479      33.698479      33.698479      1.5644087      43185.222      41063.704      43874.621    
    256000   128000         714.91702      44675.659      56399.738      31425.57       9630.1328      21795.437      3706.155       5784.8333     -2712.0607      377.13493     -1009.4973      15648.872      38330.473      33.716933      33.716933      33.716933      1.5618415      43504.533      46177.844      44344.601    
    257000   128500         691.96884      42451.319      55246.202      31501.608      9321.0144      22180.594      3789.6202      5862.4384     -2604.5413      373.05415     -992.61626      15752.638      38352.853      33.723494      33.723494      33.723494      1.5609301      43610.229      43545.804      40197.925    
    258000   129000         696.18887      43153.494      54348.998      30205.772      9377.8595      20827.913      3677.6986      5830.5383     -2596.1175      363.48727     -1122.1869      14674.493      38362.194      33.726231      33.726231      33.726231      1.56055        41431.992      43727.055      44301.435    
    259000   129500         695.52427      48383.668      56550.423      29556.328      9368.9071      20187.421      3580.9362      5765.9514     -2650.1078      404.37559     -1034.5887      14120.854      38255.518      33.694941      33.694941      33.694941      1.5649016      45177.696      51016.89       48956.419    
    260000   130000         695.70784      44826.449      55520.091      30471.096      9371.3798      21099.716      3685.2709      5757.3395     -2667.4353      344.58391     -875.77161      14855.728      38315.993      33.712687      33.712687      33.712687      1.5624317      46058.294      40910.748      47510.304    
    261000   130500         717.82558      42049.63       54480.041      30980.219      9669.3121      21310.907      3869.4453      5708.7373     -2639.8264      346.06099     -1005.6079      15032.098      38320.089      33.713888      33.713888      33.713888      1.5622647      36952.541      44439.966      44756.384    
    262000   131000         700.75632      41986.033      53761.629      30354.89       9439.3843      20915.506      3665.316       5831.24       -2541.5273      363.74463     -998.92892      14595.662      38226.116      33.686306      33.686306      33.686306      1.5661053      43195.322      41107.822      41654.956    
    263000   131500         694.72958      44710.126      57723.365      32793.807      9358.2024      23435.605      3645.1467      5705.286      -2636.1933      356.38743     -926.18756      17291.166      38232.509      33.688184      33.688184      33.688184      1.5658434      43100.386      42408.284      48621.707    
    264000   132000         684.06917      42545.613      55885.47       32103.333      9214.6037      22888.73       3755.6566      5759.9346     -2591.4012      392.76854     -999.28328      16571.055      38328.356      33.716312      33.716312      33.716312      1.5619278      43822.615      38864.477      44949.748    
    265000   132500         705.57823      38959.566      52604.683      30794.045      9504.3368      21289.708      3631.794       5669.8926     -2526.6318      384.76796     -1033.4044      15163.29       38386.487      33.733349      33.733349      33.733349      1.5595624      37812.348      38432.729      40633.62     
    266000   133000         693.33075      44119.218      55608.078      31004.583      9339.3597      21665.224      3648.5967      5779.9567     -2597.6082      354.53533     -1012.0589      15491.802      38237.819      33.689743      33.689743      33.689743      1.565626       42011.854      44716.163      45629.636    
    267000   133500         699.31236      42871.511      54375.412      30525.607      9419.9338      21105.674      3592.2921      5734.1297     -2570.2135      324.85466     -958.77935      14983.39       38145.221      33.662527      33.662527      33.662527      1.5694265      43176.783      42010.96       43426.791    
    268000   134000         706.88648      45968.899      56144.565      30578.293      9521.9593      21056.333      3556.7767      5707.9828     -2617.4052      351.97943     -915.65517      14972.655      38135.321      33.659614      33.659614      33.659614      1.569834       44924.275      46063.37       46919.053    
    269000   134500         697.41806      47028.186      58692.604      32523.743      9394.4169      23129.327      3664.5617      5891.2734     -2689.9067      356.1038      -946.97888      16854.273      38154.932      33.665383      33.665383      33.665383      1.5690271      45401.047      52032.123      43651.388    
    270000   135000         700.50707      44228.889      57091.698      32399.927      9436.0269      22963.9        3717.3442      5825.5592     -2638.3063      366.82706     -998.16185      16690.638      38279.859      33.702085      33.702085      33.702085      1.5639066      42276.931      45128.596      45281.14     
    271000   135500         697.35574      44749.299      54573.302      29728.365      9393.5775      20334.787      3546.0167      5748.5947     -2634.7532      358.87253     -762.42539      14078.482      38069.378      33.640202      33.640202      33.640202      1.5725532      45528.655      44669.379      44049.864    
    272000   136000         696.05715      43836.937      54919.458      30466.367      9376.0852      21090.282      3655.23        5730.955      -2574.8946      355.70924     -965.99         14889.273      38248.787      33.692964      33.692964      33.692964      1.565177       45239.487      44352.843      41918.482    
    273000   136500         699.08773      43249.882      54846.22       30826.226      9416.9079      21409.318      3707.7957      5624.4002     -2560.349       372.2473      -959.92267      15225.146      38081.328      33.643721      33.643721      33.643721      1.5720597      40653.998      41565.504      47530.145    
    274000   137000         698.88081      46129.397      56917.25       31425.522      9414.1206      22011.401      3562.1228      5948.1342     -2525.5204      368.10736     -863.45925      15522.016      37891.833      33.587824      33.587824      33.587824      1.5799215      49408.607      46061.534      42918.049    
    275000   137500         709.82606      45281.887      56638.599      31504.047      9561.5563      21942.49       3668.9229      5947.5215     -2632.6007      350.09177     -910.80804      15519.363      38060.173      33.63749       33.63749       33.63749       1.5729335      45405.321      48143.825      42296.516    
    276000   138000         706.52491      45906.844      55100.476      29566.716      9517.0888      20049.627      3670.7669      5743.1172     -2609.6338      386.71808     -839.73601      13698.395      38138.31       33.660494      33.660494      33.660494      1.5697109      46741.426      44446.699      46532.407    
    277000   138500         694.87633      47385.654      58534.822      32313.6        9360.1791      22953.421      3757.1529      5725.2679     -2570.6869      396.00719     -965.14088      16610.821      37942.868      33.602897      33.602897      33.602897      1.5777965      44542.179      48516.78       49098.002    
    278000   139000         696.02058      49827.67       58373.982      30788.611      9375.5925      21413.018      3612.6617      5860.7293     -2594.2257      394.28713     -834.07101      14973.637      37960.539      33.608112      33.608112      33.608112      1.577062       49299.137      49039.777      51144.095    
    279000   139500         710.9243       45987.121      56570.943      31091.914      9576.3498      21515.564      3596.6752      5786.3223     -2590.3644      401.22282     -954.49915      15276.207      37990.129      33.616843      33.616843      33.616843      1.5758336      45330.234      42492.064      50139.066    
    280000   140000         700.83981      47489.624      55904.766      29653.782      9440.5089      20213.273      3480.2049      5800.622      -2568.8617      373.92638     -920.66723      14048.049      37902.772      33.591056      33.591056      33.591056      1.5794655      47932.411      51892.633      42643.827    
    281000   140500         687.03471      47466.631      56204.501      29871.422      9254.5504      20616.871      3614.3381      5769.6681     -2550.6563      362.42766     -972.56136      14393.655      38039.724      33.631465      33.631465      33.631465      1.5737791      43023.007      48539.873      50837.012    
    282000   141000         703.36913      44401.618      55299.264      30683.286      9474.5796      21208.707      3544.5743      5830.5309     -2548.6363      412.9948      -990.72011      14959.963      38013.899      33.623852      33.623852      33.623852      1.5748483      45061.333      40338.196      47805.324    
    283000   141500         686.15091      47190.543      56771.466      30654.778      9242.6453      21412.132      3637.1938      5999.9014     -2578.6512      372.27199     -941.32784      14922.744      37947.856      33.604369      33.604369      33.604369      1.5775891      46299.2        47788.63       47483.8      
    284000   142000         692.4601       47485.702      56756.429      30598.654      9327.6318      21271.023      3676.6984      5988.2684     -2489.8524      364.38532     -868.19263      14599.715      37771.31       33.552175      33.552175      33.552175      1.5849628      48636.559      50137.303      43683.245    
    285000   142500         712.57823      48939.808      59889.295      32964.662      9598.6288      23366.034      3721.5318      5807.9367     -2647.9498      363.31213     -743.68603      16864.889      37723.47       33.538004      33.538004      33.538004      1.5869728      50248.477      48811.975      47758.971    
    286000   143000         704.20721      47837.008      58305.251      31903.475      9485.8688      22417.606      3539.3455      5777.0176     -2533.2665      415.42378     -853.36007      16072.446      37843.67       33.573588      33.573588      33.573588      1.5819322      48974.072      45395.503      49141.449    
    287000   143500         705.19408      45317.468      56741.571      31814.927      9499.1622      22315.765      3749.0545      5789.4939     -2581.458       333.99354     -803.38241      15828.063      37715.709      33.535704      33.535704      33.535704      1.5872994      44657.875      46546.581      44747.95     
    288000   144000         708.10957      52201.168      60033.467      31351.295      9538.4346      21812.861      3742.3945      5716.4695     -2621.0721      353.76199     -679.10861      15300.416      37675.231      33.523702      33.523702      33.523702      1.5890048      51728.194      54681.475      50193.834    
    289000   144500         699.39696      48450.441      58624.984      31939.597      9421.0733      22518.523      3763.5853      5822.8012     -2585.439       404.06651     -846.2839       15959.793      37765.904      33.550575      33.550575      33.550575      1.5851897      46369.916      48749.191      50232.215    
    290000   145000         699.49201      47329.229      57312.091      31306.991      9422.3537      21884.638      3661.4458      5692.3441     -2573.7123      355.05341     -633.80977      15383.317      37674.994      33.523632      33.523632      33.523632      1.5890148      45095.47       46918.709      49973.509    
    291000   145500         699.95707      46940.939      57578.736      31655.851      9428.6182      22227.233      3563.0705      5838.7199     -2496.21        280.73937     -916.41695      15957.33       37866.545      33.580351      33.580351      33.580351      1.5809766      46794.284      47619.005      46409.527    
    292000   146000         705.12633      47006.766      56396.393      30438.421      9498.2495      20940.171      3502.9096      5823.3433     -2553.594       329.6381      -716.47304      14554.347      37864.698      33.579805      33.579805      33.579805      1.5810537      49375.542      43594.306      48050.45     
    293000   146500         696.2263       48322.803      58086.094      31421.102      9378.3637      22042.738      3609.8182      5966.0918     -2746.2084      334.99936     -705.20662      15583.243      37836.718      33.571531      33.571531      33.571531      1.5822229      51546.064      45772.778      47649.567    
    294000   147000         696.38945      48613.541      57776.932      31185.626      9380.5613      21805.064      3649.9646      5813.4048     -2589.5239      387.80227     -738.73929      15282.156      37506.499      33.473581      33.473581      33.473581      1.5961533      46133.076      47993.481      51714.066    
    295000   147500         711.84857      47534.661      57745.72       31707.153      9588.8         22118.354      3609.8907      5829.9726     -2635.0768      404.03361     -798.33122      15707.865      37560.449      33.489623      33.489623      33.489623      1.5938607      43771.893      50315.647      48516.444    
    296000   148000         715.00953      49978.266      59517.711      32140.002      9631.379       22508.623      3815.2473      5883.5595     -2667.1113      395.08355     -754.69078      15836.535      37561.248      33.489861      33.489861      33.489861      1.5938267      48381.036      52302.194      49251.569    
    297000   148500         707.05747      53229.306      61929.353      32742.552      9524.2626      23218.29       3640.0994      5822.5417     -2639.0829      372.67029     -805.67082      16827.732      37597.572      33.500653      33.500653      33.500653      1.5922869      51378.485      51601.629      56707.804    
    298000   149000         706.03531      47680.484      57658.251      31438.35       9510.4937      21927.856      3567.9393      5675.4008     -2555.9896      362.77843     -690.13457      15567.862      37706.35       33.53293       33.53293       33.53293       1.5876934      47423.986      48103.758      47513.708    
    299000   149500         693.5795       47615.489      58333.848      32096.614      9342.7105      22753.904      3530.3998      5889.6372     -2600.8162      338.75822     -772.88415      16368.809      37782.78       33.555571      33.555571      33.555571      1.5844817      50257.74       43668.401      48920.326    
    300000   150000         697.75925      50725.196      58422.079      30530.432      9399.0129      21131.42       3580.4293      5732.0007     -2660.7569      333.3607      -795.5298       14941.916      37702.88       33.531901      33.531901      33.531901      1.5878395      46234.987      53263.824      52676.776    
Loop time of 691.392 on 1 procs for 300000 steps with 4520 atoms

Performance: 18.745 ns/day, 1.280 hours/ns, 433.907 timesteps/s, 1.961 Matom-step/s
99.9% CPU use with 1 MPI tasks x 1 OpenMP threads

MPI task timing breakdown:
Section |  min time  |  avg time  |  max time  |%varavg| %total
---------------------------------------------------------------
Pair    | 327        | 327        | 327        |   0.0 | 47.30
Bond    | 180.8      | 180.8      | 180.8      |   0.0 | 26.15
Neigh   | 112.86     | 112.86     | 112.86     |   0.0 | 16.32
Comm    | 9.6306     | 9.6306     | 9.6306     |   0.0 |  1.39
Output  | 1.7077     | 1.7077     | 1.7077     |   0.0 |  0.25
Modify  | 49.972     | 49.972     | 49.972     |   0.0 |  7.23
Other   |            | 9.423      |            |       |  1.36

Nlocal:           4520 ave        4520 max        4520 min
Histogram: 1 0 0 0 0 0 0 0 0 0
Nghost:          17139 ave       17139 max       17139 min
Histogram: 1 0 0 0 0 0 0 0 0 0
Neighs:              0 ave           0 max           0 min
Histogram: 1 0 0 0 0 0 0 0 0 0
FullNghs:   3.4212e+06 ave  3.4212e+06 max  3.4212e+06 min
Histogram: 1 0 0 0 0 0 0 0 0 0

Total # of neighbors = 3421200
Ave neighs/atom = 756.90265
Ave special neighs/atom = 5.5353982
Neighbor list builds = 9364
Dangerous builds = 0

unfix npt_comp

undump dump_comp

write_dump all custom npt_compress_last.dump id type mol x y z xu yu zu vx vy vz modify sort id
write_data /home/arz2/PolyJarvis/data/PLA4/lammps/equil/npt_compress/npt_compress_out.data
System init for write_data ...
Generated 21 of 21 mixed pair_coeff terms from sixthpower/sixthpower mixing rule

print "STAGE COMPLETE: NPT compression P=1.0->50000.0atm density target reached"
STAGE COMPLETE: NPT compression P=1.0->50000.0atm density target reached
quit
2.86     | 112.86     | 112.86     |   0.0 | 16.32
Comm    | 9.6306     | 9.6306     | 9.6306     |   0.0 |  1.39
Output  | 1.7077     | 1.7077     | 1.7077     |   0.0 |  0.25
Modify  | 49.972     | 49.972     | 49.972     |   0.0 |  7.23
Other   |            | 9.423      |            |       |  1.36

Nlocal:           4520 ave        4520 max        4520 min
Histogram: 1 0 0 0 0 0 0 0 0 0
Nghost:          17139 ave       17139 max       17139 min
Histogram: 1 0 0 0 0 0 0 0 0 0
Neighs:              0 ave           0 max           0 min
Histogram: 1 0 0 0 0 0 0 0 0 0
FullNghs:   3.4212e+06 ave  3.4212e+06 max  3.4212e+06 min
Histogram: 1 0 0 0 0 0 0 0 0 0

Total # of neighbors = 3421200
Ave neighs/atom = 756.90265
Ave special neighs/atom = 5.5353982
Neighbor list builds = 9364
Dangerous builds = 0
System init for write_data ...
Generated 21 of 21 mixed pair_coeff terms from sixthpower/sixthpower mixing rule
STAGE COMPLETE: NPT compression P=1.0->50000.0atm density target reached
