units real
atom_style full
boundary p p p

# --- Force Field Styles ---
pair_style lj/class2/coul/long 9.5 9.5
kspace_style pppm 1e-6
dielectric 1.000000
bond_style class2
angle_style class2
dihedral_style class2
improper_style class2
special_bonds lj/coul 0 0 1
pair_modify mix sixthpower tail yes
neighbor 2.0 bin
neigh_modify delay 0 every 1 check yes
neigh_modify one 4000
# KOKKOS: package loaded via -pk kokkos on the command line

read_data /home/alexzhao/PolyJarvis/data/PEG4/lammps/equil/minimize/minimize_out.data
Reading data file ...
  orthogonal box = (0 0 0) to (49.321133 49.321133 49.321133)
  1 by 1 by 1 MPI processor grid
  reading atoms ...
  7020 atoms
  reading velocities ...
  7020 velocities
  scanning bonds ...
  4 = max bonds/atom
  scanning angles ...
  10 = max angles/atom
  scanning dihedrals ...
  16 = max dihedrals/atom
  scanning impropers ...
  7 = max impropers/atom
  orthogonal box = (0 0 0) to (49.321133 49.321133 49.321133)
  1 by 1 by 1 MPI processor grid
  reading bonds ...
  7010 bonds
  reading angles ...
  13000 angles
  reading dihedrals ...
  14970 dihedrals
  reading impropers ...
  8000 impropers
Finding 1-2 1-3 1-4 neighbors ...
  special bond factors lj:    0        0        1       
  special bond factors coul:  0        0        1       
     4 = max # of 1-2 neighbors
     6 = max # of 1-3 neighbors
     8 = max # of special neighbors
  special bonds CPU = 0.004 seconds
  read_data CPU = 0.271 seconds
include /home/alexzhao/PolyJarvis/data/PEG4/lammps/equil/emc_build.params
# LAMMPS parameters created by EMC v9.4.4, build Jul 31 2025 20:33:44

# Variables

variable	seed		index	409966
variable	ntotal		index	7020
variable	fshape		index	1
variable	output		index	emc_build
variable	field		index	pcff/pcff
variable	location1	index	~/emc/field/
variable	nav		index	0.6022141179
variable	temperature	index	300
variable	radius		index	5
variable	nrelax		index	100
variable	weight_nonbond	index	0.0001
variable	weight_bond	index	0.0001
variable	weight_focus	index	1
variable	cutoff		index	9.5
variable	charge_cutoff	index	9.5
variable	kappa		index	4
variable	density1	index	0.61
variable	lprevious	index	0
variable	lphase		index	49.3211329242
variable	f_poly		index	10
variable	chem_repeat	index	*CCO*
variable	chem_cap	index	*[H]
variable	lg_repeat	index	7
variable	lg_cap		index	1
variable	norm_poly	index	100
variable	l_poly		index	702
variable	mg_repeat	index	16.04303
variable	mg_cap		index	0
variable	m_poly		index	1604.303
variable	n_poly		index	10
variable	mtotal		index	44073.7394
variable	nphase1		index	7020
variable	mphase1		index	44073.7394
variable	vphase1		index	119977.313144
variable	lbox		index	49.3211329242
variable	lphase1		index	49.3211329242
variable	lxx		index	49.3211329242
variable	lyy		index	49.3211329242
variable	lzz		index	49.3211329242
variable	lzy		index	0
variable	lzx		index	0
variable	lyx		index	0
variable	vtotal		index	119977.313144
variable	nl_poly		index	10

# Types

variable	type_c		index	1
variable	type_hc		index	2
variable	type_ho		index	3
variable	type_oc		index	4
variable	type_oh		index	5

variable	type_bond_c_c	index	1
variable	type_bond_c_hc	index	2
variable	type_bond_c_oc	index	3
variable	type_bond_c_oh	index	4
variable	type_bond_ho_oh	index	5

variable	type_angle_c_c_hc index	1
variable	type_angle_c_c_oc index	2
variable	type_angle_c_c_oh index	3
variable	type_angle_c_oc_c index	4
variable	type_angle_c_oh_ho index	5
variable	type_angle_hc_c_hc index	6
variable	type_angle_hc_c_oc index	7
variable	type_angle_hc_c_oh index	8

# Clusters

variable	n0_poly		index	1
variable	n1_poly		index	10
variable	nl_poly		index	10

# Flags

variable	flag_charged	index	1

# Masses

mass		1    12.01115  # c
mass		2     1.00797  # hc
mass		3     1.00797  # ho
mass		4    15.99940  # oc
mass		5    15.99940  # oh

# Potentials

pair_modify	mix sixthpower tail yes
special_bonds	lj/coul 0 0 1

# Pair Coeffs

pair_coeff	 1  1    0.05400    4.01000  # c,c
pair_coeff	 2  2    0.02000    2.99500  # hc,hc
pair_coeff	 3  3    0.01300    1.09800  # ho,ho
pair_coeff	 4  4    0.24000    3.53500  # oc,oc
pair_coeff	 5  5    0.24000    3.53500  # oh,oh

# Bond Coeffs

bond_coeff	1    1.53000  299.67000 -501.77000  679.81000  # c,c
bond_coeff	2    1.10100  345.00000 -691.89000  844.60000  # c,hc
bond_coeff	3    1.42000  400.39540 -835.19510 1313.01420  # c,oc
bond_coeff	4    1.42000  400.39540 -835.19510 1313.01420  # c,oh
bond_coeff	5    0.96500  532.50620 -1282.90500 2004.76580  # ho,oh

# Angle Coeffs

angle_coeff	1  110.77000   41.45300  -10.60400    5.12900  # c,c,hc
angle_coeff	2  111.27000   54.53810   -8.36420  -13.08380  # c,c,oc
angle_coeff	3  111.27000   54.53810   -8.36420  -13.08380  # c,c,oh
angle_coeff	4  104.50000   35.74540  -10.00670   -6.27290  # c,oc,c
angle_coeff	5  105.80000   52.70610  -12.10900   -9.86810  # c,oh,ho
angle_coeff	6  107.66000   39.64100  -12.92100   -2.43180  # hc,c,hc
angle_coeff	7  108.72800   58.54460  -10.80880  -12.40060  # hc,c,oc
angle_coeff	8  108.72800   58.54460  -10.80880  -12.40060  # hc,c,oh

# BondBond Coeffs

angle_coeff	1 bb    3.38720    1.53000    1.10100  # c,c,hc
angle_coeff	2 bb   11.43180    1.53000    1.42000  # c,c,oc
angle_coeff	3 bb   11.43180    1.53000    1.42000  # c,c,oh
angle_coeff	4 bb   -7.11310    1.42000    1.42000  # c,oc,c
angle_coeff	5 bb   -9.68790    1.42000    0.96500  # c,oh,ho
angle_coeff	6 bb    5.33160    1.10100    1.10100  # hc,c,hc
angle_coeff	7 bb   23.19790    1.10100    1.42000  # hc,c,oc
angle_coeff	8 bb   23.19790    1.10100    1.42000  # hc,c,oh

# BondAngle Coeffs

angle_coeff	1 ba   20.75400   11.42100    1.53000    1.10100  # c,c,hc
angle_coeff	2 ba    2.68680   20.40330    1.53000    1.42000  # c,c,oc
angle_coeff	3 ba    2.68680   20.40330    1.53000    1.42000  # c,c,oh
angle_coeff	4 ba   -2.81120   -2.81120    1.42000    1.42000  # c,oc,c
angle_coeff	5 ba   28.58000   18.92770    1.42000    0.96500  # c,oh,ho
angle_coeff	6 ba   18.10300   18.10300    1.10100    1.10100  # hc,c,hc
angle_coeff	7 ba    4.61890   55.32700    1.10100    1.42000  # hc,c,oc
angle_coeff	8 ba    4.61890   55.32700    1.10100    1.42000  # hc,c,oh

# Dihedral Coeffs

dihedral_coeff	1   -0.52030    0.00000   -0.30280    0.00000   -0.34500    0.00000  # c,c,oc,c
dihedral_coeff	2   -0.67320    0.00000   -0.47780    0.00000   -0.16700    0.00000  # c,c,oh,ho
dihedral_coeff	3    0.53020    0.00000    0.00000    0.00000   -0.39660    0.00000  # c,oc,c,hc
dihedral_coeff	4   -0.14320    0.00000    0.06170    0.00000   -0.10830    0.00000  # hc,c,c,hc
dihedral_coeff	5   -0.14350    0.00000    0.25300    0.00000   -0.09050    0.00000  # hc,c,c,oc
dihedral_coeff	6   -0.14350    0.00000    0.25300    0.00000   -0.09050    0.00000  # hc,c,c,oh
dihedral_coeff	7    0.18630    0.00000   -0.43380    0.00000   -0.21210    0.00000  # hc,c,oh,ho
dihedral_coeff	8   -0.18200    0.00000   -0.10840    0.00000   -0.70470    0.00000  # oc,c,c,oc
dihedral_coeff	9   -0.18200    0.00000   -0.10840    0.00000   -0.70470    0.00000  # oc,c,c,oh

# MiddleBondTorsion Coeffs

dihedral_coeff	1 mbt   -5.92880   -2.70070   -0.31750    1.42000  # c,c,oc,c
dihedral_coeff	2 mbt    1.24720    0.00000    0.74850    1.42000  # c,c,oh,ho
dihedral_coeff	3 mbt   -6.80070   -4.65460   -1.41010    1.42000  # c,oc,c,hc
dihedral_coeff	4 mbt  -14.26100   -0.53220   -0.48640    1.53000  # hc,c,c,hc
dihedral_coeff	5 mbt  -16.79750   -1.22960   -0.27500    1.53000  # hc,c,c,oc
dihedral_coeff	6 mbt  -16.79750   -1.22960   -0.27500    1.53000  # hc,c,c,oh
dihedral_coeff	7 mbt    0.00000    0.92410   -0.58890    1.42000  # hc,c,oh,ho
dihedral_coeff	8 mbt  -17.25850   -3.61570   -0.83640    1.53000  # oc,c,c,oc
dihedral_coeff	9 mbt  -17.25850   -3.61570   -0.83640    1.53000  # oc,c,c,oh

# EndBondTorsion Coeffs

dihedral_coeff	1 ebt   -0.24560    1.05170   -0.77950    0.47410    1.26350    0.55760    1.53000    1.42000  # c,c,oc,c
dihedral_coeff	2 ebt   -0.58000    0.90040    0.00000    0.00000    0.53430    0.90250    1.53000    0.96500  # c,c,oh,ho
dihedral_coeff	3 ebt   -0.16200    0.15640   -1.14080   -0.60540    1.33390    0.96480    1.42000    1.10100  # c,oc,c,hc
dihedral_coeff	4 ebt    0.21300    0.31200    0.07770    0.21300    0.31200    0.07770    1.10100    1.10100  # hc,c,c,hc
dihedral_coeff	5 ebt    0.96810    0.95510    0.04360    0.59030    0.66690    0.85840    1.10100    1.42000  # hc,c,c,oc
dihedral_coeff	6 ebt    0.96810    0.95510    0.04360    0.59030    0.66690    0.85840    1.10100    1.42000  # hc,c,c,oh
dihedral_coeff	7 ebt   -1.75540    1.31450    0.22630    0.24930    0.68030    0.00000    1.10100    0.96500  # hc,c,oh,ho
dihedral_coeff	8 ebt    1.01650    0.75530   -0.46090    1.01650    0.75530   -0.46090    1.42000    1.42000  # oc,c,c,oc
dihedral_coeff	9 ebt    1.01650    0.75530   -0.46090    1.01650    0.75530   -0.46090    1.42000    1.42000  # oc,c,c,oh

# AngleTorsion Coeffs

dihedral_coeff	1 at   -2.74660    1.48770   -0.89550    0.56760    0.94500    0.07030  111.27000  104.50000  # c,c,oc,c
dihedral_coeff	2 at   -3.59030    2.52250    0.48880    0.87260   -0.35770    0.38880  111.27000  105.80000  # c,c,oh,ho
dihedral_coeff	3 at   -0.77770    0.43400   -0.66530   -1.82340    1.63930    0.51440  104.50000  108.72800  # c,oc,c,hc
dihedral_coeff	4 at   -0.80850    0.55690   -0.24660   -0.80850    0.55690   -0.24660  110.77000  110.77000  # hc,c,c,hc
dihedral_coeff	5 at    2.36680    2.49200   -1.01220   -0.18920    0.49180    0.72730  110.77000  111.27000  # hc,c,c,oc
dihedral_coeff	6 at    2.36680    2.49200   -1.01220   -0.18920    0.49180    0.72730  110.77000  111.27000  # hc,c,c,oh
dihedral_coeff	7 at   -3.40600    1.63960    0.07370    0.00000   -0.28100   -0.59440  108.72800  105.80000  # hc,c,oh,ho
dihedral_coeff	8 at    0.55110    0.97370   -0.66730    0.55110    0.97370   -0.66730  111.27000  111.27000  # oc,c,c,oc
dihedral_coeff	9 at    0.55110    0.97370   -0.66730    0.55110    0.97370   -0.66730  111.27000  111.27000  # oc,c,c,oh

# AngleAngleTorsion Coeffs

dihedral_coeff	1 aat  -19.00590  111.27000  104.50000  # c,c,oc,c
dihedral_coeff	2 aat  -12.10380  111.27000  105.80000  # c,c,oh,ho
dihedral_coeff	3 aat  -16.44380  104.50000  108.72800  # c,oc,c,hc
dihedral_coeff	4 aat  -12.56400  110.77000  110.77000  # hc,c,c,hc
dihedral_coeff	5 aat  -20.20060  110.77000  111.27000  # hc,c,c,oc
dihedral_coeff	6 aat  -20.20060  110.77000  111.27000  # hc,c,c,oh
dihedral_coeff	7 aat  -10.50930  108.72800  105.80000  # hc,c,oh,ho
dihedral_coeff	8 aat  -14.04840  111.27000  111.27000  # oc,c,c,oc
dihedral_coeff	9 aat  -14.04840  111.27000  111.27000  # oc,c,c,oh

# BondBond13 Coeffs

dihedral_coeff	1 bb13    0.00000    1.53000    1.42000  # c,c,oc,c
dihedral_coeff	2 bb13    0.00000    1.53000    0.96500  # c,c,oh,ho
dihedral_coeff	3 bb13    0.00000    1.42000    1.10100  # c,oc,c,hc
dihedral_coeff	4 bb13    0.00000    1.10100    1.10100  # hc,c,c,hc
dihedral_coeff	5 bb13    0.00000    1.10100    1.42000  # hc,c,c,oc
dihedral_coeff	6 bb13    0.00000    1.10100    1.42000  # hc,c,c,oh
dihedral_coeff	7 bb13    0.00000    1.10100    0.96500  # hc,c,oh,ho
dihedral_coeff	8 bb13    0.00000    1.42000    1.42000  # oc,c,c,oc
dihedral_coeff	9 bb13    0.00000    1.42000    1.42000  # oc,c,c,oh

# Improper Coeffs

improper_coeff	1    0.00000    0.00000  # c,c,hc,hc
improper_coeff	2    0.00000    0.00000  # c,c,hc,oc
improper_coeff	3    0.00000    0.00000  # c,c,oc,hc
improper_coeff	4    0.00000    0.00000  # c,c,oh,hc
improper_coeff	5    0.00000    0.00000  # c,hc,hc,hc
improper_coeff	6    0.00000    0.00000  # c,hc,hc,oc
improper_coeff	7    0.00000    0.00000  # c,hc,hc,oh

# AngleAngle Coeffs

improper_coeff	1 aa    0.27380   -0.48250    0.27380  110.77000  110.77000  107.66000  # c,c,hc,hc
improper_coeff	2 aa    3.91770    2.59260    0.16890  110.77000  111.27000  108.72800  # c,c,hc,oc
improper_coeff	3 aa    0.16890    2.59260    3.91770  111.27000  110.77000  108.72800  # c,c,oc,hc
improper_coeff	4 aa    0.16890    2.59260    3.91770  111.27000  110.77000  108.72800  # c,c,oh,hc
improper_coeff	5 aa   -0.31570   -0.31570   -0.31570  107.66000  107.66000  107.66000  # c,hc,hc,hc
improper_coeff	6 aa    2.42590    2.42590    2.12830  107.66000  108.72800  108.72800  # c,hc,hc,oc
improper_coeff	7 aa    2.42590    2.42590    2.12830  107.66000  108.72800  108.72800  # c,hc,hc,oh


# --- Thermo Output ---
thermo_style custom step time temp press enthalpy etotal ke pe ebond eangle edihed eimp evdwl ecoul elong etail vol lx ly lz density pxx pyy pzz
thermo_modify flush yes
thermo 1000

# --- Trajectory ---
dump dump_nvt all custom 1000 nvt_softheat.dump id type mol x y z ix iy iz vx vy vz

# --- Restart Checkpointing ---
restart 10000 nvt_1.rst nvt_2.rst

# --- Initial Velocities (optional) ---
velocity all create 300.0 824458 mom yes rot yes dist gaussian

# --- SHAKE Constraints ---
# Constrains H-X bonds to allow 2fs timestep
# SHAKE disabled

# --- NVT Thermostat (Nose-Hoover) ---
# T_damp = 50.0 fs  (coupling timescale for heat exchange)
# Ramp: 300.0 K -> 580.0 K over 500000 steps
timestep 0.5
fix nvt_fix all nvt temp 300.0 580.0 50.0

run 500000
PPPM Kokkos initialization ...
  using 12-bit tables for long-range coulomb
  G vector (1/distance) = 0.29292283
  grid = 32 32 32
  stencil order = 5
  estimated absolute RMS force accuracy = 0.00039792135
  estimated relative force accuracy = 1.1983283e-06
  using double precision cuFFT
  3d grid and FFT values/proc = 59319 32768
Generated 10 of 10 mixed pair_coeff terms from sixthpower/sixthpower mixing rule
Neighbor list info ...
  update: every = 1 steps, delay = 0 steps, check = yes
  max neighbors/atom: 4000, page size: 100000
  master list distance cutoff = 11.5
  ghost atom cutoff = 11.5
  binsize = 11.5, bins = 5 5 5
  1 neighbor lists, perpetual/occasional/extra = 1 0 0
  (1) pair lj/class2/coul/long/kk, perpetual
      attributes: full, newton off, kokkos_device
      pair build: full/bin/kk/device
      stencil: full/bin/3d
      bin: kk/device
Per MPI rank memory allocation (min/avg/max) = 27.47 | 27.47 | 27.47 Mbytes
   Step          Time           Temp          Press         Enthalpy        TotEng         KinEng         PotEng         E_bond        E_angle        E_dihed        E_impro         E_vdwl         E_coul         E_long         E_tail         Volume           Lx             Ly             Lz          Density          Pxx            Pyy            Pzz      
         0   0              300            9265.4546      21385.765      5173.5723      6276.6917     -1103.1194      205.99349      3566.6695     -7693.5045     -25.994801      190.12999      7213.3054     -4559.7185     -267.5732       119977.31      49.321133      49.321133      49.321133      0.60999999     9110.8836      9164.4676      9521.0126    
      1000   500            299.1756       525.97822      7609.5747      6689.2464      6259.4433      429.80309      1593.714       4965.4393     -7749.6275     -45.444239     -818.54555      7102.4515     -4618.1845     -267.5732       119977.31      49.321133      49.321133      49.321133      0.60999999     583.82787      828.7123       165.3945     
      2000   1000           299.98299     -558.91022      5951.0208      6928.9717      6276.3358      652.63597      1646.273       5075.7255     -7797.3487     -46.913514     -673.50203      7072.1991     -4623.7974     -267.5732       119977.31      49.321133      49.321133      49.321133      0.60999999    -324.3097      -1147.819      -204.60196    
      3000   1500           303.49375     -308.20465      6501.2177      7040.4976      6349.7889      690.70865      1731.2624      5083.5307     -7830.8426     -47.136627     -689.74088      7073.0435     -4629.4079     -267.5732       119977.31      49.321133      49.321133      49.321133      0.60999999    -122.12207     -396.27901     -406.21288    
      4000   2000           301.06612     -651.56587      6096.0446      7236.1194      6298.9973      937.12208      1823.1275      5267.5366     -7914.9409     -50.282914     -649.30972      7086.149      -4625.1575     -267.5732       119977.31      49.321133      49.321133      49.321133      0.60999999     59.856414     -911.72138     -1102.8326    
      5000   2500           301.12458     -203.97215      6817.8035      7174.7029      6300.2206      874.48237      1826.3529      5224.2116     -7868.8618     -51.305441     -686.37418      7065.3562     -4634.8969     -267.5732       119977.31      49.321133      49.321133      49.321133      0.60999999     235.63628     -467.30723     -380.24551    
      6000   3000           302.04397     -984.14123      5461.9381      7183.9353      6319.4563      864.47903      1865.4299      5296.7966     -7923.7517     -52.578757     -729.23699      7044.4961     -4636.6761     -267.5732       119977.31      49.321133      49.321133      49.321133      0.60999999    -611.6727      -1365.5776     -975.1734     
      7000   3500           301.50761     -537.98611      6242.5576      7183.8966      6308.2344      875.66226      1951.698       5170.2737     -7926.3359     -45.751617     -684.74237      7040.8008     -4630.2803     -267.5732       119977.31      49.321133      49.321133      49.321133      0.60999999    -130.08635     -1280.5383     -203.33369    
      8000   4000           302.46001     -905.98465      5600.2352      7185.4783      6328.1607      857.31756      1981.9096      5292.9888     -7985.0786     -51.788227     -757.9796       7017.3837     -4640.1181     -267.5732       119977.31      49.321133      49.321133      49.321133      0.60999999    -730.66674     -1118.7664     -868.52078    
      9000   4500           306.73357     -627.67014      6122.617       7220.8803      6417.5735      803.30683      2001.7098      5279.0322     -8012.6554     -52.263211     -769.04177      7003.7619     -4647.2368     -267.5732       119977.31      49.321133      49.321133      49.321133      0.60999999    -451.23521     -740.63316     -691.14203    
     10000   5000           304.70111     -1681.0458      4275.2154      7216.6186      6375.0497      841.56893      2050.7511      5332.7727     -8015.675      -52.795735     -833.8648       7006.4609     -4646.0802     -267.5732       119977.31      49.321133      49.321133      49.321133      0.60999999    -1165.8807     -1588.951      -2288.3055    
     11000   5500           308.0474      -542.69786      6062.0983      7011.6817      6445.0619      566.6198       2004.9936      5198.9109     -8077.7086     -48.588575     -868.24843      7004.9882     -4647.7272     -267.5732       119977.31      49.321133      49.321133      49.321133      0.60999999    -46.59274      -1106.5504     -474.95045    
     12000   6000           310.56098     -656.53761      6082.5162      7231.2903      6497.6518      733.63851      2099.3508      5198.2554     -8025.4986     -55.182267     -821.79242      6992.2145     -4653.7089     -267.5732       119977.31      49.321133      49.321133      49.321133      0.60999999    -1021.3035     -140.56762     -807.74174    
     13000   6500           310.85507     -674.50214      6101.3111      7281.5185      6503.8049      777.71362      2137.8244      5300.2609     -8078.3691     -52.352623     -885.99832      7012.8234     -4656.4751     -267.5732       119977.31      49.321133      49.321133      49.321133      0.60999999    -714.84627     -568.54313     -740.11701    
     14000   7000           303.02119     -316.01492      6621.0794      7174.0253      6339.9021      834.12322      2098.8742      5349.6064     -8018.4017     -55.249475     -882.33792      6992.314      -4650.6823     -267.5732       119977.31      49.321133      49.321133      49.321133      0.60999999    -230.33509     -160.90685     -556.80284    
     15000   7500           305.85509     -84.150293      6960.1126      7107.3543      6399.1938      708.1605       2124.8249      5280.9985     -8060.4313     -57.209939     -906.12415      6981.4389     -4655.3364     -267.5732       119977.31      49.321133      49.321133      49.321133      0.60999999    -207.23819      57.330869     -102.54356    
     16000   8000           306.80054     -752.96342      5898.6299      7216.1246      6418.9747      797.14991      2192.3715      5443.7592     -8101.5336     -56.107811     -993.8751       6973.2306     -4660.6948     -267.5732       119977.31      49.321133      49.321133      49.321133      0.60999999    -303.52122     -922.14435     -1033.2247    
     17000   8500           309.19933     -1480.0865      4402.9594      6992.7348      6469.163       523.57184      2187.9974      5146.9443     -8071.1652     -50.239778     -1000.5354      6976.4364     -4665.8659     -267.5732       119977.31      49.321133      49.321133      49.321133      0.60999999    -1620.5204     -1495.0936     -1324.6454    
     18000   9000           308.571       -1206.612       5140.0895      7251.3542      6456.0167      795.33743      2251.5697      5508.7533     -8173.7382     -54.232704     -1039.951       6966.1153     -4663.179      -267.5732       119977.31      49.321133      49.321133      49.321133      0.60999999    -1633.7092     -1002.9857     -983.14118    
     19000   9500           317.18065     -490.51341      6288.0021      7146.276       6636.1506      510.12539      2207.9322      5277.071      -8156.1436     -54.476305     -1062.5997      6963.4814     -4665.1395     -267.5732       119977.31      49.321133      49.321133      49.321133      0.60999999    -196.17902     -574.81171     -700.54951    
     20000   10000          310.59816     -725.61203      5760.5011      7030.1379      6498.4296      531.7083       2206.4467      5311.5528     -8123.6639     -55.16784      -1111.1947      6966.0195     -4662.2842     -267.5732       119977.31      49.321133      49.321133      49.321133      0.60999999    -850.75724     -592.81086     -733.26799    
     21000   10500          314.34549     -999.649        5405.5806      7154.7125      6576.8324      577.88009      2272.3321      5355.1211     -8222.8091     -59.926046     -1079.1449      6977.403      -4665.0961     -267.5732       119977.31      49.321133      49.321133      49.321133      0.60999999    -1651.7331     -179.80696     -1167.4069    
     22000   11000          312.27268     -810.68071      5623.5921      7042.0775      6533.4645      508.61297      2274.3957      5235.2331     -8182.5492     -51.117228     -1077.3332      6980.0547     -4670.071      -267.5732       119977.31      49.321133      49.321133      49.321133      0.60999999    -1271.1665     -539.40523     -621.47035    
     23000   11500          312.13607     -482.98022      6140.6485      6985.7412      6530.6062      455.13506      2222.2297      5278.8417     -8132.2179     -53.647791     -1149.5177      6958.721      -4669.274      -267.5732       119977.31      49.321133      49.321133      49.321133      0.60999999    -190.08001     -675.72392     -583.13675    
     24000   12000          315.84383     -734.50075      5807.6884      7092.8782      6608.1812      484.697        2264.6898      5264.2886     -8147.7433     -55.751713     -1161.9949      6983.7329     -4662.5244     -267.5732       119977.31      49.321133      49.321133      49.321133      0.60999999    -831.00405     -509.39688     -863.10131    
     25000   12500          311.64766     -141.43971      6648.418       6895.9016      6520.3877      375.51389      2275.0853      5207.2758     -8196.5424     -54.278973     -1160.5439      6970.1097     -4665.5916     -267.5732       119977.31      49.321133      49.321133      49.321133      0.60999999     21.424199      614.95519     -1060.6985    
     26000   13000          313.8797       55.684254      7091.0325      6993.5991      6567.087       426.51217      2306.8691      5172.9461     -8167.1204     -55.986373     -1149.616       6984.8997     -4665.4801     -267.5732       119977.31      49.321133      49.321133      49.321133      0.60999999     1102.3286     -822.74801     -112.52784    
     27000   13500          317.15971     -46.348411      6902.2471      6983.3451      6635.7124      347.63267      2253.3743      5354.1684     -8306.5128     -53.117941     -1191.1356      6956.5073     -4665.6509     -267.5732       119977.31      49.321133      49.321133      49.321133      0.60999999    -112.72631      108.10133     -134.42026    
     28000   14000          310.88998     -962.22384      5338.9712      7022.6186      6504.5352      518.08339      2363.615       5315.219      -8237.2508     -58.034654     -1193.5335      6983.6166     -4655.5483     -267.5732       119977.31      49.321133      49.321133      49.321133      0.60999999    -978.64604     -1062.7918     -845.23367    
     29000   14500          318.08603     -446.7302       6409.0249      7190.6892      6655.0932      535.59601      2386.8987      5360.78       -8226.4893     -57.643298     -1211.8673      6951.4498     -4667.5325     -267.5732       119977.31      49.321133      49.321133      49.321133      0.60999999    -79.994918     -441.50658     -818.68909    
     30000   15000          314.87959     -1098.9893      5053.3799      6976.3321      6588.007       388.32511      2385.059       5235.5847     -8231.562      -56.538501     -1235.7895      6958.9882     -4667.4167     -267.5732       119977.31      49.321133      49.321133      49.321133      0.60999999    -1299.3996     -226.39561     -1771.1727    
     31000   15500          318.90926     -999.27611      5278.4714      7026.9509      6672.317       354.63389      2315.481       5296.9062     -8194.3466     -53.496466     -1304.8492      6961.8326     -4666.8937     -267.5732       119977.31      49.321133      49.321133      49.321133      0.60999999    -1301.0239     -1051.8981     -644.90631    
     32000   16000          320.42602     -490.22311      6236.6211      7094.3871      6704.0512      390.33585      2341.7328      5397.4447     -8294.6447     -59.337609     -1296.4687      6964.3091     -4662.6998     -267.5732       119977.31      49.321133      49.321133      49.321133      0.60999999    -299.11344     -1237.4696      65.913725    
     33000   16500          320.12297     -1428.829       4448.1293      6948.2171      6697.7106      250.50656      2346.5662      5191.84       -8210.4187     -55.666723     -1302.4701      6951.1689     -4670.5131     -267.5732       119977.31      49.321133      49.321133      49.321133      0.60999999    -1067.493      -1135.3211     -2083.6727    
     34000   17000          315.15109     -348.76409      6371.8         6982.0486      6593.6875      388.36108      2335.2468      5375.891      -8279.3495     -56.517042     -1283.9386      6964.9409     -4667.9124     -267.5732       119977.31      49.321133      49.321133      49.321133      0.60999999    -188.48542     -568.69741     -289.10944    
     35000   17500          317.18939     -932.71963      5367.1956      6999.218       6636.3333      362.88474      2438.5419      5268.2642     -8268.7671     -56.495424     -1312.7334      6962.4716     -4668.3971     -267.5732       119977.31      49.321133      49.321133      49.321133      0.60999999    -873.54584     -1316.8968     -607.71629    
     36000   18000          320.72787     -424.05382      6321.0184      7063.0049      6710.3665      352.63833      2336.787       5373.8047     -8216.4945     -53.103377     -1359.5827      6940.6818     -4669.4546     -267.5732       119977.31      49.321133      49.321133      49.321133      0.60999999    -784.01239     -488.07205     -0.077017455  
     37000   18500          321.84709     -1056.5672      5322.0041      7170.7284      6733.7832      436.94526      2401.6868      5370.5842     -8251.458      -53.919635     -1291.1859      6934.9295     -4673.6917     -267.5732       119977.31      49.321133      49.321133      49.321133      0.60999999    -1584.9087     -973.50259     -611.29038    
     38000   19000          320.69417     -40.304676      6936.3612      7006.8842      6709.6615      297.2227       2360.7178      5297.4238     -8287.9734     -52.289039     -1304.2241      6951.2296     -4667.662      -267.5732       119977.31      49.321133      49.321133      49.321133      0.60999999     325.68156     -500.36762      53.772029    
     39000   19500          325.62892     -889.54996      5550.6039      7107.0904      6812.9078      294.18265      2399.5579      5305.9552     -8284.3563     -60.037193     -1335.7988      6939.0425     -4670.1807     -267.5732       119977.31      49.321133      49.321133      49.321133      0.60999999    -67.055013     -1263.6941     -1337.9008    
     40000   20000          323.68632     -854.75992      5484.3632      6979.976       6772.2641      207.71189      2402.8085      5165.9015     -8223.6147     -58.259343     -1333.9562      6936.8215     -4681.9894     -267.5732       119977.31      49.321133      49.321133      49.321133      0.60999999    -658.66257     -1332.7795     -572.83765    
     41000   20500          321.1768      -944.33983      5327.5188      6979.8737      6719.7593      260.11442      2356.8559      5375.7679     -8298.5171     -57.240307     -1367.3066      6935.5776     -4685.0229     -267.5732       119977.31      49.321133      49.321133      49.321133      0.60999999    -1978.6798     -20.642925     -833.69674    
     42000   21000          325.54961     -259.40237      6689.6768      7143.565       6811.2485      332.31651      2508.2916      5313.0088     -8277.1498     -54.819857     -1397.1827      6921.3127     -4681.1444     -267.5732       119977.31      49.321133      49.321133      49.321133      0.60999999    -35.092498     -5.3756387     -737.73899    
     43000   21500          328.07531     -210.71359      6683.7247      7052.42        6864.092       188.32807      2427.9254      5348.327      -8321.3655     -52.559696     -1461.2437      6922.6965     -4675.452      -267.5732       119977.31      49.321133      49.321133      49.321133      0.60999999     150.21183     -274.94597     -507.40664    
     44000   22000          329.06981     -94.116199      6990.9919      7155.6714      6884.8992      270.77213      2507.6172      5228.7874     -8291.038      -53.212317     -1376.5713      6932.5147     -4677.3255     -267.5732       119977.31      49.321133      49.321133      49.321133      0.60999999    -939.51008      288.43336      368.72812    
     45000   22500          320.33782     -764.82398      5669.3531      7007.6009      6702.2058      305.39512      2434.6606      5334.659      -8223.3118     -52.362919     -1412.4115      6910.4183     -4686.2565     -267.5732       119977.31      49.321133      49.321133      49.321133      0.60999999    -399.82883     -1352.5351     -542.10807    
     46000   23000          326.57769     -498.39785      6339.3189      7211.3886      6832.7584      378.63024      2443.5779      5462.6225     -8294.9082     -60.62446      -1400.9588      6914.1237     -4685.2024     -267.5732       119977.31      49.321133      49.321133      49.321133      0.60999999    -1216.4693     -79.08482      -199.6394     
     47000   23500          324.23518     -801.31982      5740.1449      7142.2511      6783.7475      358.50357      2498.9009      5358.086      -8228.9699     -57.595591     -1434.9885      6905.799      -4682.7282     -267.5732       119977.31      49.321133      49.321133      49.321133      0.60999999    -193.11308     -1374.8666     -835.97981    
     48000   24000          322.74496     -487.01295      6041.9075      6894.0565      6752.5688      141.48774      2473.9727      5395.7138     -8360.8211     -56.431663     -1526.2195      6901.1949     -4685.9214     -267.5732       119977.31      49.321133      49.321133      49.321133      0.60999999    -250.20072     -741.776       -469.06212    
     49000   24500          324.42351     -2009.4528      3586.3071      7102.3392      6787.688       314.65127      2549.9336      5398.0107     -8300.5828     -58.072505     -1488.4256      6900.4043     -4686.6164     -267.5732       119977.31      49.321133      49.321133      49.321133      0.60999999    -2430.0435     -1478.0746     -2120.2404    
     50000   25000          329.53435     -760.5864       5760.2968      7091.1298      6894.6184      196.51142      2506.4415      5302.1111     -8324.437      -55.116356     -1448.365       6905.127      -4689.2498     -267.5732       119977.31      49.321133      49.321133      49.321133      0.60999999    -422.56226     -420.3215      -1438.8755    
     51000   25500          333.5539      -704.43834      6012.231       7244.8192      6978.7167      266.10251      2505.4346      5448.9787     -8328.9578     -57.523779     -1515.4843      6898.9266     -4685.2715     -267.5732       119977.31      49.321133      49.321133      49.321133      0.60999999     101.68011     -1651.8343     -563.16082    
     52000   26000          330.16471     -254.60759      6724.8062      7170.3048      6907.8071      262.4977       2479.0847      5301.8709     -8231.2902     -52.622141     -1451.741       6903.7798     -4686.5844     -267.5732       119977.31      49.321133      49.321133      49.321133      0.60999999    -141.84081     -600.44402     -21.537946    
     53000   26500          322.51994     -488.85979      6218.5749      7073.9554      6747.8608      326.09461      2532.2054      5500.1942     -8346.4114     -60.772534     -1517.2289      6902.4707     -4684.363      -267.5732       119977.31      49.321133      49.321133      49.321133      0.60999999     179.77272     -255.99522     -1390.3569    
     54000   27000          330.45091     -120.53647      7000.4386      7211.3468      6913.795       297.55172      2542.3139      5422.2829     -8343.4258     -58.813113     -1491.2825      6911.5954     -4685.119      -267.5732       119977.31      49.321133      49.321133      49.321133      0.60999999     258.58792     -170.25723     -449.94009    
     55000   27500          328.10366     -645.87502      5999.0645      7129.1817      6864.6852      264.49655      2462.2523      5475.3893     -8301.8414     -63.205653     -1514.9846      6892.5618     -4685.6753     -267.5732       119977.31      49.321133      49.321133      49.321133      0.60999999     310.86459     -1780.9894     -467.50027    
     56000   28000          335.74652     -1144.552       5224.9526      7227.6279      7024.5914      203.03656      2470.3671      5459.6736     -8336.3935     -60.291662     -1528.1041      6884.766      -4686.9809     -267.5732       119977.31      49.321133      49.321133      49.321133      0.60999999    -1260.9263     -1395.8379     -776.89175    
     57000   28500          337.47184     -1238.1323      5263.065       7429.4821      7060.6889      368.79315      2556.9271      5493.7918     -8311.3822     -59.45972      -1524.8555      6898.3411     -4684.5694     -267.5732       119977.31      49.321133      49.321133      49.321133      0.60999999    -1268.4465     -683.70506     -1762.2452    
     58000   29000          334.15134      67.07384       7376.0979      7258.7358      6991.2166      267.51921      2554.3792      5447.1807     -8332.2622     -60.824253     -1555.7537      6899.8588     -4685.0594     -267.5732       119977.31      49.321133      49.321133      49.321133      0.60999999    -287.93916     -209.72602      698.88669    
     59000   29500          331.47503     -46.366046      7096.2687      7177.3975      6935.222       242.17553      2518.0027      5453.4251     -8367.8334     -54.948488     -1527.4988      6905.0175     -4683.9891     -267.5732       119977.31      49.321133      49.321133      49.321133      0.60999999     170.31706     -403.18868      93.773479    
     60000   30000          332.98278      236.98425      7596.6247      7181.9624      6966.7675      215.19491      2484.3729      5430.0487     -8348.4835     -60.26975      -1506.5591      6895.8947     -4679.8091     -267.5732       119977.31      49.321133      49.321133      49.321133      0.60999999     258.24429     -274.83985      727.54833    
     61000   30500          335.23371     -354.67464      6905.4862      7526.0767      7013.8621      512.21458      2611.8801      5531.1973     -8254.0905     -59.217918     -1531.8737      6900.2129     -4685.8936     -267.5732       119977.31      49.321133      49.321133      49.321133      0.60999999    -726.82567     -910.94837      573.75013    
     62000   31000          337.5932      -694.45083      6207.6576      7422.7702      7063.2282      359.54197      2556.3764      5499.7527     -8318.9948     -61.405645     -1518.9496      6885.1968     -4682.4338     -267.5732       119977.31      49.321133      49.321133      49.321133      0.60999999    -938.33425     -188.02409     -956.99414    
     63000   31500          330.25682     -159.71471      6949.1062      7228.5663      6909.7343      318.83208      2597.1605      5303.3256     -8248.0845     -60.770015     -1504.0786      6906.3794     -4675.1003     -267.5732       119977.31      49.321133      49.321133      49.321133      0.60999999    -672.63674      333.56617     -140.07356    
     64000   32000          338.19799     -1092.0565      5576.3295      7487.151       7075.8818      411.26919      2662.6606      5473.9479     -8328.7776     -58.679213     -1559.0118      6901.7355     -4680.6062     -267.5732       119977.31      49.321133      49.321133      49.321133      0.60999999    -1685.0433     -1267.55       -323.57618    
     65000   32500          334.78963     -1461.3614      4762.6749      7319.6861      7004.5709      315.11519      2596.1663      5399.2204     -8273.9535     -54.640137     -1581.1724      6910.3791     -4680.8847     -267.5732       119977.31      49.321133      49.321133      49.321133      0.60999999    -698.82528     -2287.2889     -1397.9699    
     66000   33000          333.37968     -398.88819      6736.2524      7434.2055      6975.0716      459.13388      2621.6298      5479.7885     -8289.4315     -58.486124     -1518.0277      6907.9171     -4684.2563     -267.5732       119977.31      49.321133      49.321133      49.321133      0.60999999    -1310.2694     -17.631515      131.23637    
     67000   33500          336.16893     -630.02473      6420.8656      7523.2489      7033.4292      489.81972      2684.3584      5527.958      -8318.1145     -57.269562     -1564.9614      6899.4599     -4681.6111     -267.5732       119977.31      49.321133      49.321133      49.321133      0.60999999    -1077.0784     -565.92986     -247.06594    
     68000   34000          342.52304     -873.64474      5971.0695      7499.7259      7166.3718      333.35413      2611.8665      5527.9561     -8345.6527     -61.474007     -1600.8637      6891.1068     -4689.5849     -267.5732       119977.31      49.321133      49.321133      49.321133      0.60999999    -955.2342      -402.72674     -1262.9733    
     69000   34500          340.26161     -1544.3897      4749.35        7451.6398      7119.0573      332.58242      2662.7734      5416.7802     -8268.5998     -57.110978     -1620.3248      6892.1986     -4693.1342     -267.5732       119977.31      49.321133      49.321133      49.321133      0.60999999    -1546.935      -1739.8395     -1346.3945    
     70000   35000          336.89326      163.62995      7713.1446      7426.8337      7048.5837      378.25003      2587.3596      5392.7559     -8341.0519     -58.755315     -1427.8733      6914.2179     -4688.4029     -267.5732       119977.31      49.321133      49.321133      49.321133      0.60999999    -168.50982      965.37785     -305.97818    
     71000   35500          335.42829     -1280.122       5240.6072      7480.4955      7017.9332      462.56237      2683.1312      5494.4038     -8300.1971     -56.304579     -1573.9264      6899.3284     -4683.873      -267.5732       119977.31      49.321133      49.321133      49.321133      0.60999999    -1342.8117     -1348.5039     -1149.0504    
     72000   36000          339.57599      18.334286      7622.4691      7590.3887      7104.7128      485.67598      2593.3281      5507.3489     -8306.0595     -62.833992     -1479.6967      6915.6075     -4682.0183     -267.5732       119977.31      49.321133      49.321133      49.321133      0.60999999    -601.99445      971.08789     -314.09058    
     73000   36500          338.42705     -511.41313      6564.9901      7459.8333      7080.6743      379.15901      2612.4908      5425.7679     -8278.3053     -58.806378     -1557.1431      6914.9157     -4679.7606     -267.5732       119977.31      49.321133      49.321133      49.321133      0.60999999    -231.17865     -151.39189     -1151.6689    
     74000   37000          343.59186      208.8567       8061.5666      7696.1204      7188.7339      507.38649      2630.7677      5479.8676     -8263.9575     -61.291525     -1516.1224      6920.8016     -4682.679      -267.5732       119977.31      49.321133      49.321133      49.321133      0.60999999    -380.80741      1250.6043     -243.22679    
     75000   37500          339.82205     -1016.6529      5817.3471      7596.2314      7109.8609      486.3705       2649.8308      5386.8125     -8237.384      -59.143877     -1482.5174      6914.7147     -4685.9423     -267.5732       119977.31      49.321133      49.321133      49.321133      0.60999999    -1578.4951     -317.59676     -1153.8668    
     76000   38000          341.65906     -303.33973      7181.9623      7712.7298      7148.2953      564.43449      2683.7839      5505.2929     -8283.9208     -56.154231     -1512.8942      6911.5845     -4683.2574     -267.5732       119977.31      49.321133      49.321133      49.321133      0.60999999     193.52899     -720.61189     -382.93628    
     77000   38500          338.55536     -1013.1478      5763.8138      7536.5651      7083.3588      453.20634      2680.1532      5475.9698     -8350.7893     -58.528784     -1513.6727      6908.2745     -4688.2004     -267.5732       119977.31      49.321133      49.321133      49.321133      0.60999999    -1010.3875     -774.83224     -1254.2236    
     78000   39000          344.42567     -1194.7795      5631.7772      7722.338       7206.1792      516.15877      2668.4659      5633.1027     -8399.808      -60.431342     -1547.2536      6906.0259     -4683.9428     -267.5732       119977.31      49.321133      49.321133      49.321133      0.60999999    -1218.3146     -1539.1359     -826.88801    
     79000   39500          345.34589     -588.79871      6721.383       7751.6312      7225.4322      526.19895      2734.49        5496.3177     -8313.2719     -59.086321     -1564.1281      6913.0175     -4681.1399     -267.5732       119977.31      49.321133      49.321133      49.321133      0.60999999    -1174.2551     -704.21024      112.06919    
     80000   40000          343.85831     -1385.1786      5306.6206      7730.3313      7194.3087      536.02259      2631.1582      5481.3475     -8260.4738     -58.666634     -1492.0628      6919.1017     -4684.3816     -267.5732       119977.31      49.321133      49.321133      49.321133      0.60999999    -1520.0337     -1298.1656     -1337.3363    
     81000   40500          341.23321     -743.77802      6400.2708      7701.6934      7139.3856      562.30781      2667.316       5493.1023     -8302.9855     -59.014819     -1479.7456      6924.1308     -4680.4954     -267.5732       119977.31      49.321133      49.321133      49.321133      0.60999999    -1065.9288     -269.25228     -896.15296    
     82000   41000          344.2127      -340.48946      7191.2233      7786.9934      7201.7234      585.26996      2723.767       5487.853      -8300.7308     -61.050035     -1482.7871      6909.8672     -4691.6494     -267.5732       119977.31      49.321133      49.321133      49.321133      0.60999999    -717.35618     -233.87179     -70.240409    
     83000   41500          345.67782     -537.25877      6891.6566      7831.723       7232.3771      599.34592      2679.1125      5597.8657     -8324.4618     -60.299268     -1506.9157      6905.0403     -4690.9958     -267.5732       119977.31      49.321133      49.321133      49.321133      0.60999999    -550.29869      191.76291     -1253.2405    
     84000   42000          348.68992      290.88236      8298.5806      7789.6103      7295.3972      494.21312      2662.3187      5456.3304     -8282.3653     -55.793037     -1493.37        6893.581      -4686.4886     -267.5732       119977.31      49.321133      49.321133      49.321133      0.60999999     730.77982     -247.4998       389.36707    
     85000   42500          353.45194     -20.716377      7858.2285      7894.4769      7395.0295      499.44748      2626.1322      5551.1154     -8309.1796     -60.040819     -1524.6295      6901.0331     -4684.9833     -267.5732       119977.31      49.321133      49.321133      49.321133      0.60999999    -280.0372      -117.37247      335.26054    
     86000   43000          348.89569     -933.83393      6289.0061      7922.9783      7299.7024      623.2759       2702.6329      5596.5529     -8325.6648     -59.535563     -1500.7146      6898.5884     -4688.5835     -267.5732       119977.31      49.321133      49.321133      49.321133      0.60999999    -2115.3658     -965.4457       279.30968    
     87000   43500          348.60054      84.920419      8002.5125      7853.9233      7293.5271      560.39622      2644.5707      5630.393      -8370.61       -64.181671     -1485.9852      6900.2146     -4694.0052     -267.5732       119977.31      49.321133      49.321133      49.321133      0.60999999    -541.06547      349.21736      446.60937    
     88000   44000          351.22        -398.21554      7175.8294      7872.6055      7348.3323      524.27313      2614.6892      5526.2997     -8291.3803     -61.427303     -1459.093       6886.4956     -4691.3108     -267.5732       119977.31      49.321133      49.321133      49.321133      0.60999999    -918.30486      238.60195     -514.9437     
     89000   44500          349.65474     -1183.7548      6028.4432      8099.7134      7315.5833      784.13003      2767.947       5558.6532     -8211.4527     -63.9078       -1467.7177      6891.9542     -4691.3462     -267.5732       119977.31      49.321133      49.321133      49.321133      0.60999999    -1632.941      -1708.2569     -210.06634    
     90000   45000          348.13704     -717.9907       6651.5176      7907.819       7283.8296      623.98945      2708.1411      5649.6992     -8365.6505     -60.411477     -1507.3165      6892.3234     -4692.7958     -267.5732       119977.31      49.321133      49.321133      49.321133      0.60999999    -979.40153     -137.9345      -1036.6361    
     91000   45500          352.1227      -294.83987      7673.7652      8189.6601      7367.2189      822.44123      2688.3269      5783.8176     -8326.2699     -60.008761     -1469.1074      6892.6908     -4687.0079     -267.5732       119977.31      49.321133      49.321133      49.321133      0.60999999    -57.754489     -778.63037     -48.134743    
     92000   46000          348.80372     -877.38756      6540.987       8076.1925      7297.7781      778.41441      2804.1229      5774.9853     -8312.1513     -63.823478     -1613.4618      6876.6849     -4687.9421     -267.5732       119977.31      49.321133      49.321133      49.321133      0.60999999    -413.32294     -343.10173     -1875.738     
     93000   46500          347.40063     -675.25331      6853.8809      8035.4027      7268.4222      766.98049      2667.9925      5744.6374     -8262.1889     -62.264954     -1509.0304      6876.4054     -4688.5705     -267.5732       119977.31      49.321133      49.321133      49.321133      0.60999999    -954.01694     -267.69573     -804.04725    
     94000   47000          355.23216     -1033.3172      6314.1652      8122.2078      7432.2759      689.93188      2723.2777      5505.1821     -8257.333      -59.81284      -1432.797       6895.6309     -4684.216      -267.5732       119977.31      49.321133      49.321133      49.321133      0.60999999    -77.960813     -1180.3174     -1841.6733    
     95000   47500          356.33213     -440.50836      7506.4248      8277.2026      7455.2898      821.91284      2792.1976      5699.0325     -8299.6482     -62.223199     -1489.854       6871.6184     -4689.2102     -267.5732       119977.31      49.321133      49.321133      49.321133      0.60999999     7.4321129     -856.47446     -472.48273    
     96000   48000          353.15357     -505.35379      7258.1277      8142.3685      7388.7869      753.58164      2757.0727      5605.4299     -8253.9246     -61.499975     -1494.5085      6886.4398     -4685.4275     -267.5732       119977.31      49.321133      49.321133      49.321133      0.60999999    -204.69149     -189.71473     -1121.6552    
     97000   48500          353.32643     -1287.8581      5833.1145      8086.5391      7392.4036      694.13555      2814.2439      5651.2961     -8349.7596     -60.689496     -1580.2535      6899.9313     -4680.6331     -267.5732       119977.31      49.321133      49.321133      49.321133      0.60999999    -1812.4233     -2404.8112      353.66017    
     98000   49000          356.65724     -693.1758       7028.9218      8241.8035      7462.0918      779.7117       2854.6646      5627.4711     -8330.5543     -60.313523     -1523.3542      6893.5363     -4681.7382     -267.5732       119977.31      49.321133      49.321133      49.321133      0.60999999    -841.40738     -700.29943     -537.8206     
     99000   49500          359.58027     -186.30769      7845.7021      8171.6933      7523.2484      648.44489      2752.4868      5693.7755     -8375.088      -63.085626     -1561.7832      6892.2872     -4690.1478     -267.5732       119977.31      49.321133      49.321133      49.321133      0.60999999    -162.14328     -852.03247      455.25268    
    100000   50000          357.42979      187.24062      8533.8601      8206.2365      7478.2554      727.98115      2680.6711      5711.3719     -8305.0048     -62.678676     -1490.1566      6886.987      -4693.2088     -267.5732       119977.31      49.321133      49.321133      49.321133      0.60999999     350.31773      778.06584     -566.66169    
    101000   50500          353.30458     -456.86874      7482.5557      8281.9599      7391.9465      890.01339      2799.7665      5766.2205     -8291.8136     -65.278748     -1516.3834      6883.7343     -4686.232      -267.5732       119977.31      49.321133      49.321133      49.321133      0.60999999    -513.96567     -916.9881       60.347556    
    102000   51000          355.67306     -358.08383      7614.3203      8240.8761      7441.5005      799.37565      2773.864       5705.3138     -8333.0586     -60.53757      -1492.3306      6897.0448     -4690.9202     -267.5732       119977.31      49.321133      49.321133      49.321133      0.60999999    -211.76634      56.037769     -918.52292    
    103000   51500          350.28768     -110.98308      7935.1582      8129.3504      7328.826       800.52444      2719.2264      5786.0148     -8372.3542     -58.815137     -1476.3186      6892.5008     -4689.7297     -267.5732       119977.31      49.321133      49.321133      49.321133      0.60999999    -392.09093     -401.29085      460.43253    
    104000   52000          352.58061     -415.68954      7621.6464      8348.9975      7376.7993      972.19816      2793.647       5834.5379     -8313.9339     -68.474719     -1475.6356      6892.9443     -4690.8868     -267.5732       119977.31      49.321133      49.321133      49.321133      0.60999999     50.333314     -324.82001     -972.58193    
    105000   52500          363.71965     -958.64002      6638.4612      8315.8378      7609.8538      705.98398      2746.0632      5619.2337     -8262.0868     -63.264309     -1534.073       6890.1403     -4690.0291     -267.5732       119977.31      49.321133      49.321133      49.321133      0.60999999    -557.48279     -776.64775     -1541.7895    
    106000   53000          359.76285     -893.84653      6821.5629      8385.5673      7527.0684      858.4989       2784.8886      5675.6699     -8288.1051     -63.851992     -1477.4956      6914.2538     -4686.8606     -267.5732       119977.31      49.321133      49.321133      49.321133      0.60999999    -619.35923     -1760.1784     -302.00199    
    107000   53500          362.48426     -270.25665      7930.9358      8403.8163      7584.0065      819.80984      2814.2467      5685.1937     -8341.2954     -57.09261      -1498.6448      6907.0807     -4689.6785     -267.5732       119977.31      49.321133      49.321133      49.321133      0.60999999     484.48857     -1410.7429      115.48438    
    108000   54000          370.81713      265.87068      9111.2835      8646.0773      7758.3495      887.72784      2810.5657      5645.1422     -8232.834      -62.832967     -1484.6026      6901.2158     -4688.9263     -267.5732       119977.31      49.321133      49.321133      49.321133      0.60999999     1928.447      -64.176977     -1066.658     
    109000   54500          360.85484     -733.09254      7181.9088      8464.6346      7549.9152      914.71937      2841.9252      5695.7179     -8278.456      -63.906376     -1516.483       6914.0999     -4678.1784     -267.5732       119977.31      49.321133      49.321133      49.321133      0.60999999    -179.24138     -868.82358     -1151.2127    
    110000   55000          363.1946      -296.44635      8016.2454      8534.9513      7598.8684      936.08292      2838.3684      5798.7603     -8346.8961     -62.675802     -1537.875       6923.105      -4676.7039     -267.5732       119977.31      49.321133      49.321133      49.321133      0.60999999    -662.37454     -1012.6485      785.68402    
    111000   55500          359.92854     -2158.3165      4819.014       8595.5199      7530.5349      1064.985       2920.5743      5775.1967     -8293.2889     -63.968873     -1497.7139      6907.6421     -4683.4565     -267.5732       119977.31      49.321133      49.321133      49.321133      0.60999999    -1464.5526     -2942.7419     -2067.6552    
    112000   56000          363.95569     -27.071523      8439.2958      8486.6641      7614.7923      871.8718       2754.4555      5679.2164     -8256.6652     -64.061366     -1469.6514      6911.5882     -4683.0104     -267.5732       119977.31      49.321133      49.321133      49.321133      0.60999999     271.26819     -172.39614     -180.08662    
    113000   56500          364.38091     -447.4413       7842.4559      8625.3646      7623.6889      1001.6757      2822.2122      5869.2064     -8320.2076     -63.392107     -1518.296       6900.4432     -4688.2904     -267.5732       119977.31      49.321133      49.321133      49.321133      0.60999999    -769.60466      302.8039      -875.52313    
    114000   57000          363.1943      -691.1046       7234.2441      8443.5016      7598.8623      844.6393       2746.6546      5734.5834     -8260.7536     -61.319147     -1521.9147      6895.5206     -4688.1318     -267.5732       119977.31      49.321133      49.321133      49.321133      0.60999999    -1045.8671     -92.738145     -934.70852    
    115000   57500          363.25809     -841.42497      7136.4479      8608.7279      7600.1969      1008.531       2855.7937      5912.2865     -8359.1025     -64.509901     -1545.7106      6898.2249     -4688.4511     -267.5732       119977.31      49.321133      49.321133      49.321133      0.60999999    -765.85533     -1360.8673     -397.55231    
    116000   58000          364.02289     -94.62442       8323.1572      8488.7259      7616.1983      872.52761      2784.8913      5711.7303     -8267.0665     -61.304989     -1513.4205      6903.2827     -4685.5847     -267.5732       119977.31      49.321133      49.321133      49.321133      0.60999999    -288.32282     -174.65276      179.10232    
    117000   58500          370.85851     -887.00017      7283.7594      8835.7845      7759.215       1076.5694      2855.9081      5759.2557     -8201.7308     -61.631458     -1506.1939      6915.1973     -4684.2355     -267.5732       119977.31      49.321133      49.321133      49.321133      0.60999999     169.60584     -1961.9458     -868.66061    
    118000   59000          360.23022     -1140.6015      6538.6963      8534.4594      7536.8469      997.6125       2791.5289      5835.6157     -8346.9727     -62.878379     -1451.5502      6916.9901     -4685.121      -267.5732       119977.31      49.321133      49.321133      49.321133      0.60999999    -843.6755      -1358.7261     -1219.403     
    119000   59500          363.15589     -20.016441      8580.651       8615.6747      7598.0585      1017.6162      2825.1873      5736.7021     -8267.5646     -64.440481     -1447.1251      6920.4993     -4685.6424     -267.5732       119977.31      49.321133      49.321133      49.321133      0.60999999    -537.12992      176.40043      300.68017    
    120000   60000          370.61798     -680.08969      7366.491       8556.4753      7754.1827      802.29254      2762.1336      5721.4328     -8301.7631     -60.852852     -1548.9552      6911.1        -4680.8026     -267.5732       119977.31      49.321133      49.321133      49.321133      0.60999999    -573.79893     -1162.6627     -303.80748    
    121000   60500          369.4122      -548.73439      7768.9376      8729.0834      7728.9551      1000.1283      2816.2464      5750.8946     -8304.6744     -63.513678     -1434.7727      6917.1998     -4681.2517     -267.5732       119977.31      49.321133      49.321133      49.321133      0.60999999    -1970.21        257.99928      66.00754     
    122000   61000          367.38922     -496.31733      7930.9344      8799.3637      7686.6296      1112.7342      2849.8083      5856.8056     -8346.1685     -63.693641     -1421.5474      6919.8496     -4682.3198     -267.5732       119977.31      49.321133      49.321133      49.321133      0.60999999    -559.50844      29.044225     -958.48778    
    123000   61500          367.41946     -683.66985      7453.9321      8650.1808      7687.2623      962.91844      2843.6829      5729.4024     -8312.5705     -58.380707     -1486.2091      6924.2713     -4677.2778     -267.5732       119977.31      49.321133      49.321133      49.321133      0.60999999    -614.98473     -297.32454     -1138.7003    
    124000   62000          371.89224     -721.31692      7573.243       8835.3644      7780.8431      1054.5213      2867.9101      5821.7354     -8297.966      -61.931049     -1499.7204      6908.617      -4684.1238     -267.5732       119977.31      49.321133      49.321133      49.321133      0.60999999     41.62857      -497.63976     -1707.9396    
    125000   62500          372.47805      566.12144      9863.7699      8873.2012      7793.0997      1080.1014      2797.609       5807.069      -8228.5323     -62.035283     -1446.385       6902.2597     -4689.8837     -267.5732       119977.31      49.321133      49.321133      49.321133      0.60999999     925.77851      934.93766     -162.35184    
    126000   63000          365.76749     -412.0824       7922.1612      8643.2008      7652.6992      990.50159      2826.4135      5768.875      -8248.1188     -62.86659      -1501.8354      6898.8709     -4690.837      -267.5732       119977.31      49.321133      49.321133      49.321133      0.60999999    -1012.4406     -343.7636       119.95699    
    127000   63500          374.02993     -870.20345      7453.8363      8976.4713      7825.5685      1150.9027      2895.8137      5926.5725     -8314.4863     -63.299207     -1496.4668      6893.7305     -4690.9617     -267.5732       119977.31      49.321133      49.321133      49.321133      0.60999999    -779.66046     -1511.5806     -319.36924    
    128000   64000          377.22677      515.90277      9831.4718      8928.7729      7892.4537      1036.3192      2841.3447      5821.1656     -8296.9442     -63.539993     -1479.5606      6900.1407     -4686.2871     -267.5732       119977.31      49.321133      49.321133      49.321133      0.60999999    -393.81152      554.01945      1387.5004    
    129000   64500          372.29893      168.29839      8989.8564      8695.377       7789.352       906.02498      2832.0609      5724.716      -8333.2507     -64.58075      -1476.8841      6906.2046     -4682.241      -267.5732       119977.31      49.321133      49.321133      49.321133      0.60999999     552.65383     -8.2567275     -39.501937    
    130000   65000          375.32886     -350.79487      8498.4197      9112.2217      7852.7451      1259.4766      2940.4054      5859.0674     -8236.6584     -65.611023     -1463.5107      6909.9611     -4684.1773     -267.5732       119977.31      49.321133      49.321133      49.321133      0.60999999    -512.06028     -493.59617     -46.728166    
    131000   65500          370.38885     -955.85749      7179.9834      8852.4913      7749.3887      1103.1026      2887.2516      5866.1743     -8320.1789     -66.483407     -1486.7143      6904.5558     -4681.5025     -267.5732       119977.31      49.321133      49.321133      49.321133      0.60999999    -1283.7182     -591.18257     -992.67168    
    132000   66000          378.65497      122.89724      9363.8547      9148.8158      7922.335       1226.4807      2929.9732      5866.6191     -8240.1359     -67.89022      -1485.6747      6902.9188     -4679.3296     -267.5732       119977.31      49.321133      49.321133      49.321133      0.60999999     43.649395      917.21366     -592.17133    
    133000   66500          371.57597     -249.04335      8520.1608      8955.9234      7774.226       1181.6974      2875.2848      5876.6974     -8242.2969     -64.921348     -1480.4903      6901.9938     -4684.5701     -267.5732       119977.31      49.321133      49.321133      49.321133      0.60999999    -106.73982     -378.20729     -262.18294    
    134000   67000          376.71881     -809.20328      7703.1677      9119.068       7881.8261      1237.2419      2922.1566      5872.8057     -8292.3549     -59.527689     -1408.5203      6895.1425     -4692.46       -267.5732       119977.31      49.321133      49.321133      49.321133      0.60999999    -511.72379     -1190.5798     -725.30629    
    135000   67500          377.4503      -603.59851      8147.6244      9203.7685      7897.1306      1306.6378      3007.1946      5900.2005     -8262.6739     -64.150852     -1488.9909      6901.648      -4686.5896     -267.5732       119977.31      49.321133      49.321133      49.321133      0.60999999    -403.44219     -189.81863     -1217.5347    
    136000   68000          371.10521     -829.02307      7389.3816      8839.9614      7764.3766      1075.5848      2923.675       5766.103      -8233.124      -62.258875     -1515.7138      6887.5475     -4690.6439     -267.5732       119977.31      49.321133      49.321133      49.321133      0.60999999    -193.8247      -910.51889     -1382.7256    
    137000   68500          373.90129     -302.64732      8581.0305      9110.5864      7822.8771      1287.7094      2980.79        5908.1845     -8241.7216     -68.976926     -1510.506       6902.5206     -4682.5812     -267.5732       119977.31      49.321133      49.321133      49.321133      0.60999999    -38.675408     -1450.6769      581.41035    
    138000   69000          374.44694      17.754595      9198.1078      9167.0418      7834.2934      1332.7484      3018.8673      5949.2436     -8316.3686     -65.368363     -1454.0012      6887.5944     -4687.2186     -267.5732       119977.31      49.321133      49.321133      49.321133      0.60999999     182.51675      480.64942     -609.90238    
    139000   69500          379.36558     -72.605441      9153.3334      9280.3745      7937.2027      1343.1718      2973.2833      5868.6034     -8188.312      -66.643813     -1467.1625      6912.2354     -4688.832      -267.5732       119977.31      49.321133      49.321133      49.321133      0.60999999    -1009.4927      943.10761     -151.43123    
    140000   70000          382.03144      123.04431      9357.0384      9141.7421      7992.9786      1148.7634      2874.4434      5838.7208     -8267.3892     -67.173713     -1442.1343      6904.2021     -4691.9057     -267.5732       119977.31      49.321133      49.321133      49.321133      0.60999999     215.97192      384.50262     -231.34161    
    141000   70500          378.49651     -817.57854      7709.6098      9140.1646      7919.0197      1221.1449      2963.3804      5992.7142     -8304.6997     -65.255906     -1559.2957      6885.0085     -4690.7069     -267.5732       119977.31      49.321133      49.321133      49.321133      0.60999999     537.45726     -1078.8675     -1911.3254    
    142000   71000          379.35627     -88.697908      8992.328       9147.5268      7937.0079      1210.5189      2988.2016      5784.946      -8260.3887     -63.376388     -1430.5648      6882.6587     -4690.9575     -267.5732       119977.31      49.321133      49.321133      49.321133      0.60999999    -72.21411      -84.160071     -109.71954    
    143000   71500          384.62845     -486.42876      8460.3376      9311.4644      8047.314       1264.1504      2945.1877      5916.1817     -8229.3273     -64.7161       -1521.3268      6906.8009     -4688.6498     -267.5732       119977.31      49.321133      49.321133      49.321133      0.60999999    -1211.6735      5.2363771     -252.84919    
    144000   72000          382.14652     -445.57923      8589.5263      9369.1768      7995.3863      1373.7905      2974.5661      6026.0198     -8288.8004     -67.629268     -1463.6311      6886.8953     -4693.63       -267.5732       119977.31      49.321133      49.321133      49.321133      0.60999999    -1621.6705      357.38758     -72.454783    
    145000   72500          376.81899     -401.6001       8567.0501      9269.7483      7883.9222      1385.8261      2961.1613      6035.1887     -8266.6093     -66.852601     -1475.66        6892.2761     -4693.6781     -267.5732       119977.31      49.321133      49.321133      49.321133      0.60999999    -119.51729     -249.33751     -835.9455     
    146000   73000          380.70187     -615.32994      8249.471       9326.1422      7965.1609      1360.9813      2982.5516      6068.6663     -8263.5119     -63.150248     -1536.9022      6867.2273     -4693.8995     -267.5732       119977.31      49.321133      49.321133      49.321133      0.60999999    -733.13729     -361.64373     -751.20879    
    147000   73500          379.48851     -909.41915      7712.2701      9303.5227      7939.7747      1363.7479      3003.7609      6012.3536     -8301.2052     -65.652815     -1497.3886      6898.9772     -4687.0972     -267.5732       119977.31      49.321133      49.321133      49.321133      0.60999999     19.166651     -1657.5015     -1089.9226    
    148000   74000          376.41424     -808.05808      7779.7827      9193.6791      7875.4538      1318.2253      2943.841       6018.4249     -8261.6442     -64.020187     -1516.3961      6885.6819     -4687.662      -267.5732       119977.31      49.321133      49.321133      49.321133      0.60999999    -597.91803     -1182.9847     -643.27153    
    149000   74500          382.88862     -250.15741      9111.9647      9549.6766      8010.9127      1538.7639      3052.0062      6020.1797     -8211.702      -68.024811     -1471.3606      6901.052      -4683.3867     -267.5732       119977.31      49.321133      49.321133      49.321133      0.60999999    -1.6867937     -496.49159     -252.29383    
    150000   75000          384.98413     -417.87506      8668.7015      9399.8768      8054.7556      1345.1212      2974.5821      6033.4099     -8304.1375     -66.638616     -1493.8281      6892.0363     -4690.3028     -267.5732       119977.31      49.321133      49.321133      49.321133      0.60999999    -1002.191       533.93209     -785.36625    
    151000   75500          382.08507     -289.38733      8756.3572      9262.7115      7994.1006      1268.6109      2909.6419      5922.1746     -8217.5406     -69.632568     -1489.8599      6903.6079     -4689.7805     -267.5732       119977.31      49.321133      49.321133      49.321133      0.60999999     457.58146     -350.58069     -975.16277    
    152000   76000          387.26703     -726.83886      8210.6935      9482.4769      8102.5192      1379.9577      2992.7018      6068.6684     -8288.9168     -67.601897     -1547.1699      6910.2631     -4687.987      -267.5732       119977.31      49.321133      49.321133      49.321133      0.60999999    -290.54829     -443.28492     -1446.6834    
    153000   76500          384.84787     -776.34876      8067.106       9425.5192      8051.9048      1373.6143      3045.9885      5954.1747     -8303.6904     -63.916381     -1484.8898      6909.3912     -4683.4436     -267.5732       119977.31      49.321133      49.321133      49.321133      0.60999999    -826.81299     -211.28711     -1290.9462    
    154000   77000          394.86989     -1592.7315      7021.4044      9808.2801      8261.5886      1546.6915      3154.2197      5944.9582     -8269.8409     -63.576055     -1444.4401      6910.956      -4685.5854     -267.5732       119977.31      49.321133      49.321133      49.321133      0.60999999    -1250.8024     -1414.0317     -2113.3604    
    155000   77500          385.58942     -610.76347      8486.5269      9555.2079      8067.4198      1487.7881      3048.7559      5962.93       -8242.5679     -64.010398     -1450.3023      6916.4729     -4683.4901     -267.5732       119977.31      49.321133      49.321133      49.321133      0.60999999    -1571.7004      383.65968     -644.24974    
    156000   78000          384.94075     -689.66127      8491.9554      9698.6875      8053.848       1644.8394      3129.7968      6127.4683     -8281.4105     -69.833558     -1490.6524      6911.2986     -4681.8278     -267.5732       119977.31      49.321133      49.321133      49.321133      0.60999999     403.64257     -908.37099     -1564.2554    
    157000   78500          392.98294     -224.86062      9365.7949      9759.2439      8222.1091      1537.1347      3003.1459      6098.589      -8245.6708     -64.172663     -1477.0357      6908.4238     -4686.1448     -267.5732       119977.31      49.321133      49.321133      49.321133      0.60999999     433.67741     -397.3241      -710.93518    
    158000   79000          389.84886     -225.28429      9227.0128      9621.2031      8156.5371      1464.6659      3030.6191      5983.2463     -8225.0926     -65.645747     -1492.4816      6919.1734     -4685.1529     -267.5732       119977.31      49.321133      49.321133      49.321133      0.60999999     269.73053     -189.93735     -755.64603    
    159000   79500          386.43629     -180.49373      9318.8119      9634.6301      8085.1382      1549.4918      2996.8943      6118.4273     -8252.2499     -68.293466     -1455.6526      6896.9842     -4686.618      -267.5732       119977.31      49.321133      49.321133      49.321133      0.60999999    -335.08679     -322.43021      116.03581    
    160000   80000          397.62134     -18.977436      9734.373       9767.5787      8319.1552      1448.4234      3006.9643      6064.9679     -8184.5351     -64.331389     -1579.0501      6893.9694     -4689.5616     -267.5732       119977.31      49.321133      49.321133      49.321133      0.60999999    -169.59349     -117.1153       229.77648    
    161000   80500          392.24458     -1390.0022      7370.4044      9802.5552      8206.6611      1595.8941      3119.1169      6058.9828     -8210.826      -65.154878     -1534.0943      6912.5151     -4684.6455     -267.5732       119977.31      49.321133      49.321133      49.321133      0.60999999    -2028.8326     -1077.1237     -1064.0503    
    162000   81000          385.80826     -1209.4373      7553.9153      9670.1234      8071.9984      1598.125       3079.7318      6165.1076     -8262.3856     -71.425928     -1509.225       6886.0817     -4689.7595     -267.5732       119977.31      49.321133      49.321133      49.321133      0.60999999    -827.59052     -1337.7516     -1462.9697    
    163000   81500          395.09564     -367.01467      9120.9997      9763.1822      8266.3118      1496.8704      2982.2701      6076.3591     -8209.3279     -65.262904     -1480.6914      6883.1532     -4689.6297     -267.5732       119977.31      49.321133      49.321133      49.321133      0.60999999    -1593.0058      714.44698     -222.48524    
    164000   82000          393.99482     -274.95029      9464.9862      9946.0793      8243.2802      1702.7992      3129.7277      6080.2986     -8243.6954     -65.331835     -1401.9815      6894.6647     -4690.8831     -267.5732       119977.31      49.321133      49.321133      49.321133      0.60999999    -513.33125      309.5251      -621.04471    
    165000   82500          391.51131     -377.39678      9094.5166      9754.8651      8191.3194      1563.5457      3114.0905      6043.5098     -8279.2258     -67.647355     -1462.7819      6909.8557     -4694.2552     -267.5732       119977.31      49.321133      49.321133      49.321133      0.60999999    -213.95142      9.5206015     -927.75953    
    166000   83000          399.86483     -1487.0521      7256.5191      9858.4828      8366.0943      1492.3885      3003.7622      6145.9175     -8349.0138     -64.540859     -1451.3626      6896.9449     -4689.3189     -267.5732       119977.31      49.321133      49.321133      49.321133      0.60999999    -447.9755      -1502.0304     -2511.1506    
    167000   83500          390.96783     -851.71464      8308.1385      9798.4229      8179.9485      1618.4744      3110.9414      6001.8567     -8246.9057     -66.530044     -1406.6445      6912.1198     -4686.3633     -267.5732       119977.31      49.321133      49.321133      49.321133      0.60999999    -1425.59       -825.03837     -304.51557    
    168000   84000          393.92732     -269.19829      9200.9161      9671.9447      8241.8677      1430.077       3047.2648      5980.4125     -8284.8482     -67.494046     -1468.7611      6912.9921     -4689.4891     -267.5732       119977.31      49.321133      49.321133      49.321133      0.60999999    -186.36189      69.948342     -691.18133    
    169000   84500          392.68285     -1229.0348      7728.25        9878.7488      8215.8307      1662.9181      3082.2703      6165.498      -8252.5937     -67.84375      -1486.4262      6908.4619     -4686.4484     -267.5732       119977.31      49.321133      49.321133      49.321133      0.60999999    -1545.7757     -1341.2907     -800.03797    
    170000   85000          395.38305     -780.89871      8674.7681      10041.143      8272.3252      1768.8174      3171.9618      6039.4431     -8183.9646     -67.808533     -1406.0558      6903.6588     -4688.4175     -267.5732       119977.31      49.321133      49.321133      49.321133      0.60999999    -995.03988     -1073.0148     -274.64148    
    171000   85500          402.90505     -1408.732       7687.6918      10152.615      8429.7027      1722.9123      3162.7291      6093.1067     -8187.2865     -65.67315      -1483.0756      6895.4545     -4692.3427     -267.5732       119977.31      49.321133      49.321133      49.321133      0.60999999    -1303.061      -1460.6027     -1462.5323    
    172000   86000          394.40076      17.420089      10057.554      10027.073      8251.7732      1775.2996      3149.2614      6115.7621     -8203.7637     -69.476333     -1419.3002      6891.6692     -4688.8528     -267.5732       119977.31      49.321133      49.321133      49.321133      0.60999999     1134.8045     -115.75694     -966.78728    
    173000   86500          397.76129      208.03179      10556.829      10192.826      8322.0834      1870.7429      3195.2099      6232.033      -8187.4227     -69.318727     -1504.0789      6891.5292     -4687.2089     -267.5732       119977.31      49.321133      49.321133      49.321133      0.60999999    -892.68242      1511.9914      4.7863694    
    174000   87000          393.34758     -166.85647      9717.2073      10009.164      8229.7383      1779.4254      3172.3405      6124.8585     -8180.8732     -67.454223     -1465.9139      6887.6679     -4691.2002     -267.5732       119977.31      49.321133      49.321133      49.321133      0.60999999    -339.26574      619.16012     -780.46378    
    175000   87500          400.14889     -295.06215      9620.8812      10137.165      8372.0374      1765.1276      3106.5418      6114.4915     -8250.8779     -65.377625     -1353.3894      6907.2817     -4693.5424     -267.5732       119977.31      49.321133      49.321133      49.321133      0.60999999    -207.53216     -298.56396     -379.09033    
    176000   88000          401.97844     -606.35517      9082.257       10143.225      8410.3158      1732.9087      3155.178       6080.1724     -8222.698      -66.012216     -1446.8546      6920.6713     -4687.5483     -267.5732       119977.31      49.321133      49.321133      49.321133      0.60999999    -762.40527     -886.88962     -169.77064    
    177000   88500          398.90956      144.66555      10146.146      9893.0185      8346.1077      1546.9108      3062.7812      6046.8183     -8185.623      -65.682835     -1538.7643      6914.873      -4687.4915     -267.5732       119977.31      49.321133      49.321133      49.321133      0.60999999     493.90459      227.5651      -287.47303    
    178000   89000          399.6365      -55.334475      10207.024      10303.846      8361.317       1942.5286      3157.3981      6244.9525     -8223.5033     -66.289302     -1401.497       6916.6663     -4685.1987     -267.5732       119977.31      49.321133      49.321133      49.321133      0.60999999    -940.31312      230.84177      543.46792    
    179000   89500          398.74746     -96.819109      9982.463       10151.872      8342.7162      1809.1556      3174.412       6080.7429     -8169.5257     -67.014859     -1432.6021      6909.8367     -4686.6934     -267.5732       119977.31      49.321133      49.321133      49.321133      0.60999999     411.19499     -306.48575     -395.16657    
    180000   90000          404.28534     -685.83487      9126.2947      10326.332      8458.5816      1867.75        3145.441       6143.3606     -8135.3692     -66.056424     -1436.2102      6908.1721     -4691.5878     -267.5732       119977.31      49.321133      49.321133      49.321133      0.60999999    -815.72212      39.02967      -1280.8122    
    181000   90500          397.90663     -360.08901      9470.5071      10100.571      8325.1243      1775.4472      3102.5096      6251.4324     -8168.1699     -73.242728     -1522.7694      6876.7778     -4691.0906     -267.5732       119977.31      49.321133      49.321133      49.321133      0.60999999    -306.68318     -872.13965      98.555787    
    182000   91000          407.17289     -298.78271      9731.2384      10254.032      8518.9957      1735.0366      2999.6568      6198.2937     -8128.6536     -71.198535     -1462.2506      6886.0168     -4686.828      -267.5732       119977.31      49.321133      49.321133      49.321133      0.60999999    -299.81526      9.8180425     -606.35092    
[...]
    455000   227500         552.31834     -604.87174      16268.591      17326.963      11555.773      5771.1901      4312.6488      7764.2956     -7796.7967     -89.166071     -758.4688       6984.6085     -4645.9312     -267.5732       119977.31      49.321133      49.321133      49.321133      0.60999999    -1451.0129     -1052.2764      688.67413    
    456000   228000         547.83558     -392.13341      16785.989      17472.123      11461.983      6010.1393      4384.584       8097.3243     -7828.0407     -95.042001     -842.80341      6959.3534     -4665.2363     -267.5732       119977.31      49.321133      49.321133      49.321133      0.60999999     422.60341     -626.5132      -972.49045    
    457000   228500         560.81662      782.52827      19082.473      17713.247      11733.577      5979.6704      4323.4266      7998.3535     -7837.6726     -97.498573     -723.79678      6976.1055     -4659.2472     -267.5732       119977.31      49.321133      49.321133      49.321133      0.60999999     1192.3846      415.04678      740.15347    
    458000   229000         556.33995     -341.61         16908.97       17506.701      11639.915      5866.7867      4343.4198      8031.5319     -7870.186      -89.399706     -837.04592      6955.7529     -4667.2863     -267.5732       119977.31      49.321133      49.321133      49.321133      0.60999999     713.53634     -1588.5557     -149.81066    
    459000   229500         568.07239     -575.092        16820.049      17826.314      11885.384      5940.9298      4387.3994      7943.1        -7754.2242     -94.98762      -840.95645      6962.4313     -4661.8326     -267.5732       119977.31      49.321133      49.321133      49.321133      0.60999999    -344.41789     -530.86523     -849.99288    
    460000   230000         551.71285     -435.1443       16769.566      17530.958      11543.105      5987.853       4303.266       8186.7305     -7869.8952     -89.253716     -856.39079      6976.5796     -4663.1835     -267.5732       119977.31      49.321133      49.321133      49.321133      0.60999999    -1239.4195      90.223301     -156.23668    
    461000   230500         553.52777     -180.73982      17101.952      17418.201      11581.077      5837.1235      4390.0671      7884.6136     -7852.745      -91.030814     -808.34887      6976.7056     -4662.138      -267.5732       119977.31      49.321133      49.321133      49.321133      0.60999999    -173.56716      20.404226     -389.05651    
    462000   231000         565.80393      57.858785      17889.173      17787.935      11837.923      5950.0124      4323.5269      7950.2471     -7783.0275     -87.177803     -790.43466      6995.8826     -4659.0042     -267.5732       119977.31      49.321133      49.321133      49.321133      0.60999999    -250.31622     -52.20316       476.09574    
    463000   231500         557.36937     -1042.2722      15911.559      17735.27       11661.452      6073.8179      4448.4688      8100.2174     -7825.6988     -92.73844      -860.86468      6970.2602     -4665.8267     -267.5732       119977.31      49.321133      49.321133      49.321133      0.60999999    -526.36297     -857.68375     -1742.7699    
    464000   232000         568.05503     -1107.856       16052.128      17990.595      11885.021      6105.5738      4412.2027      8120.7664     -7771.3371     -94.862325     -885.88417      6980.5492     -4655.8609     -267.5732       119977.31      49.321133      49.321133      49.321133      0.60999999    -1418.3085     -977.97128     -927.28832    
    465000   232500         556.88242     -1534.2631      15040.207      17724.778      11651.264      6073.5135      4491.4002      7947.996      -7701.7385     -90.84287      -895.72238      6975.8073     -4653.3862     -267.5732       119977.31      49.321133      49.321133      49.321133      0.60999999    -2340.4339     -1207.3293     -1055.0259    
    466000   233000         553.11856     -1076.7489      15602.754      17486.791      11572.516      5914.2756      4263.8378      7997.0727     -7668.4437     -93.464692     -893.27694      6970.1711     -4661.6208     -267.5732       119977.31      49.321133      49.321133      49.321133      0.60999999    -2466.4292     -1339.1997      575.38228    
    467000   233500         558.89551     -577.29531      16753.704      17763.824      11693.383      6070.4417      4370.4204      8134.6134     -7815.734      -92.279702     -851.75676      6983.6976     -4658.5192     -267.5732       119977.31      49.321133      49.321133      49.321133      0.60999999    -199.94336     -1238.3943     -293.54829    
    468000   234000         555.5711      -1528.9836      15042.307      17717.64       11623.828      6093.8114      4434.0284      8013.1856     -7776.4059     -89.483583     -797.51381      6970.781      -4660.7804     -267.5732       119977.31      49.321133      49.321133      49.321133      0.60999999    -2365.7897     -1034.051      -1187.1101    
    469000   234500         557.9308      -1075.1405      15916.376      17797.599      11673.199      6124.3999      4373.8478      8203.2969     -7758.3192     -96.701507     -916.84096      6982.9498     -4663.833      -267.5732       119977.31      49.321133      49.321133      49.321133      0.60999999    -280.44331     -1463.6105     -1481.3676    
    470000   235000         565.356       -1131.5722      15896.369      17876.333      11828.551      6047.7817      4414.3174      8089.7959     -7758.831      -92.824742     -916.4515       6975.0653     -4663.2897     -267.5732       119977.31      49.321133      49.321133      49.321133      0.60999999    -1296.5631     -392.83876     -1705.3146    
    471000   235500         566.96017     -548.85523      16908.577      17868.934      11862.114      6006.8201      4416.3401      8039.0845     -7794.3505     -92.338303     -880.09307      6977.5681     -4659.3907     -267.5732       119977.31      49.321133      49.321133      49.321133      0.60999999    -1891.9326      393.52737     -148.16045    
    472000   236000         563.9479      -696.44741      16510.701      17729.307      11799.09       5930.2168      4385.555       7978.6677     -7773.393      -90.53138      -869.82289      6967.5877     -4667.8462     -267.5732       119977.31      49.321133      49.321133      49.321133      0.60999999    -1601.6812     -617.68419      130.02321    
    473000   236500         564.02939     -1233.7543      15607.965      17766.722      11800.795      5965.9265      4445.9516      7867.1492     -7712.3845     -92.073784     -846.94196      6971.758      -4667.532      -267.5732       119977.31      49.321133      49.321133      49.321133      0.60999999     176.46677     -648.52304     -3229.2066    
    474000   237000         561.09156     -423.61981      17242.034      17983.261      11739.329      6243.9322      4561.9866      8065.9617     -7732.6587     -93.515012     -862.07374      6972.3523     -4668.121      -267.5732       119977.31      49.321133      49.321133      49.321133      0.60999999    -552.0094       29.75228      -748.60229    
    475000   237500         562.52208     -27.405482      18051.984      18099.937      11769.259      6330.6779      4507.7439      8116.25       -7738.4269     -95.701383     -786.95627      6987.1681     -4659.3995     -267.5732       119977.31      49.321133      49.321133      49.321133      0.60999999     396.21861     -1029.5391      551.10407    
    476000   238000         564.17592     -460.36316      17222.573      18028.091      11803.861      6224.2302      4471.6867      8094.2578     -7782.9893     -92.936267     -789.05981      6984.0929     -4660.8218     -267.5732       119977.31      49.321133      49.321133      49.321133      0.60999999    -562.43095     -812.80815     -5.8503764    
    477000   238500         572.67953     -85.303631      18324.96       18474.22       11981.776      6492.4433      4409.4817      8523.8753     -7858.5331     -98.171284     -780.81158      6970.378      -4673.7756     -267.5732       119977.31      49.321133      49.321133      49.321133      0.60999999    -118.43415     -539.35504      401.87829    
    478000   239000         564.97239      134.35012      18218.783      17983.704      11820.525      6163.179       4548.0348      8019.5531     -7938.3853     -87.787566     -715.08776      6994.1864     -4657.3346     -267.5732       119977.31      49.321133      49.321133      49.321133      0.60999999     450.69859      569.76245     -617.41067    
    479000   239500         563.65851     -1419.3207      15595.948      18079.399      11793.036      6286.363       4562.0841      8193.9826     -7886.5774     -90.963731     -788.45089      6959.905      -4663.6166     -267.5732       119977.31      49.321133      49.321133      49.321133      0.60999999    -1447.7567     -1621.3143     -1188.891     
    480000   240000         571.19984     -901.22979      16563.166      18140.089      11950.818      6189.2716      4573.6303      7970.0852     -7833.4197     -93.825925     -737.52406      6975.4092     -4665.0834     -267.5732       119977.31      49.321133      49.321133      49.321133      0.60999999    -953.79172     -1453.9866     -295.91103    
    481000   240500         569.05828      563.16852      19262.635      18277.233      11906.011      6371.2217      4564.5487      8084.2061     -7768.9938     -90.993415     -722.64635      6964.9266     -4659.8262     -267.5732       119977.31      49.321133      49.321133      49.321133      0.60999999     585.85742      637.23902      466.40911    
    482000   241000         572.41038      149.73444      18480.879      18218.882      11976.145      6242.7367      4388.8228      8132.4456     -7764.7908     -91.683448     -750.21312      6990.0651     -4661.9094     -267.5732       119977.31      49.321133      49.321133      49.321133      0.60999999     109.84704     -204.30607      543.66235    
    483000   241500         577.9073       1157.9628      20482.689      18456.548      12091.153      6365.3949      4537.0468      8181.3029     -7826.0182     -95.855243     -780.98042      7003.6049     -4653.7059     -267.5732       119977.31      49.321133      49.321133      49.321133      0.60999999     1709.916       1592.996       170.97642    
    484000   242000         570.12588     -146.48858      17838.305      18094.623      11928.348      6166.2746      4393.9595      8006.5431     -7723.283      -90.750812     -745.8169       6983.7565     -4658.1337     -267.5732       119977.31      49.321133      49.321133      49.321133      0.60999999     516.57028     -22.618223     -933.4178     
    485000   242500         566.89211     -592.69969      17096.222      18133.296      11860.69       6272.6055      4458.777       8126.4741     -7788.4473     -89.984275     -787.19557      7006.0609     -4653.0793     -267.5732       119977.31      49.321133      49.321133      49.321133      0.60999999    -619.58609     -431.16709     -727.34588    
    486000   243000         582.30437     -1534.0635      15907.264      18591.485      12183.15       6408.3355      4634.9261      8158.2098     -7766.8131     -93.096399     -845.05165      6980.0255     -4659.8648     -267.5732       119977.31      49.321133      49.321133      49.321133      0.60999999    -1542.622      -1236.4438     -1823.1247    
    487000   243500         581.44319     -644.1746       17360.087      18487.229      12165.132      6322.0971      4538.8158      8199.8009     -7904.1174     -97.043408     -762.43386      6996.1419     -4649.0668     -267.5732       119977.31      49.321133      49.321133      49.321133      0.60999999    -1448.9335      799.21973     -1282.81      
    488000   244000         579.08981      94.064258      18447          18282.412      12115.894      6166.5176      4322.2616      8217.2288     -7790.7103     -96.661541     -837.91724      7003.5742     -4651.258      -267.5732       119977.31      49.321133      49.321133      49.321133      0.60999999    -91.106583      208.28352      165.01584    
    489000   244500         576.6972      -179.12481      18153.171      18466.594      12065.835      6400.7591      4481.0643      8350.4558     -7773.067      -96.258114     -875.07871      6972.3542     -4658.7112     -267.5732       119977.31      49.321133      49.321133      49.321133      0.60999999     504.10085     -1272.1814      230.70607    
    490000   245000         587.92036      122.40966      18860.147      18645.961      12300.65       6345.3115      4572.7853      8332.104      -7893.0212     -95.537616     -901.02315      6987.2376     -4657.2335     -267.5732       119977.31      49.321133      49.321133      49.321133      0.60999999     448.31767      77.600553     -158.68924    
    491000   245500         570.54264     -1556.3706      15526.501      18249.755      11937.068      6312.687       4729.2207      7932.9128     -7704.3923     -89.693102     -906.57644      7000.5062     -4649.2908     -267.5732       119977.31      49.321133      49.321133      49.321133      0.60999999    -1645.1342     -1068.4616     -1955.5161    
    492000   246000         586.91579     -194.09044      18226.037      18565.646      12279.632      6286.0145      4484.2014      8091.0408     -7741.4621     -99.048369     -789.42939      6998.8954     -4658.1832     -267.5732       119977.31      49.321133      49.321133      49.321133      0.60999999    -341.51314     -230.59384     -10.164355    
    493000   246500         568.97863      6.9733443      18468.774      18456.572      11904.345      6552.2272      4631.9337      8335.9675     -7770.3611     -106.27304     -847.80279      6975.2443     -4666.4813     -267.5732       119977.31      49.321133      49.321133      49.321133      0.60999999     186.24277      583.44815     -748.77089    
    494000   247000         571.69505     -931.45697      16945.619      18575.432      11961.179      6614.2533      4686.0405      8316.9946     -7757.5524     -97.315573     -860.18486      6988.2226     -4661.9516     -267.5732       119977.31      49.321133      49.321133      49.321133      0.60999999    -1084.1229     -406.08602     -1304.162     
    495000   247500         575.6206      -924.83717      16787.905      18406.135      12043.31       6362.8248      4520.6069      8228.0431     -7720.43       -93.866795     -879.51148      6970.2606     -4662.2776     -267.5732       119977.31      49.321133      49.321133      49.321133      0.60999999    -967.36015     -909.63498     -897.51639    
    496000   248000         579.85888     -452.04108      17731.336      18522.293      12131.985      6390.3087      4565.4973      8246.1508     -7782.6956     -96.960483     -879.48228      6997.1545     -4659.3555     -267.5732       119977.31      49.321133      49.321133      49.321133      0.60999999     96.431268     -765.86849     -686.68603    
    497000   248500         574.24742     -406.95599      17626.774      18338.843      12014.58       6324.2633      4474.2039      8356.6217     -7730.3384     -96.448816     -1002.2246      6986.7387     -4664.2892     -267.5732       119977.31      49.321133      49.321133      49.321133      0.60999999    -602.70566     -1038.5257      420.36336    
    498000   249000         570.01726      58.895186      18379.719      18276.668      11926.075      6350.5923      4541.5969      8154.9911     -7675.1283     -93.595916     -893.44437      6978.8793     -4662.7065     -267.5732       119977.31      49.321133      49.321133      49.321133      0.60999999     248.72562      765.7892      -837.82926    
    499000   249500         579.77656     -885.87991      17195.781      18745.846      12130.262      6615.5838      4509.9723      8470.1593     -7674.994      -96.552878     -916.2098       6987.6417     -4664.4328     -267.5732       119977.31      49.321133      49.321133      49.321133      0.60999999    -525.99019     -1023.4014     -1108.2482    
    500000   250000         575.85255     -716.19786      17387.782      18640.946      12048.163      6592.7828      4707.3026      8359.6521     -7791.1466     -97.722067     -905.26677      6978.814      -4658.8504     -267.5732       119977.31      49.321133      49.321133      49.321133      0.60999999    -561.71768     -1708.7085      121.83262    
Loop time of 760.021 on 1 procs for 500000 steps with 7020 atoms

Performance: 28.420 ns/day, 0.844 hours/ns, 657.876 timesteps/s, 4.618 Matom-step/s
99.2% CPU use with 1 MPI tasks x 1 OpenMP threads

MPI task timing breakdown:
Section |  min time  |  avg time  |  max time  |%varavg| %total
---------------------------------------------------------------
Pair    | 7.7816     | 7.7816     | 7.7816     |   0.0 |  1.02
Bond    | 128.98     | 128.98     | 128.98     |   0.0 | 16.97
Kspace  | 484.3      | 484.3      | 484.3      |   0.0 | 63.72
Neigh   | 31.303     | 31.303     | 31.303     |   0.0 |  4.12
Comm    | 14.985     | 14.985     | 14.985     |   0.0 |  1.97
Output  | 5.717      | 5.717      | 5.717      |   0.0 |  0.75
Modify  | 70.19      | 70.19      | 70.19      |   0.0 |  9.24
Other   |            | 16.76      |            |       |  2.21

Nlocal:           7020 ave        7020 max        7020 min
Histogram: 1 0 0 0 0 0 0 0 0 0
Nghost:          12447 ave       12447 max       12447 min
Histogram: 1 0 0 0 0 0 0 0 0 0
Neighs:              0 ave           0 max           0 min
Histogram: 1 0 0 0 0 0 0 0 0 0
FullNghs:  3.02417e+06 ave 3.02417e+06 max 3.02417e+06 min
Histogram: 1 0 0 0 0 0 0 0 0 0

Total # of neighbors = 3024168
Ave neighs/atom = 430.79316
Ave special neighs/atom = 5.7008547
Neighbor list builds = 10089
Dangerous builds = 0

# --- Cleanup ---
unfix nvt_fix

undump dump_nvt

# --- Write Output ---
write_dump all custom nvt_softheat_last.dump id type mol x y z xu yu zu vx vy vz modify sort id
write_data /home/alexzhao/PolyJarvis/data/PEG4/lammps/equil/nvt_softheat/nvt_softheat_out.data
System init for write_data ...
PPPM Kokkos initialization ...
  using 12-bit tables for long-range coulomb
  G vector (1/distance) = 0.29292283
  grid = 32 32 32
  stencil order = 5
  estimated absolute RMS force accuracy = 0.00039792135
  estimated relative force accuracy = 1.1983283e-06
  using double precision cuFFT
  3d grid and FFT values/proc = 59319 32768
Generated 10 of 10 mixed pair_coeff terms from sixthpower/sixthpower mixing rule

print "STAGE COMPLETE: NVT T=300.0->580.0K steps=500000"
STAGE COMPLETE: NVT T=300.0->580.0K steps=500000
quit
76      |            |       |  2.21

Nlocal:           7020 ave        7020 max        7020 min
Histogram: 1 0 0 0 0 0 0 0 0 0
Nghost:          12447 ave       12447 max       12447 min
Histogram: 1 0 0 0 0 0 0 0 0 0
Neighs:              0 ave           0 max           0 min
Histogram: 1 0 0 0 0 0 0 0 0 0
FullNghs:  3.02417e+06 ave 3.02417e+06 max 3.02417e+06 min
Histogram: 1 0 0 0 0 0 0 0 0 0

Total # of neighbors = 3024168
Ave neighs/atom = 430.79316
Ave special neighs/atom = 5.7008547
Neighbor list builds = 10089
Dangerous builds = 0
System init for write_data ...
PPPM Kokkos initialization ...
  using 12-bit tables for long-range coulomb
  G vector (1/distance) = 0.29292283
  grid = 32 32 32
  stencil order = 5
  estimated absolute RMS force accuracy = 0.00039792135
  estimated relative force accuracy = 1.1983283e-06
  using double precision cuFFT
  3d grid and FFT values/proc = 59319 32768
Generated 10 of 10 mixed pair_coeff terms from sixthpower/sixthpower mixing rule
STAGE COMPLETE: NVT T=300.0->580.0K steps=500000
