LAMMPS data file via write_data, version 22 Jul 2025, timestep = 2000000, units = real

7520 atoms
6 atom types
7510 bonds
9 bond types
14000 angles
17 angle types
18910 dihedrals
22 dihedral types
8500 impropers
14 improper types

4.779492759473534 46.97150537050275 xlo xhi
4.779492759473534 46.97150537050275 ylo yhi
4.779492759473534 46.97150537050275 zlo zhi

Masses

1 12.01115
2 12.01115
3 12.01115
4 1.00797
5 15.9994
6 15.9994

Pair Coeffs # lj/class2/coul/long/kk

1 0.054 4.01
2 0.054 4.01
3 0.12 3.81
4 0.02 2.995
5 0.267 3.3
6 0.24 3.42

Bond Coeffs # class2/kk

1 1.53 299.67 -501.77 679.81
2 1.53 299.67 -501.77 679.81
3 1.5202 253.707 -423.037 396.9
4 1.101 345 -691.89 844.6
5 1.43 326.727 -608.531 689.033
6 1.5202 253.707 -423.037 396.9
7 1.101 345 -691.89 844.6
8 1.202 851.14 -1918.49 2160.77
9 1.3683 367.148 -794.791 1055.23

Angle Coeffs # class2/kk

1 112.67 39.516 -7.443 -9.5583
2 112.67 39.516 -7.443 -9.5583
3 108.53 51.9747 -9.4851 -10.9985
4 110.77 41.453 -10.604 5.129
5 112.67 39.516 -7.443 -9.5583
6 108.53 51.9747 -9.4851 -10.9985
7 110.77 41.453 -10.604 5.129
8 123.145 55.5431 -17.2123 0.1348
9 100.318 38.8631 -3.8323 -7.9802
10 113.288 61.2868 -28.9786 7.9929
11 110.77 41.453 -10.604 5.129
12 123.145 55.5431 -17.2123 0.1348
13 100.318 38.8631 -3.8323 -7.9802
14 107.734 40.6099 -28.8121 0
15 107.66 39.641 -12.921 -2.4318
16 107.688 65.4801 -10.3498 5.8866
17 120.797 95.3446 -32.2869 6.3778

BondBond Coeffs

1 0 1.53 1.53
2 0 1.53 1.53
3 5.4199 1.53 1.5202
4 3.3872 1.53 1.101
5 0 1.53 1.53
6 5.4199 1.53 1.5202
7 3.3872 1.53 1.101
8 46.0685 1.5202 1.202
9 19.1069 1.5202 1.3683
10 45.4503 1.43 1.3683
11 3.3872 1.53 1.101
12 46.0685 1.5202 1.202
13 19.1069 1.5202 1.3683
14 0.7115 1.5202 1.101
15 5.3316 1.101 1.101
16 5.6454 1.101 1.43
17 121.488 1.202 1.3683

BondAngle Coeffs

1 8.016 8.016 1.53 1.53
2 8.016 8.016 1.53 1.53
3 18.1678 15.8758 1.53 1.5202
4 20.754 11.421 1.53 1.101
5 8.016 8.016 1.53 1.53
6 18.1678 15.8758 1.53 1.5202
7 20.754 11.421 1.53 1.101
8 34.9982 37.1298 1.5202 1.202
9 1.3435 4.6978 1.5202 1.3683
10 41.9116 46.4608 1.43 1.3683
11 20.754 11.421 1.53 1.101
12 34.9982 37.1298 1.5202 1.202
13 1.3435 4.6978 1.5202 1.3683
14 12.4632 9.1765 1.5202 1.101
15 18.103 18.103 1.101 1.101
16 8.6864 57.4975 1.101 1.43
17 76.2614 71.8761 1.202 1.3683

Dihedral Coeffs # class2/kk

1 0 0 0.0514 0 -0.143 0
2 0 0 0.0514 0 -0.143 0
3 0.0972 0 0.0722 0 -0.2581 0
4 0 0 0.0316 0 -0.1681 0
5 0 0 0.0514 0 -0.143 0
6 0.0972 0 0.0722 0 -0.2581 0
7 0 0 0.0316 0 -0.1681 0
8 0.0442 0 0.0292 0 0.0562 0
9 1.8341 0 2.0603 0 -0.0195 0
10 0 0 0.0316 0 -0.1681 0
11 0.0442 0 0.0292 0 0.0562 0
12 1.8341 0 2.0603 0 -0.0195 0
13 -2.5594 0 2.2013 0 0.0325 0
14 -2.5594 0 2.2013 0 0.0325 0
15 0 0 2.2089 0 0 0
16 0.0972 0 0.0722 0 -0.2581 0
17 -0.0228 0 0.028 0 -0.1863 0
18 -0.0228 0 0.028 0 -0.1863 0
19 0 0 0 0 -0.1932 0
20 -0.1432 0 0.0617 0 -0.1083 0
21 -0.1804 0 0.0012 0 0.0371 0
22 -0.6359 0 1.4807 0 -0.0438 0

AngleAngleTorsion Coeffs

1 -22.045 112.67 112.67
2 -22.045 112.67 112.67
3 -0.3801 112.67 108.53
4 -16.164 112.67 110.77
5 -22.045 112.67 112.67
6 -0.3801 112.67 108.53
7 -16.164 112.67 110.77
8 -8.019 108.53 123.145
9 0 108.53 100.318
10 -16.164 112.67 110.77
11 -8.019 108.53 123.145
12 0 108.53 100.318
13 0 100.318 113.288
14 0 113.288 100.318
15 0 113.288 120.797
16 -0.3801 112.67 108.53
17 -5.3624 108.53 110.77
18 -5.3624 108.53 110.77
19 0 113.288 107.688
20 -12.564 110.77 110.77
21 -15.3496 107.734 123.145
22 0 107.734 100.318

EndBondTorsion Coeffs

1 -0.0732 0 0 -0.0732 0 0 1.53 1.53
2 -0.0732 0 0 -0.0732 0 0 1.53 1.53
3 0.0062 -0.0002 0.0036 0.0055 0.006 -0.0009 1.53 1.5202
4 0.2486 0.2422 -0.0925 0.0814 0.0591 0.2219 1.53 1.101
5 -0.0732 0 0 -0.0732 0 0 1.53 1.53
6 0.0062 -0.0002 0.0036 0.0055 0.006 -0.0009 1.53 1.5202
7 0.2486 0.2422 -0.0925 0.0814 0.0591 0.2219 1.53 1.101
8 0.2654 0.0503 0.1046 -0.281 0.0816 -0.1522 1.53 1.202
9 0 0 0 0 0 0 1.53 1.3683
10 0.2486 0.2422 -0.0925 0.0814 0.0591 0.2219 1.53 1.101
11 0.2654 0.0503 0.1046 -0.281 0.0816 -0.1522 1.53 1.202
12 0 0 0 0 0 0 1.53 1.3683
13 0 0 0 0 0 0 1.5202 1.43
14 0 0 0 0 0 0 1.43 1.5202
15 0 0 0 0 0 0 1.43 1.202
16 0.0062 -0.0002 0.0036 0.0055 0.006 -0.0009 1.53 1.5202
17 -0.0204 0.3628 -0.4426 -0.0097 -0.0315 -0.0755 1.5202 1.101
18 -0.0204 0.3628 -0.4426 -0.0097 -0.0315 -0.0755 1.5202 1.101
19 0 0 0 0 0 0 1.3683 1.101
20 0.213 0.312 0.0777 0.213 0.312 0.0777 1.101 1.101
21 1.2143 0.2831 0.3916 -0.2298 0.0354 0.3853 1.101 1.202
22 0 0 0 0 0 0 1.101 1.3683

MiddleBondTorsion Coeffs

1 -17.787 -7.1877 0 1.53
2 -17.787 -7.1877 0 1.53
3 -1.5945 0.2267 -0.6911 1.53
4 -14.879 -3.6581 -0.3138 1.53
5 -17.787 -7.1877 0 1.53
6 -1.5945 0.2267 -0.6911 1.53
7 -14.879 -3.6581 -0.3138 1.53
8 0.3388 -0.1096 0.1219 1.5202
9 -17.328 -5.79 -3.2114 1.5202
10 -14.879 -3.6581 -0.3138 1.53
11 0.3388 -0.1096 0.1219 1.5202
12 -17.328 -5.79 -3.2114 1.5202
13 1.3445 3.5515 -4.9202 1.3683
14 1.3445 3.5515 -4.9202 1.3683
15 4.26 0 0 1.3683
16 -1.5945 0.2267 -0.6911 1.53
17 -3.5039 1.2458 -0.761 1.53
18 -3.5039 1.2458 -0.761 1.53
19 0 0 0 1.43
20 -14.261 -0.5322 -0.4864 1.53
21 0.2359 0.9139 0.9594 1.5202
22 -13.7686 -2.5959 1.1934 1.5202

BondBond13 Coeffs

1 0 1.53 1.53
2 0 1.53 1.53
3 0 1.53 1.5202
4 0 1.53 1.101
5 0 1.53 1.53
6 0 1.53 1.5202
7 0 1.53 1.101
8 0 1.53 1.202
9 0 1.53 1.3683
10 0 1.53 1.101
11 0 1.53 1.202
12 0 1.53 1.3683
13 0 1.5202 1.43
14 0 1.43 1.5202
15 0 1.43 1.202
16 0 1.53 1.5202
17 0 1.5202 1.101
18 0 1.5202 1.101
19 0 1.3683 1.101
20 0 1.101 1.101
21 0 1.101 1.202
22 0 1.101 1.3683

AngleTorsion Coeffs

1 0.3886 -0.3139 0.1389 0.3886 -0.3139 0.1389 112.67 112.67
2 0.3886 -0.3139 0.1389 0.3886 -0.3139 0.1389 112.67 112.67
3 -0.2607 0.3203 -0.2283 0.0515 -0.0674 -0.0474 112.67 108.53
4 -0.2454 0 -0.1136 0.3113 0.4516 -0.1988 112.67 110.77
5 0.3886 -0.3139 0.1389 0.3886 -0.3139 0.1389 112.67 112.67
6 -0.2607 0.3203 -0.2283 0.0515 -0.0674 -0.0474 112.67 108.53
7 -0.2454 0 -0.1136 0.3113 0.4516 -0.1988 112.67 110.77
8 0.0885 -1.3703 -0.5452 0.675 0.5965 0.6725 108.53 123.145
9 0 0 0 0 0 0 108.53 100.318
10 -0.2454 0 -0.1136 0.3113 0.4516 -0.1988 112.67 110.77
11 0.0885 -1.3703 -0.5452 0.675 0.5965 0.6725 108.53 123.145
12 0 0 0 0 0 0 108.53 100.318
13 0 0 0 0 0 0 100.318 113.288
14 0 0 0 0 0 0 113.288 100.318
15 0 0 0 0 0 0 113.288 120.797
16 -0.2607 0.3203 -0.2283 0.0515 -0.0674 -0.0474 112.67 108.53
17 -0.7466 -0.9448 -0.6321 0.0162 1.4211 -1.4092 108.53 110.77
18 -0.7466 -0.9448 -0.6321 0.0162 1.4211 -1.4092 108.53 110.77
19 0 0 0 0 0 0 113.288 107.688
20 -0.8085 0.5569 -0.2466 -0.8085 0.5569 -0.2466 110.77 110.77
21 9.1299 -0.4847 0.3582 -1.4946 0.7308 -0.2083 107.734 123.145
22 0 0 0 0 0 0 107.734 100.318

Improper Coeffs # class2/kk

1 0 0
2 0 0
3 0 0
4 0 0
5 0 0
6 0 0
7 0 0
8 0 0
9 0 0
10 0 0
11 0 0
12 0 0
13 46.9264 0
14 46.9264 0

AngleAngle Coeffs

1 -0.1729 -0.1729 -0.1729 112.67 112.67 112.67
2 0 0 0 112.67 108.53 108.53
3 -1.3199 -1.3199 0.1184 112.67 110.77 110.77
4 -1.3199 -1.3199 0.1184 112.67 110.77 110.77
5 0.2738 -0.4825 0.2738 110.77 110.77 107.66
6 0.2738 -0.4825 0.2738 110.77 110.77 107.66
7 -0.3157 -0.3157 -0.3157 107.66 107.66 107.66
8 0 0 0 107.66 107.688 107.688
9 0 0 0 112.67 108.53 108.53
10 -1.3199 -1.3199 0.1184 112.67 110.77 110.77
11 2.0403 -1.8202 1.0827 108.53 110.77 107.734
12 1.0827 -1.8202 2.0403 110.77 108.53 107.734
13 0 0 0 100.318 123.145 120.797
14 0 0 0 100.318 123.145 120.797

Atoms # full/kk

649 1 1 0 5.06278991198394 6.81631187369501 8.999342968622273 0 1 0
646 1 1 -0.106 5.277571231318759 8.338406326719905 8.969869847676023 0 1 0
647 1 4 0.053 5.6836629018564935 8.63105136261995 9.953775628425436 0 1 0
631 1 1 -0.106 5.7129785252310885 10.663370948972855 8.335208621505807 0 1 0
7480 10 4 0.053 10.030310508688904 6.345988664743714 10.430147210590395 0 0 0
633 1 4 0.053 6.014751557431478 10.73580210609957 9.420969071835922 0 1 0
655 1 5 -0.531 7.23362245923605 6.945389176462287 10.353449657147536 0 1 0
639 1 3 0.702 5.459292343894538 8.962631534945992 6.481463075822951 0 1 0
640 1 5 -0.531 6.158443828601769 8.681658505808109 5.523098285220764 0 1 0
653 1 4 0.053 5.735692714950078 6.393265056455136 6.832737259693254 0 1 0
638 1 4 0.053 7.755737670959654 7.643070153577385 7.828527626469569 0 1 0
3066 5 4 0.053 9.974363583712009 5.544888258747183 6.756660473618091 0 0 0
3068 5 4 0.053 8.089884319275388 5.671824475369914 6.719837565789271 0 0 0
634 1 1 0 6.085048793436397 9.161669854449466 7.875122678085978 0 1 0
637 1 4 0.053 7.953802777728935 8.921019383054192 8.91975859621188 0 1 0
635 1 1 -0.159 7.560926766932376 8.717198964719433 7.94075256882605 0 1 0
636 1 4 0.053 8.24681717133354 9.231393035376172 7.226543308520622 0 1 0
3064 5 6 -0.396 9.061696335994018 5.1468893145821974 4.991446952393229 0 0 0
654 1 3 0.702 6.467507947459668 6.292641438085572 9.707485288676118 0 1 0
7509 10 4 0.053 10.46800478810689 9.656814640512039 8.375129319287302 0 0 0
7516 10 4 0.053 13.24897908916064 8.064985973106364 5.2203025753880015 0 0 0
3065 5 1 0.066 9.05804606457669 5.828008357309342 6.1968270587308565 0 0 0
7515 10 1 0.066 13.75221546723273 8.647227748399999 5.997247570752925 0 0 0
7518 10 4 0.053 14.569553941860667 7.998081897642287 6.285784158107787 0 0 0
7493 10 1 -0.159 14.486877539916406 8.104902460129864 11.208658128733164 0 0 0
282 1 1 0.066 14.414714201806053 5.7095314026610415 46.06572347942464 0 1 -1
7517 10 4 0.053 14.115596631921813 9.606283722718477 5.616276272204624 0 0 0
7514 10 6 -0.396 12.924967691574887 8.81553050862199 7.103835161426329 0 0 0
283 1 4 0.053 13.989316630434827 5.61443048237711 4.878211055586409 0 1 0
7508 10 1 -0.159 11.044975961771216 10.401201029229195 8.870768989742066 0 0 0
7506 10 4 0.053 11.279184296874075 7.786901740056148 9.690349050941725 0 0 0
7513 10 5 -0.531 14.391184837214174 10.245152788343852 7.974599470065172 0 0 0
7492 10 1 0 13.236044974734053 7.438580068518171 10.582291719043464 0 0 0
7496 10 4 0.053 14.999860539116497 8.773010911795673 10.477987513778379 0 0 0
7504 10 1 -0.106 12.10494777594816 8.443255183376134 10.142305006583165 0 0 0
7520 10 4 0.053 13.02878689088138 10.405861989598797 9.990181390414964 0 0 0
7500 10 1 0.066 12.917111558143446 5.168007621578087 7.602276831325526 0 0 0
7501 10 4 0.053 12.732478947390408 5.7770954993594925 6.661134777239326 0 0 0
7507 10 2 -0.053 12.391807431244843 9.77205494119447 9.307111209906504 0 0 0
7512 10 3 0.702 13.31320121221429 9.695764911116397 8.054847950629807 0 0 0
7498 10 5 -0.531 14.914186153079823 6.516600229033591 9.088589543101579 0 0 0
7499 10 6 -0.396 12.781216923508918 6.035895290003894 8.70770057010167 0 0 0
7497 10 3 0.702 13.75997904368735 6.6236554945974015 9.389758513338627 0 0 0
291 1 4 0.053 16.550111448439637 6.703334553682861 6.116374731438563 0 1 0
286 1 1 -0.106 18.571953424965955 5.531708951939168 46.964699952633445 0 1 -1
1455 2 4 0.053 17.641974027232706 10.943567127442408 12.014829017707042 1 0 0
317 1 4 0.053 19.680537703831376 9.920649253618764 46.95891086750925 0 1 -1
293 1 4 0.053 16.865244735685383 5.223749060108528 7.07424716994223 0 1 0
295 1 5 -0.531 20.81757336441352 5.160508548671802 6.996763618617007 0 1 0
303 1 4 0.053 18.488572772985936 8.22434001354472 5.0493561793090525 0 1 0
307 1 4 0.053 18.447110927994625 10.40134816514523 7.859833603991438 0 1 0
302 1 4 0.053 20.138722171647473 7.482941840661985 5.324726832623913 0 1 0
292 1 4 0.053 17.063825849235897 6.91265731561471 7.794484681292392 0 1 0
290 1 1 -0.159 17.20097532711178 6.2811693103951285 6.896288811602593 0 1 0
318 1 4 0.053 21.17563897137578 9.483111077057686 5.417508306197436 0 1 0
294 1 3 0.702 19.655405317125542 5.373770832352397 7.180284850647001 0 1 0
306 1 4 0.053 17.48902029684765 9.813607775287839 6.490869602216782 0 1 0
308 1 4 0.053 17.545567960833473 8.926386221328016 8.065096644088307 0 1 0
316 1 1 -0.106 20.168864150174123 9.99955265052608 5.726199609154065 0 1 0
301 1 1 -0.106 19.195478363956795 7.767634049918291 5.876847914930415 0 1 0
289 1 1 0 18.583859118981724 6.291272754342433 6.185045365484786 0 1 0
310 1 5 -0.531 20.392082913244572 8.790858198495313 9.160802570137832 0 1 0
305 1 1 -0.159 18.176821924808962 9.46667067021453 7.319660570330327 0 1 0
304 1 1 0 19.455472309156956 8.952678051057617 6.782787501928387 0 1 0
309 1 3 0.702 20.45511532713404 8.593341196673112 7.9729883772693 0 1 0
311 1 6 -0.396 21.551073262912787 7.96625508810048 7.420326697388885 0 1 0
6524 9 4 0.053 25.26634642679384 10.209024191324552 10.426952508225776 0 0 0
6523 9 1 0.066 26.206538254952715 10.694243434396451 10.08201485729848 0 0 0
313 1 4 0.053 22.16909412589169 6.580380093192481 8.909679100741787 0 1 0
6533 9 4 0.053 26.2420012957766 5.665003924100354 11.123627573874955 0 0 0
6522 9 6 -0.396 27.19580189718064 9.729451596219214 10.336103428879426 0 0 0
3583 5 1 -0.159 25.99014478964282 7.127645667706146 4.950742457318794 0 0 0
6504 9 4 0.053 28.867095534896805 10.557640186419556 7.682786870568803 0 0 0
315 1 4 0.053 22.990641880225407 8.123870047995577 8.797398918894991 0 1 0
312 1 1 0.066 22.53595802367341 7.301811903506483 8.242577073118344 0 1 0
6531 9 1 -0.159 26.194832575162803 5.317144815380248 9.993332421698607 0 0 0
314 1 4 0.053 23.328480552692664 6.925563400987208 7.506339787547346 0 1 0
6530 9 1 0 27.638270700533756 4.989791383030643 9.504763338158835 0 0 0
3586 5 4 0.053 24.954794493329732 7.055489463280324 5.277970562816461 0 0 0
6537 9 6 -0.396 27.89355064299929 46.652645206860626 7.139990617592327 0 -1 0
3584 5 4 0.053 26.614662449972034 7.278443292131888 5.803712850306264 0 0 0
3589 5 6 -0.396 26.399034221153524 9.953093706985403 5.267234537656357 0 0 0
6520 9 3 0.702 27.277080768009277 8.568335214810421 9.62411704740219 0 0 0
6521 9 5 -0.531 26.39176648461622 8.232743123515773 8.848471761026497 0 0 0
6503 9 4 0.053 28.189446080274895 8.905027301887245 7.236337918895973 0 0 0
6529 9 4 0.053 28.191952290965176 6.4597706121750855 8.089237594236067 0 0 0
6534 9 4 0.053 25.72440514815961 6.127200896983216 9.465236254150492 0 0 0
6527 9 1 -0.106 28.506946779339774 6.259239126944819 9.116463883381575 0 0 0
6515 9 1 0 28.47932432430767 7.641519333696053 9.982059251214276 0 0 0
6501 9 1 -0.159 29.089003956646938 9.558932243125689 7.332590666112592 0 0 0
6502 9 4 0.053 29.524273248426706 9.666596091046488 6.3671058219169225 0 0 0
6497 9 1 -0.106 31.302397440106226 10.149444353322775 8.50700530900679 0 0 0
6509 9 4 0.053 30.62383733193408 5.31300433171595 6.746192287182805 0 0 0
6528 9 4 0.053 29.526251661646125 5.8988842991385 8.96762024434949 0 0 0
6511 9 4 0.053 31.80752055797513 6.0630411412170995 5.698173903342514 0 0 0
6514 9 4 0.053 29.725200094919074 9.353843526410117 10.303974534503917 0 0 0
6547 9 4 0.053 30.714568269792576 5.547043617118461 10.458910580236722 0 0 0
6487 9 4 0.053 33.502773299448215 9.836447461379004 6.638604285342577 0 0 0
6513 9 4 0.053 30.75333999662518 7.983033469868628 10.073296638889598 0 0 0
6508 9 1 0.066 30.73398520082353 5.991578893940163 5.936100373169932 0 0 0
6512 9 1 -0.106 29.778113228816796 8.472329249333143 9.681074797849215 0 0 0
6498 9 4 0.053 32.21526952516656 9.620690101504053 8.839628630664176 0 0 0
6488 9 4 0.053 31.849589586921304 9.510729067262611 5.856799212995181 0 0 0
6507 9 6 -0.396 30.3767098017021 7.27952109506394 6.4623382845030966 0 0 0
6506 9 5 -0.531 32.0732551076739 7.321016798858428 7.953041551628733 0 0 0
6500 9 1 0 30.203474112123374 8.97639934078791 8.24281130242839 0 0 0
6505 9 3 0.702 31.094189137717997 7.80023707592687 7.513221780877431 0 0 0
3680 5 1 0.066 34.67862284844512 5.888646378592209 7.005818688447854 0 0 0
3681 5 4 0.053 33.62096795045004 5.520141760173718 7.066927059037085 0 0 0
3682 5 4 0.053 34.74414586584459 6.797880372847647 6.421370461773971 0 0 0
3683 5 4 0.053 35.09660420602616 6.109522854850578 8.049512077816926 0 0 0
6398 9 4 0.053 40.33876433209514 11.409786090472934 7.617873760325827 0 0 0
6370 9 3 0.702 38.820574175789204 5.545084012104466 8.589672054239868 0 0 0
6386 9 5 -0.531 38.27500743035067 8.655859023110454 9.22397760406087 0 0 0
6388 9 1 0.066 36.97378701679909 9.017778968143189 6.741304572142731 0 0 0
6389 9 4 0.053 36.76447168170637 8.924712662627574 5.70696581693168 0 0 0
3679 5 6 -0.396 35.56748177792464 4.883149853625674 6.365644230955184 0 0 0
6393 9 4 0.053 40.39845467407347 9.256728390671949 10.313849048688246 0 0 0
6380 9 1 0 40.49575502083981 8.44500778896255 8.259979432211102 0 0 0
6367 9 4 0.053 41.019225536398906 5.9431999813294905 5.923038302005109 0 0 0
6372 9 6 -0.396 38.86246318080801 5.034909691932465 9.866660743497956 0 0 0
6390 9 4 0.053 36.65344223814627 9.963500551223476 7.3047182871315215 0 0 0
6365 9 1 0 40.21937522139076 5.672736068907899 8.035435955799493 0 0 0
6387 9 6 -0.396 38.424049550875125 8.895943884433716 6.954542302925396 0 0 0
6366 9 1 -0.159 40.025030002885785 5.6544221205766085 6.433216400557017 0 0 0
6391 9 4 0.053 36.42355312142142 8.135168750003569 7.234132339891708 0 0 0
6371 9 5 -0.531 37.78329987804855 5.859096460170814 8.070456724694658 0 0 0
6369 9 4 0.053 39.36134504690485 6.423490274687618 6.06999579435954 0 0 0
6385 9 3 0.702 38.97118248557032 8.699149495706273 8.272013191671638 0 0 0
648 1 4 0.053 46.41916835116838 8.709970693158334 8.948719506887063 -1 1 0
6392 9 1 -0.106 41.108950763091755 9.36594108687206 9.475518715402158 0 0 0
661 1 1 -0.106 45.91579805830811 6.374507860643331 9.747665854988611 -1 1 0
642 1 1 0.066 45.65513673982886 8.990775209038127 5.1511320745435345 -1 1 0
643 1 4 0.053 44.57426296443734 9.272780030409237 5.3968154150087155 -1 1 0
641 1 6 -0.396 46.27634309626582 9.114609971728404 6.424099111016348 -1 1 0
6394 9 4 0.053 42.05287197605245 8.910957393771536 9.906060804865373 0 0 0
662 1 4 0.053 45.14351094198492 6.790319033260932 9.08664723839357 -1 1 0
6395 9 1 0 41.3886333385342 10.936391589845208 9.454301834886701 0 0 0
652 1 4 0.053 46.132823945091815 6.288849006869738 7.2542307651434825 -1 1 0
6383 9 4 0.053 40.93032857069702 9.910110450043824 6.702478658804319 0 0 0
6378 9 4 0.053 41.89919462258062 6.87166433729497 8.60051018779542 0 0 0
6354 9 4 0.053 42.874211809456085 5.725983457427783 6.739209392087521 0 0 0
6381 9 1 -0.159 41.22207496152886 8.833813654507122 6.955009575026241 0 0 0
6352 9 4 0.053 44.137625705219186 46.94735606143382 7.586121179129137 0 -1 0
632 1 4 0.053 46.77348361216236 10.68669810308975 8.365825055105764 -1 1 0
650 1 1 -0.159 4.998935320861269 5.999412343258197 7.6137577954894216 0 1 0
6384 9 4 0.053 42.35786232820111 8.826176563607893 7.116305480925332 0 0 0
6401 9 5 -0.531 43.99723627693347 10.671315726022966 9.288201577359274 0 0 0
6382 9 4 0.053 40.87736925531891 8.198675666017639 6.089191787478815 0 0 0
6377 9 1 -0.106 40.775297804674956 6.972710096067679 8.66634858130274 0 0 0
6379 9 4 0.053 40.46765369976487 6.998354082135043 9.780133347410652 0 0 0
618 1 4 0.053 5.2438743903713725 12.899380962430167 9.566974669845893 0 1 0
626 1 6 -0.396 7.317732327432216 11.953153495942102 5.3869348168817 0 1 0
625 1 5 -0.531 5.079070345769159 11.79705738937345 5.619848013213174 0 1 0
610 1 5 -0.531 5.879178838962142 14.927728654448586 6.121732830267132 0 1 0
616 1 1 -0.106 5.473560106341076 13.1341505193999 8.489391190296015 0 1 0
613 1 4 0.053 7.916892036924066 15.551221025832795 5.302082783496735 0 1 0
604 1 1 0 5.783718399432613 14.649399807621133 8.630084802841429 0 1 0
615 1 4 0.053 9.385396671768657 15.144520985792147 6.324986805585034 0 1 0
5095 7 4 0.053 8.747273904397508 17.68478561262797 9.610810459862742 0 0 0
605 1 1 -0.159 6.7760236700427585 14.948020149867297 9.785460224609581 0 1 0
609 1 3 0.702 6.403275843719562 15.063560003780507 7.186058328826701 0 1 0
611 1 6 -0.396 7.6652608009815575 15.457747814289101 7.334777201702361 0 1 0
620 1 1 -0.159 7.857593371816255 12.02713743917257 8.001577427063566 0 1 0
619 1 1 0 6.382280801179034 11.97739274268838 7.763509512543942 0 1 0
624 1 3 0.702 6.107551974474883 11.941077843230012 6.1632741003545926 0 1 0
606 1 4 0.053 7.20691181248284 15.997537214187705 9.739654274834214 0 1 0
612 1 1 0.066 8.47997986669291 15.730376992874406 6.20033392385737 0 1 0
608 1 4 0.053 7.690288615644334 14.275743170356787 9.860090983196907 0 1 0
622 1 4 0.053 8.27276088966474 12.940709411863843 7.592712912878059 0 1 0
614 1 4 0.053 8.74863216043114 16.795908630081076 6.362119723327633 0 1 0
621 1 4 0.053 8.004400452860661 12.005117854684777 9.154789537940394 0 1 0
607 1 4 0.053 6.257597172965882 14.786782237281248 10.74151021491287 0 1 0
623 1 4 0.053 8.449214752951118 11.194393150104013 7.578069121894987 0 1 0
7511 10 4 0.053 11.128864790217147 11.252266506723664 8.200510386547524 0 0 0
355 1 5 -0.531 15.48474810787231 15.030803498184309 7.4377780788925145 0 1 0
5142 7 4 0.053 14.421868796540153 14.288996597937086 9.440090715116881 0 0 0
367 1 4 0.053 13.390038618574025 15.978048547660263 6.296931793422266 0 1 0
5140 7 4 0.053 12.671289409464844 14.096510054692152 9.112283002781686 0 0 0
5141 7 4 0.053 13.700564018130894 12.63574840682029 9.171047881411424 0 0 0
377 1 4 0.053 12.345599973478778 13.88203405019272 5.287104979827679 0 1 0
362 1 4 0.053 14.541454942478119 13.682100417609817 5.2103425284277005 0 1 0
5139 7 1 0.066 13.506318636061788 13.61299713740175 9.61400773480509 0 0 0
361 1 1 -0.106 14.884669392814288 14.475687200882408 46.73072136457875 0 1 -1
365 1 1 -0.159 13.295162737177394 16.46030074750405 5.3069410563594746 0 1 0
5110 7 4 0.053 11.512111781203563 16.329028564287874 9.007613919240237 0 0 0
354 1 3 0.702 15.94844073037124 15.707253914829717 6.509064095612352 0 1 0
349 1 1 0 16.204384329201787 15.121820541135923 5.024477564449307 0 1 0
348 1 4 0.053 16.80260600562608 13.283963703679555 6.216036641223731 0 1 0
7510 10 4 0.053 10.477644205339264 10.827369967869995 9.764957395977648 0 0 0
346 1 1 -0.106 17.183166275939044 13.872217951272878 5.316471482518014 0 1 0
340 1 5 -0.531 19.02691018766887 14.041894691889837 7.890876063079037 0 1 0
341 1 6 -0.396 19.484005348430628 15.815410945877707 6.521440704586374 0 1 0
344 1 4 0.053 19.78927645179587 16.889185105032254 8.378488258916384 0 1 0
339 1 3 0.702 19.108690149851547 14.485189106437412 6.787301481117058 0 1 0
343 1 4 0.053 21.206151753718558 15.864604956619772 7.6969349587654765 0 1 0
331 1 1 -0.106 18.97212151258116 12.185301915366434 5.754933206801327 0 1 0
322 1 4 0.053 21.10562742683892 12.827604437074728 7.402787270317718 0 1 0
332 1 4 0.053 18.470096959791668 11.88747674616529 6.712423530813516 0 1 0
320 1 1 -0.159 20.912211568237737 11.743937119847569 7.340791519233152 0 1 0
319 1 1 0 20.40274742717397 11.53776431253231 5.936537015166432 0 1 0
334 1 1 0 18.747074741226665 13.739580368662052 5.4870630498569595 0 1 0
323 1 4 0.053 20.223012464890452 11.49243460607508 8.17362755340016 0 1 0
325 1 5 -0.531 22.523986221772255 12.442536346500766 5.11317850634122 0 1 0
321 1 4 0.053 21.868852322389113 11.331441270198871 7.55048080364813 0 1 0
324 1 3 0.702 21.458518318540193 11.967809976287622 4.885818464975961 0 1 0
342 1 1 0.066 20.35049882043152 16.539255367764788 7.473270333730752 0 1 0
337 1 4 0.053 19.284682608423488 15.194597474868747 46.11791204248173 0 1 -1
335 1 1 -0.159 19.59343349829785 14.240214239764876 46.47844538885973 0 1 -1
338 1 4 0.053 20.651977254224715 14.427162146677931 46.51645688170937 0 1 -1
1510 3 4 0.053 22.486177862068057 14.111566828044294 8.887898959358763 0 0 1
333 1 4 0.053 18.436289995422847 11.592930449795078 4.975192173703755 0 1 0
6495 9 4 0.053 28.559257221630034 13.022080134708515 7.808659883606906 0 0 0
2255 3 4 0.053 26.73124888334952 15.073691522962841 8.612203191016585 0 0 1
1522 3 4 0.053 23.228680886596692 14.908206798109598 6.891021463389374 0 0 1
1511 3 4 0.053 23.49747807629076 12.874106675429577 8.184155314837177 0 0 1
1512 3 4 0.053 23.634625468717086 13.225883020400563 9.956821167027615 0 0 1
1506 3 4 0.053 26.029617350155583 14.302064702182747 9.998633832953328 0 0 1
1507 3 4 0.053 26.13413516042002 13.342945182895154 8.482708958589095 0 0 1
1521 3 4 0.053 24.39222757655 13.751863834407544 6.5484668594974496 0 0 1
1508 3 1 0 24.535236145113334 14.812671244103017 8.444712974594744 0 0 1
1505 3 1 -0.159 25.94975517571715 14.312026594537882 8.897663026089393 0 0 1
1509 3 1 -0.159 23.498858968141807 13.712264112175106 8.933062633603098 0 0 1
1523 3 1 0 24.93490249215261 15.690521564762665 5.7801758989737975 0 0 1
1520 3 1 -0.106 24.364321981507427 14.775386821643087 6.945055101025404 0 0 1
1529 3 5 -0.531 27.37339710515711 15.914185915787877 6.245228560149711 0 0 1
1513 3 3 0.702 24.23820256647518 16.34285716325323 9.075748717639675 0 0 1
3591 5 4 0.053 26.10699348968797 12.001853182952438 4.862542255367828 0 0 0
3593 5 4 0.053 25.077720730994702 11.281338946438474 6.189949470329493 0 0 0
3592 5 4 0.053 26.753948075484672 11.774778972929775 6.395466027739821 0 0 0
3590 5 1 0.066 26.066825778377066 11.364881568312418 5.706699931704352 0 0 0
1528 3 3 0.702 26.52478468004575 15.492047177993875 5.5635083891717985 0 0 1
6526 9 4 0.053 26.168201519090243 10.98020649499404 8.992644697456694 0 0 0
2926 4 5 -0.531 27.903690874866758 16.397280320264695 10.66131215968186 0 0 0
6485 9 1 0 31.93793394165347 11.123573938747542 7.373347521820681 0 0 0
6491 9 5 -0.531 30.39701067261564 12.0880316263306 5.800624894718588 0 0 0
6476 9 5 -0.531 32.66626571449622 15.057036242308289 7.3719833933808285 0 0 0
6482 9 1 -0.106 33.02023516287304 11.885171457078691 8.215542474364117 0 0 0
6483 9 4 0.053 32.57014375300837 12.24427485367481 9.185323353684504 0 0 0
6492 9 6 -0.396 30.523766321622748 12.894030249668464 7.933020948407675 0 0 0
6457 9 4 0.053 34.242189610336496 16.484476566669894 8.88226628453094 0 0 0
2921 4 1 -0.159 31.38319256806785 16.205105046948507 10.195338054451598 0 0 0
6477 9 6 -0.396 33.08091476743752 13.786353595413896 5.578950325232494 0 0 0
6496 9 4 0.053 29.28464458243409 14.263505413073261 8.628657454200878 0 0 0
6470 9 1 0 33.97380829303969 13.009447355515395 7.6839263835037 0 0 0
6475 9 3 0.702 33.13764384122936 14.070597813447758 6.880391745997205 0 0 0
6490 9 3 0.702 30.86571108923702 12.075319019884713 6.894016963823959 0 0 0
6494 9 4 0.053 29.42603607917894 14.297093547963694 6.831698317320355 0 0 0
6493 9 1 0.066 29.37839597634452 13.689322865496807 7.732251656555293 0 0 0
6484 9 4 0.053 33.773013740636415 11.197453025993838 8.54731536829894 0 0 0
2922 4 4 0.053 32.39133433176044 16.214859884359907 10.699402022611846 0 0 0
6489 9 4 0.053 32.78947325298484 10.967291872489707 5.390958706792808 0 0 0
6499 9 4 0.053 30.77773341735012 10.76280106060616 9.254712166054684 0 0 0
2938 4 4 0.053 29.384570168321822 13.585194657401274 10.491293123961128 0 0 0
6469 9 4 0.053 33.83749692847927 14.025192829117385 9.735538129249058 0 0 0
2924 4 4 0.053 31.251044736917436 15.12882805369711 9.988135100325431 0 0 0
6486 9 1 -0.159 32.581388736296816 10.275820053177412 6.210215681139501 0 0 0
6468 9 4 0.053 35.13864858567969 12.8893569933068 9.4790066300135 0 0 0
6474 9 4 0.053 35.803071869178865 11.869403570956678 7.362758958585548 0 0 0
6466 9 4 0.053 39.32729994496387 13.944509435680741 7.022252214935929 0 0 0
6473 9 4 0.053 35.57748644651332 13.316047829849328 6.324502635427445 0 0 0
6465 9 4 0.053 39.47973200916593 15.75620713762866 6.646427807334672 0 0 0
6455 9 1 0 35.65782354873242 14.867039431915485 9.051396709125767 0 0 0
6462 9 6 -0.396 37.754837360818165 15.166155215471193 7.672631502414764 0 0 0
6461 9 5 -0.531 37.405860718948986 13.192681350254187 8.726816150385988 0 0 0
6460 9 3 0.702 37.057712626092695 14.30198395350642 8.506404056416047 0 0 0
6463 9 1 0.066 39.11430437272438 15.03837504107418 7.397709886029023 0 0 0
6464 9 4 0.053 39.680820904340514 15.200119934743618 8.342082672954453 0 0 0
6439 9 4 0.053 38.62594207327834 14.785382115009856 10.263098098712163 0 0 0
6423 9 4 0.053 40.70651821013345 13.719493772660071 10.404518930427084 0 0 0
6397 9 4 0.053 39.2514375809535 11.541713134496181 8.98121411398678 0 0 0
6396 9 1 -0.159 40.31704721474504 11.686592486165795 8.673769298962728 0 0 0
6456 9 1 -0.159 35.16241731559961 16.15766076942144 8.381843722438825 0 0 0
6399 9 4 0.053 40.48179915680786 12.791786410619963 8.590196391565579 0 0 0
6452 9 1 -0.106 35.895238565244334 15.032844469794062 10.670244682180426 0 0 0
6459 9 4 0.053 35.04464343175627 16.116981188351588 7.33461840787873 0 0 0
764 2 1 0.066 38.71740489202146 11.811602379243483 5.011231702978817 0 0 1
767 2 4 0.053 37.86515814244586 12.367262437872848 5.335904494228998 0 0 1
6471 9 1 -0.159 35.04952602787873 12.470765627966031 6.804613349853862 0 0 0
6454 9 4 0.053 35.02643826787431 15.615843152664164 10.939579222378121 0 0 0
6467 9 1 -0.106 34.58676424292214 13.703963757804843 8.953317328532975 0 0 0
6472 9 4 0.053 34.75577371145444 11.814378422413117 6.024543858715862 0 0 0
758 2 4 0.053 41.12342873444864 15.55776506754822 5.06597316412693 0 0 1
765 2 4 0.053 39.19691154690769 11.21247883336991 5.826349697766947 0 0 1
601 1 1 -0.106 46.6380277676545 15.461761260563032 8.814559553185886 -1 1 0
6405 9 4 0.053 44.25866811460014 13.3286859840352 7.54657437101859 0 0 0
603 1 4 0.053 46.0153031347717 15.005581678793208 9.573158016599228 -1 1 0
602 1 4 0.053 46.04772196716781 15.216535493836453 7.927674691405914 -1 1 0
617 1 4 0.053 46.64336729535167 13.175995046801516 8.053190868363142 -1 1 0
6404 9 4 0.053 45.013015643491876 11.69776439938331 7.105621656275454 0 0 0
6406 9 4 0.053 43.922578130007864 12.660467460122021 6.10764831922321 0 0 0
6400 9 3 0.702 42.97727312160308 11.070104335114223 8.785326008286694 0 0 0
6402 9 6 -0.396 42.93511260727775 11.688314865637516 7.590686629477116 0 0 0
6403 9 1 0.066 44.15385118949878 12.308130976799028 7.086067675311887 0 0 0
588 1 4 0.053 44.64490940355457 16.446380896340486 8.18790027424152 -1 1 0
6416 9 5 -0.531 43.23913035303607 13.633004468295027 10.335747918054583 0 0 0
587 1 4 0.053 44.445528359587605 16.70292623222096 9.78059180636968 -1 1 0
589 1 1 0 46.5200468274494 17.020832789845386 9.015480233282153 -1 1 0