LAMMPS data file via write_data, version 22 Jul 2025, timestep = 1500000, units = real

8040 atoms
3 atom types
8020 bonds
4 bond types
8000 angles
3 angle types
7980 dihedrals
4 dihedral types

4.750593753509499 63.427783796494 xlo xhi
4.750593753509499 63.427783796494 ylo yhi
4.750593753509499 63.427783796494 zlo zhi

Masses

1 13.0189
2 14.0268
3 15.0347

Pair Coeffs # lj/cut

1 0.0934 3.71
2 0.09141 3.95
3 0.19475 3.75

Bond Coeffs # harmonic

1 530 1.33
2 260 1.54
3 260 1.54
4 260 1.54

Angle Coeffs # harmonic

1 69.9695 119.7
2 62.1002 114
3 62.1002 114

Dihedral Coeffs # multi/harmonic

1 1.91086 1.85422 0.43627 -2.24348 0
2 1.91086 1.85422 0.43627 -2.24348 0
3 2.00702 -4.01203 0.27102 6.29006 0
4 25.635 0.9936 -25.635 -0.9936 0

Atoms # full

213 1 2 0 12.175009398153215 7.198676084768613 7.924648283792971 1 0 1
6405 16 1 0 7.313716544369369 6.960848941285318 10.134384478936134 1 0 0
6401 16 1 0 8.003814904809111 9.8569774840723 7.404925415025131 1 0 0
214 1 1 0 12.46416735348672 6.85739568907292 9.400264145000516 1 0 1
215 1 1 0 12.46427042221297 7.894438340195018 10.219386565456487 1 0 1
216 1 2 0 12.391195782784651 9.317319690675593 9.589378468738479 1 0 1
217 1 2 0 11.126754141237651 10.040303732562762 10.05209159074279 1 0 1
6377 16 1 0 7.828317649775842 12.794546141237646 13.577794898378075 1 0 0
6378 16 2 0 7.224030584005039 11.755925185834839 12.602693740654004 1 0 0
218 1 1 0 10.74524709525185 11.461784660003005 9.465797986131914 1 0 1
6376 16 1 0 7.785030966406711 14.155986570750233 13.30719637340448 1 0 0
219 1 1 0 10.929669228355202 12.457844051445274 10.320543185837334 1 0 1
6375 16 2 0 7.066944387928531 14.641641331569065 12.051352817828473 1 0 0
220 1 2 0 10.624805887695976 13.944076506868413 9.921249393743908 1 0 1
6402 16 2 0 7.1539617397589765 8.898410847179044 8.25505161215124 1 0 0
6406 16 2 0 7.436748225037961 6.126705623178815 11.395788942990462 1 0 0
6403 16 2 0 7.034389344841541 7.364155130422854 7.733760743401435 1 0 0
6404 16 1 0 6.862482919233477 6.47342241289604 8.983358635476364 1 0 0
6407 16 2 0 8.704384449139676 6.482289508738345 12.301246884646995 1 0 0
212 1 2 0 13.30451050722624 6.738549127529569 7.019921455438567 1 0 1
7582 19 1 0 11.711245552110285 8.575433087424654 14.288909401602846 1 -1 1
7581 19 2 0 12.341326317183633 10.035411346535735 14.498788472235448 1 -1 1
7231 18 2 0 21.97525942843268 33.70336115488597 12.431975298683199 1 -1 0
7580 19 2 0 12.484269720932998 10.900380351285216 13.231568681275716 1 -1 1
1196 3 2 0 33.11628098100322 26.362843122615295 24.04628611370089 0 -1 0
7579 19 1 0 13.044310550450358 12.291841167943645 13.453643332859935 1 -1 1
6129 16 1 0 16.24564806686932 12.231058445921581 8.08948062827888 1 0 0
6130 16 2 0 16.725392997233623 10.858746132988834 8.548923304844642 1 0 0
1505 4 1 0 6.090041086876106 29.91004343209965 29.61244863480573 0 1 1
7578 19 1 0 14.193104714354709 12.682878428529746 12.900661121533544 1 -1 1
7577 19 2 0 14.60278598127738 14.152038154629325 12.915314193583276 1 -1 1
1519 4 2 0 7.238678911811633 33.609865404919546 29.223446516625238 0 1 1
6398 16 2 0 8.162328795280956 13.475303425142837 6.806340855255941 1 0 0
6395 16 2 0 5.738721918615572 15.151716884964616 6.738145176035353 1 0 0
6400 16 1 0 7.404290800384185 10.965432849465998 7.051330855098057 1 0 0
2241 6 1 0 7.764055211588498 26.216352401832992 33.2582089611513 1 1 0
3703 10 2 0 5.924570402133078 33.71689845945882 9.418052145721337 0 0 0
598 2 2 0 17.805681963149027 10.88117095168713 11.812969418347528 -1 1 1
603 2 2 0 22.471381490113046 12.595471722446163 8.532921107123043 -1 1 1
602 2 2 0 20.992171373096234 12.142934713800766 8.536675562462083 -1 1 1
601 2 1 0 20.659315627249963 11.232303151969354 9.744088974928133 -1 1 1
600 2 1 0 19.840693857194324 11.700568291226631 10.684156079614684 -1 1 1
599 2 2 0 19.403102105289555 10.871837180359375 11.829373526650638 -1 1 1
1069 3 2 0 21.857869335350006 13.020115384260398 13.398431199555663 0 0 0
6128 16 1 0 15.03705974052089 12.589076884765955 8.523438766357659 1 0 0
1072 3 2 0 24.336468136173703 11.459811382591093 12.808267670686355 0 0 0
1070 3 1 0 22.47276664211853 12.01034268854908 14.392098094432196 0 0 0
1071 3 1 0 23.576481454751924 11.305909209559996 14.179108096860462 0 0 0
597 2 1 0 17.105541519635374 10.275921606041322 13.143779016134271 -1 1 1
1073 3 2 0 25.034366168681302 10.213886908123897 12.242142887219378 0 0 0
596 2 1 0 16.233410978912527 9.320354844178079 13.092362867735702 -1 1 1
595 2 2 0 15.858420686302384 8.595827995847404 11.735856058977447 -1 1 1
1077 3 2 0 23.05727908916301 7.9284990892650375 9.436910998633925 0 0 0
594 2 2 0 16.471005360489677 7.193087392209966 11.640335807679875 -1 1 1
6132 16 1 0 18.092692604879105 8.92615887255872 7.617578531639963 1 0 0
6131 16 2 0 17.030321338217725 9.915053418866236 7.339641511995644 1 0 0
7837 20 1 0 11.742825914639447 4.9951647765678135 21.47426211043318 0 1 0
1076 3 2 0 24.19627586744763 8.280377105383362 10.300626218192305 0 0 0
605 2 1 0 22.63043087245837 12.519291255454327 6.0929580243313906 -1 1 1
6134 16 2 0 19.488415314477407 10.18562311794134 5.904260879680317 1 0 0
1233 4 1 0 18.98851821676691 33.3387621475089 29.086883690669858 0 0 0
7542 19 1 0 22.33688280967113 8.078663333849384 14.055979416009157 1 -1 1
604 2 1 0 22.693694005483998 13.295787927141202 7.206489655358077 -1 1 1
6133 16 1 0 19.235352460323547 9.052829478893166 6.915074391933867 1 0 0
1068 3 2 0 21.82631757594534 14.51299651869286 13.797903098511437 0 0 0
7576 19 2 0 16.124375294413525 14.25019622227423 13.09199313839715 1 -1 1
1328 4 1 0 18.84809600003488 14.569078806162423 6.960593882054494 0 1 1
1359 4 2 0 15.659221235942052 33.4968819964886 9.340784650234575 0 1 1
2641 7 2 0 9.5585741313426 34.033591975234955 23.427808008859262 0 -1 1
3707 10 2 0 8.396095857114716 33.96795081084686 12.394532675796432 0 0 0
1075 3 1 0 24.82447433452694 9.629387792480912 9.903911660695616 0 0 0
1074 3 1 0 25.265477073501643 10.522799452876745 10.774406991723719 0 0 0
2894 8 2 0 28.132909821885317 8.468332709983931 9.039128918751736 0 1 0
2896 8 1 0 28.74233268644624 9.70304065147953 11.296168378225735 0 1 0
2898 8 2 0 29.472609822531666 8.159914597685324 13.05153154201558 0 1 0
2897 8 1 0 29.246028514900534 9.529163591932653 12.513742548964537 0 1 0
2899 8 2 0 28.666031639198195 7.86237014423101 14.31092285178577 0 1 0
2895 8 2 0 28.400055059530892 8.456003443624827 10.588161792495528 0 1 0
2900 8 1 0 29.1974085423642 6.4584706228417375 14.792097701459229 0 1 0
6508 17 2 0 29.85619834166908 13.818868417277042 8.978955489040313 0 1 0
6503 17 1 0 32.69500213354242 11.120104446063262 12.159217179533611 0 1 0
2893 8 1 0 28.125706141144633 7.099998300315936 8.300796706492427 0 1 0
2891 8 2 0 30.57433363218856 7.541598625163157 7.6297981919736895 0 1 0
2892 8 1 0 29.241584795442577 6.676361952355744 7.711936424336205 0 1 0
6504 17 2 0 31.62685711003049 12.19989007699341 11.956257740433607 0 1 0
6505 17 2 0 31.9505872962276 13.164768355892628 10.78594690425189 0 1 0
6509 17 2 0 28.505351203797574 13.264594364302509 9.325527452708702 0 1 0
917 3 2 0 33.452807596930754 13.444574715466475 7.035679646934 0 0 0
6521 17 2 0 25.55480078940497 10.132708635684427 6.010625769499991 0 1 0
6878 18 2 0 28.309097864065887 5.015866839228835 26.602552868802395 1 0 0
2890 8 2 0 31.688772953186863 7.3393667989688165 8.684245191806445 0 1 0
2901 8 1 0 30.093135167366054 6.309039107091242 15.738923347102409 0 1 0
918 3 1 0 32.956558502792255 12.247114294596551 6.178939356082328 0 0 0
555 2 2 0 27.815356736880574 12.570940623319437 15.284891648324125 -1 1 1
556 2 1 0 28.966218932783054 11.566532822970085 15.199792365407928 -1 1 1
2889 8 1 0 32.590003636726514 8.499447252866204 8.946229324214897 0 1 0
6523 17 1 0 24.271990597039476 8.0581445401094 5.826689393009282 0 1 0
7631 19 1 0 5.426764155947646 11.650159691413728 22.27086485942905 1 -1 1
919 3 1 0 31.74267826853537 11.748987032156382 6.3991869397736005 0 0 0
221 1 2 0 10.468164869074425 14.999608279533618 11.036699310241357 1 0 1
899 3 1 0 32.713802500128324 17.02983217315262 20.627767401651116 0 0 0
6087 16 2 0 5.22178029125621 18.54907713613102 28.152940650725835 1 0 0
222 1 1 0 9.869057897674315 16.43521748447939 10.492986671331153 1 0 1
6116 16 1 0 11.649105784904151 22.21481931960114 8.603298310400552 1 0 0
6117 16 1 0 12.085443904659874 23.00757960361298 9.549619430417609 1 0 0
6118 16 2 0 13.18777742369913 22.40557693879017 10.379056967903328 1 0 0
223 1 1 0 9.28851684225889 16.40809400286728 9.334424909173611 1 0 1
2679 7 1 0 8.99318702920624 19.91442880453908 12.112398165687345 0 -1 1
2678 7 1 0 7.711965572649139 19.774287456273072 12.30940528138828 0 -1 1
2681 7 2 0 10.81751294535097 19.30574029207873 13.986477261684591 0 -1 1
224 1 2 0 8.757071894950972 17.7254525322777 8.727562128976494 1 0 1
6119 16 2 0 12.841376255072051 20.935988533129937 10.619294303080682 1 0 0
2682 7 1 0 11.853719743174931 18.30101162863481 14.433107164785424 0 -1 1
2680 7 2 0 9.937231023391522 18.867866973130212 12.777818609556807 0 -1 1
2677 7 2 0 7.142653502245367 18.71065859053561 13.321923849275011 0 -1 1
6123 16 2 0 14.199746112587759 18.881799543072788 8.222939885558732 1 0 0
1522 4 2 0 10.275934761115138 33.93650911668318 28.484476232982967 0 1 1
2683 7 1 0 13.142956144905094 18.478667615294583 14.281142182130287 0 -1 1
6122 16 2 0 14.97908726040238 19.93705498196459 9.016757449713939 1 0 0
6125 16 1 0 14.24748123357838 16.406415106108483 8.879748776201343 1 0 0
6124 16 1 0 14.878726198354924 17.45345797375401 8.384061561396292 1 0 0
6120 16 1 0 13.916717056626855 20.12542779081865 11.276808532071161 1 0 0
6126 16 2 0 14.912741137073885 15.058109818176444 9.08119891985184 1 0 0
6115 16 2 0 10.553647224767097 22.849958610435387 7.678464928234734 1 0 0
6114 16 2 0 9.417600856099309 23.581930796907766 8.485467428677797 1 0 0
1383 4 2 0 10.269291024140859 23.366230626505107 13.427293044632089 0 1 1
1382 4 2 0 11.27885669216208 24.14314806266094 12.542220311409233 0 1 1
7249 19 2 0 25.91154815979549 4.753875125082629 31.485118181437816 0 0 0
1384 4 1 0 10.882365200522557 22.923767451664258 14.838096397792778 0 1 1
2676 7 2 0 6.538316619446352 19.480892473524975 14.447852657847474 0 -1 1
2684 7 2 0 14.080802798146642 17.43826839946813 14.847995703929083 0 -1 1
227 1 1 0 7.220316339346271 19.099697858628847 5.978048418795286 1 0 1
6090 16 2 0 5.725768551845776 20.211700996325277 26.2106176377469 1 0 0
225 1 2 0 8.898461492897589 17.788567740657214 7.23374010017477 1 0 1
6963 18 2 0 29.53661373170079 33.62297108606076 19.359292641054783 1 -1 0
6127 16 2 0 14.393789920188807 13.921607970828342 8.152326012868393 1 0 0
6121 16 1 0 14.93094583206958 19.619797453827662 10.51644307677228 1 0 0
7189 18 1 0 16.63131973035062 18.527681243874525 4.983905987942514 1 -1 0
1067 3 1 0 21.714225492696595 15.50060781484536 12.591131823470732 0 0 0
7574 19 1 0 17.769322705652893 16.015928337411708 13.651811843063133 1 -1 1
1332 4 1 0 18.306401670135408 18.647628478052262 9.790988084594247 0 1 1
1330 4 2 0 19.145810676021522 16.816031616654264 8.101658572260789 0 1 1
1331 4 2 0 18.644875936796787 17.20285540122231 9.549713564468256 0 1 1
1329 4 1 0 19.246783081284473 15.235682173720594 7.972901872084877 0 1 1
1334 4 2 0 18.687508245533735 20.986099786126147 10.66096537375518 0 1 1
1333 4 1 0 19.114133711833126 19.492835968060653 10.45100290301311 0 1 1
7575 19 1 0 16.86609206690666 15.584592889769002 12.77252728124908 1 -1 1
1335 4 2 0 19.10547891813713 22.003471439651758 9.615597364363122 0 1 1
1336 4 1 0 18.598322909346855 21.62025872416573 8.177760868030859 0 1 1
7170 18 2 0 22.759564320474237 20.12045099154316 11.446593386051283 1 -1 0
7174 18 2 0 22.59887640691873 22.092434375775454 6.873528954479502 1 -1 0
7172 18 1 0 22.80878919700217 20.627561324564432 8.833234885661586 1 -1 0
7173 18 1 0 23.396289849172145 21.4903121186966 8.033169526351246 1 -1 0
1327 4 2 0 18.469803237114746 15.105921095472501 5.606076064102851 0 1 1
7175 18 2 0 23.412298427192052 22.383133171839688 5.668138708740205 1 -1 0
1337 4 1 0 17.46175348415571 22.13140700217509 7.727507028167295 0 1 1
7169 18 1 0 23.728395622192476 19.975013947931984 12.673849766855174 1 -1 0
7171 18 2 0 23.601638999261127 20.22531373327383 10.127898222755988 1 -1 0
1066 3 1 0 22.63716799152311 16.405277422549943 12.333639391717934 0 0 0
1338 4 2 0 16.72080585723704 23.071354842773438 8.674553529042777 0 1 1
7168 18 1 0 23.517414159045835 20.970597986615985 13.570774012963465 1 -1 0
6512 17 2 0 25.158877498660566 15.274031289254433 8.956434746608682 0 1 0
1065 3 2 0 23.810222165315004 16.563847559485644 13.276639574395219 0 0 0
2650 7 1 0 5.716862896840254 26.192218871624785 24.271451237352636 0 -1 1
6041 16 1 0 10.296303003902235 5.097974169818091 30.291387535690166 1 0 0
7573 19 2 0 18.407483282056226 17.387519336314256 13.315893751103385 1 -1 1
7571 19 1 0 19.349309912661237 19.61283013817522 14.083071758837782 1 -1 1
1370 4 2 0 19.646053475191366 23.407459969676 15.757653806328719 0 1 1
6074 16 2 0 7.482037333013018 18.561922082977972 33.78348628937948 1 0 0
2902 8 2 0 30.514774190344568 4.877352559142525 16.09632893512564 0 1 0
70 1 1 0 32.94516608261489 19.58523722889351 14.135072165445518 0 0 1
6511 17 1 0 26.235293345771325 14.225100818238177 8.835267127575497 0 1 0
6506 17 1 0 31.113400128118283 14.463358542779554 10.932656963377568 0 1 0
6510 17 1 0 27.395996299379092 14.28751175478177 9.451380130070406 0 1 0
6513 17 2 0 24.98921541558953 16.021064754020365 7.589758046135469 0 1 0
29 1 2 0 33.39968144445726 29.804792565077854 13.01488414015725 0 0 1
7205 18 1 0 33.00526045853611 23.901487511474304 6.204466475141001 1 -1 0
1064 3 2 0 25.083495230702958 16.13271543959585 12.633193031913947 0 0 0
6507 17 1 0 30.165602420764884 14.84344209365394 10.062320652059782 0 1 0
73 1 2 0 31.763789552653723 17.935664961578077 11.505018490591358 0 0 1
76 1 2 0 31.341953147603 18.617015824349064 7.763098384053485 0 0 1
1062 3 1 0 27.40883178301921 16.86617062188982 12.936992647302498 0 0 0
1060 3 2 0 27.200358675150678 18.63941514887525 11.07175540771803 0 0 0
1059 3 1 0 27.175203900974548 19.068850368460875 9.684742684475117 0 0 0
1058 3 1 0 27.75809009324239 20.208922727940553 9.410395699080794 0 0 0
1057 3 2 0 27.846095489388237 20.847586837161604 8.06096507646774 0 0 0
1056 3 2 0 27.11062915488597 22.214018821169986 8.158534835684655 0 0 0
1061 3 2 0 27.37100742922659 17.17978003115084 11.441416600544894 0 0 0
7208 18 1 0 31.7446969262764 22.407010854679882 9.5826683173137 1 -1 0
7207 18 2 0 32.601137759521436 22.49799202896104 8.30874568620906 1 -1 0
7210 18 2 0 31.304414763576034 23.398700711376012 11.859030806789772 1 -1 0
7209 18 1 0 32.08702498870518 23.29184053333635 10.502811169863191 1 -1 0
77 1 2 0 30.274366905574112 17.863604341705184 7.012294432336908 0 0 1
7206 18 2 0 32.150562197134036 23.74149437689813 7.376758976743116 1 -1 0
1055 3 1 0 27.437313725271544 23.11627064056108 7.053336889320766 0 0 0
7211 18 2 0 30.085966750499278 22.401595811199073 11.795937886634986 1 -1 0
7212 18 1 0 29.28536104204893 22.110377398870067 13.136736429950025 1 -1 0
7213 18 1 0 27.985126216126492 22.286432327889028 13.327430765901633 1 -1 0
6514 17 1 0 26.26270361036116 16.897751122592776 7.317204784076405 0 1 0
75 1 1 0 31.668714483170685 17.87930429754103 9.046120105109205 0 0 1
74 1 1 0 31.350030149015407 18.581348584042082 10.17892482598224 0 0 1
6515 17 1 0 27.031449066962104 16.658461532212954 6.202072393505419 0 1 0
1063 3 1 0 26.327151174104763 16.311414620896773 13.491316219540527 0 0 0
1523 4 2 0 11.260211041142242 32.81298657905657 28.839575681031747 0 1 1
1054 3 1 0 28.042703378966184 24.2628346825551 7.16584349322706 0 0 0
7216 18 1 0 25.317653726223774 24.395295642280075 11.282847868407353 1 -1 0
7215 18 2 0 25.92675351848044 23.658156148894022 12.470311171847639 1 -1 0
7214 18 2 0 27.14665537294747 22.790798542934773 12.162647939977466 1 -1 0
6863 18 2 0 21.49873242501059 14.865625208319171 33.29809746952651 1 0 0
6373 16 1 0 4.861053035070486 15.855907954511135 11.14790302029655 1 0 0
71 1 1 0 33.339380594167125 18.50835184826146 13.531917280004444 0 0 1
72 1 2 0 33.140980437225835 18.50973661306856 11.974769908773549 0 0 1
1198 3 1 0 34.05640015811575 27.853519102505082 25.767097136590984 0 -1 0
2616 7 2 0 12.589688778267316 33.83271166161455 13.19038727171672 0 -1 1
2243 6 2 0 5.113057351996858 26.378636261239922 33.522898055128856 1 1 0
1506 4 2 0 4.780353949117383 30.578891444212736 29.91378672288697 0 1 1
3708 10 1 0 8.448177006614623 33.00679478549168 13.600481775563198 0 0 0
6113 16 1 0 8.580589064109644 24.655542644432458 7.760616231731716 1 0 0
6112 16 1 0 7.929611536645423 25.65772498577548 8.356096940988994 1 0 0
6107 16 2 0 7.599523730825085 29.005193432030236 13.675438435885914 1 0 0
2612 7 2 0 11.379918632695869 30.57871064595711 10.755258013683775 0 -1 1
6108 16 1 0 7.695258753741724 28.702912190100758 12.18235136535711 1 0 0
6109 16 1 0 8.39831361166133 27.6447396446431 11.771190467202295 1 0 0
6110 16 2 0 8.492180484310762 27.206215962286304 10.298752193675725 1 0 0
6111 16 2 0 8.052402094463195 25.772528104906105 9.845133154359857 1 0 0
2611 7 1 0 11.705072574704978 29.137480665367722 10.824959441099903 0 -1 1
2610 7 1 0 12.077522069285486 28.6455349730368 9.661887158009527 0 -1 1
2609 7 2 0 12.052929828535909 29.47098525972864 8.291690925752608 0 -1 1
2614 7 1 0 11.503743711095225 31.589812378513944 13.206247157266027 0 -1 1
2613 7 2 0 12.02550499163183 31.49331473080063 11.81014170863817 0 -1 1
2608 7 2 0 13.400189419681917 30.00361803925008 7.854072398413118 0 -1 1
1381 4 1 0 11.783383270488324 25.343136033231595 13.343755783315917 0 1 1
1343 4 2 0 13.282814878256048 25.999615404147264 6.316165755841135 0 1 1
2607 7 1 0 13.356009743544053 30.99619348166328 6.694374652229694 0 -1 1
1348 4 1 0 8.621605887365881 28.4754748482868 5.4429517301560235 0 1 1
1350 4 2 0 9.018363345049213 30.81122282709016 6.06618151990295 0 1 1
6106 16 2 0 8.575217089520628 28.22172385387568 14.672976684881752 1 0 0
1349 4 1 0 8.165803878788074 29.549618217310453 6.137073459995674 0 1 1
3709 10 1 0 7.713179348222288 33.318512391259134 14.66983877591275 0 0 0
2615 7 1 0 11.665035601149684 32.72056768706277 13.834846401466283 0 -1 1
7204 18 1 0 32.5336289599061 23.64308029221639 4.983715198916632 1 -1 0
1346 4 2 0 10.966377910697144 27.41976645945335 5.405250314481551 0 1 1
1380 4 1 0 12.954952472330419 25.95818264597071 13.072320675261496 0 1 1
1379 4 2 0 13.38880087901003 27.115031655021195 13.976148389100048 0 1 1
399 1 1 0 12.462782294311289 12.140245624930783 5.284587130607753 1 0 1
7630 19 1 0 4.8757625097578625 10.768774077601133 23.02632767145935 1 -1 1
6379 16 2 0 5.786308220083104 11.403210391642341 13.005699923559243 1 0 0
5798 15 1 0 32.29251708810181 33.66875947520066 28.066874682118726 0 0 1
5208 13 2 0 5.011715071469101 30.80339944509784 17.882874547949818 1 0 0
1353 4 1 0 10.459981917355147 33.1677789816613 6.283470474106485 0 1 1
1183 3 1 0 28.71123640452139 33.09009888202765 16.103668090527382 0 -1 0
1341 4 1 0 14.756905064886954 26.151898531270696 8.337938979261843 0 1 1
1342 4 2 0 14.699117859984947 26.232078478348306 6.804319300725487 0 1 1
1340 4 1 0 15.541834488315724 25.257452347375594 8.902473355985181 0 1 1
1369 4 1 0 18.959278247266028 23.851095072631747 14.457269131437988 0 1 1
7228 18 1 0 20.140225037164477 33.676200877183504 9.183642677693568 1 -1 0
1339 4 2 0 16.254149261252543 24.3243137302162 7.9469535283448245 0 1 1
7227 18 2 0 19.589224632790007 32.53769413807218 8.413446380336687 1 -1 0
1366 4 2 0 17.722271123368305 25.618043237156304 12.571234142287778 0 1 1
1368 4 1 0 19.7769813159197 24.627510067593942 13.730512116745894 0 1 1
1364 4 1 0 16.730552157204244 27.767875052699132 11.925731346801221 0 1 1
1367 4 2 0 19.216557829132853 25.327339269304105 12.485041796983085 0 1 1
1365 4 1 0 17.297959836367816 26.60374713674283 11.505607287992657 0 1 1
7225 18 1 0 19.943728652078953 30.296441184063244 7.18648862968025 1 -1 0
7224 18 1 0 20.124605552988122 29.11561627665494 7.688187569917439 1 -1 0
7223 18 2 0 19.315898961813964 27.886694478383685 7.163943629515478 1 -1 0
7222 18 2 0 20.163534117844417 26.696240058984586 6.9771147913373355 1 -1 0
7221 18 1 0 20.829317668782412 26.23478276065782 8.279610701127385 1 -1 0
7220 18 1 0 22.022759506664844 25.694451877055712 8.187015319398368 1 -1 0
7219 18 2 0 22.538502842198668 25.102978667565612 9.490942617094142 1 -1 0
1554 4 2 0 23.70732498998785 30.440291542939352 12.055318194686423 0 1 1
1553 4 1 0 22.39710385483427 29.80876877528178 11.623879304274269 0 1 1
7226 18 2 0 20.611178374707578 31.5059354062685 7.896403376361164 1 -1 0
1363 4 2 0 16.283801586232318 28.76159203889483 10.868264492483311 0 1 1
1362 4 2 0 16.810491983279867 30.19661829209308 11.17940590899752 0 1 1
1552 4 1 0 21.369984770860547 29.662652126045845 12.497235211540175 0 1 1
1361 4 1 0 16.39074481368361 31.171365151340513 10.030489196116848 0 1 1
7218 18 2 0 23.63082010995387 25.880298678418537 10.160487287578782 1 -1 0
1551 4 2 0 21.625883170867624 30.007931189920363 13.914333544854122 0 1 1
2605 7 2 0 15.107615455843336 29.699793954729728 5.645495122217335 0 -1 1
7217 18 1 0 24.19221384701458 25.200911504023445 11.361509304459844 1 -1 0
7229 18 1 0 20.3848175985158 33.38140701178136 10.451185521794029 1 -1 0
2620 7 2 0 16.384115550723017 33.66800163031215 15.1616970410172 0 -1 1
6502 17 1 0 33.94632328427072 11.608397043270976 12.111343105919577 0 1 0
228 1 2 0 6.624700358426912 20.514984971030792 5.732966421278289 1 0 1
401 1 3 0 33.920767173814134 26.851274030140853 10.095014493706813 0 0 1
1021 3 2 0 25.49679632037829 27.46050144046721 6.15776006198103 0 0 0
1555 4 2 0 25.046936511150772 29.5771593000452 11.792240115141285 0 1 1
1018 3 1 0 24.03128943604369 29.833477830319552 8.460236075944456 0 0 0
1019 3 1 0 23.945280660353973 28.895417928199027 7.513028938653212 0 0 0
1016 3 2 0 24.471632673247885 32.20118278960714 8.348077923462231 0 0 0
1020 3 2 0 24.888659667423187 28.83520876617199 6.242147063029504 0 0 0
1 1 2 0 33.165768821853774 27.91929123098754 9.31173450638234 0 0 1
1017 3 2 0 25.18515312741374 30.891474729078663 8.531072379898943 0 0 0
3 1 1 0 31.60090501032515 27.611995379970175 7.443496992239259 0 0 1
1053 3 2 0 28.514697702184147 24.87497822843328 8.449410019627186 0 0 0
4 1 2 0 31.21120245876187 27.27901314037164 5.935716285920085 0 0 1
1556 4 1 0 26.474737937201155 30.10004250142589 12.070077481307333 0 1 1
1557 4 1 0 26.7216933314547 31.43352921577759 12.37997941874655 0 1 1
1052 3 2 0 27.984461754765245 26.271462232461065 8.666950507868677 0 0 0
1051 3 1 0 28.66254124455226 26.827424445831145 9.834771381800845 0 0 0
1558 4 2 0 28.13569226635861 31.916117016996463 12.58414268908476 0 1 1
1050 3 1 0 28.725686579128794 28.11296180110342 10.056155398864155 0 0 0
1049 3 2 0 28.173836766860003 29.086665006901377 9.049898699763396 0 0 0
1048 3 2 0 29.17981635245292 30.070810084240275 8.654608451489562 0 0 0
1047 3 1 0 28.796689491317952 30.947710574172707 7.452521310201126 0 0 0
1046 3 1 0 29.047570319648095 32.245677950831656 7.459466013452358 0 0 0
1559 4 2 0 28.584732573092253 32.64369449564618 11.360906206046575 0 1 1
31 1 1 0 31.21345094604291 28.7197568477429 13.196821697626344 0 0 1
32 1 2 0 30.35209181922654 27.525589480293842 12.909324706525434 0 0 1
30 1 1 0 32.501261042333084 28.573961085317006 12.844244194363473 0 0 1
28 1 2 0 32.77955956044005 31.178407276395227 12.725705010233222 0 0 1
2 1 1 0 32.85139501912604 27.493907804290703 7.889270597980417 0 0 1
1045 3 2 0 28.577392322458078 33.09230752854096 6.243288719471316 0 0 0
27 1 1 0 33.75264561280378 32.19963969734032 13.24794316838306 0 0 1
33 1 2 0 29.545274632667624 26.897100224241104 14.152839814126045 0 0 1
1078 3 1 0 22.314630231776395 6.630704458065405 9.89745234421409 0 0 0
6520 17 2 0 27.039281443897003 10.506458461424621 5.736730899652009 0 1 0
1015 3 1 0 25.535539440177303 33.31819322578512 8.245787382856557 0 0 0
6519 17 1 0 27.44349568254022 11.994514415317603 6.027095654929929 0 1 0
6397 16 1 0 7.990357932920558 14.536624963779492 5.745633608191334 1 0 0
7583 19 1 0 12.145892957452789 7.55731396248944 14.974616086529482 1 -1 1
7584 19 2 0 13.470958935255831 7.769970983906847 15.846969174336813 1 -1 1
7151 18 2 0 30.07089422776768 24.69655146772108 25.863422433601826 1 -1 0
7141 18 1 0 32.293284841969374 27.704348982533737 30.44042340112643 1 -1 0
5210 13 1 0 5.82992844148411 30.811303267222744 20.359086119003894 1 0 0
1607 4 3 0 26.991370921338838 27.951147429734625 26.847504636280515 0 0 0
7514 19 1 0 9.321017722916658 14.939579949616704 16.53239949059348 1 -1 1
7515 19 1 0 10.55607363383988 15.16130840260952 16.106963260451874 1 -1 1
7625 19 2 0 8.598615256413888 5.7165532872848335 23.769851874963575 1 -1 1
7513 19 2 0 8.829313395098954 13.632371015731644 17.214147654369334 1 -1 1
7516 19 2 0 11.68136404857416 14.012568320903322 16.167419086075515 1 -1 1
7586 19 1 0 13.787891279307491 5.245538479278142 15.831292765122347 1 -1 1
3046 8 2 0 5.548489463689905 8.660384832281347 16.79097725283487 0 1 0
3045 8 1 0 6.492056876430546 7.702546768655584 15.986071829568862 0 1 0
3044 8 1 0 7.8407756310876415 7.713272267722666 16.106936463236767 0 1 0
3043 8 2 0 8.444982032972877 8.859489115351664 16.914258041692406 0 1 0
3042 8 2 0 8.787742081119779 8.410970946489538 18.36169049370035 0 1 0
3041 8 1 0 9.820949134053254 7.323788407358294 18.399883195601817 0 1 0
3039 8 2 0 11.425945095507984 8.687958986999883 19.729202414613905 0 1 0
7627 19 1 0 6.592795209840655 7.20620640334425 23.562881657826786 1 -1 1
7512 19 2 0 8.158368508650076 13.556056576330345 18.585452282353323 1 -1 1
7626 19 1 0 7.87892824543399 7.118009901737705 23.841939890988293 1 -1 1
3040 8 1 0 10.951268834606859 7.372757282873188 19.11567755963604 0 1 0
226 1 1 0 8.348416076074619 19.148098060060562 6.706506880422276 1 0 1
7628 19 2 0 5.8691958425487885 8.554520378766536 23.87111569454647 1 -1 1
7517 19 2 0 12.630272190315376 14.247820481250095 17.361490288883793 1 -1 1
3038 8 2 0 12.92222151835872 8.986728447510856 19.44192949050841 0 1 0
3037 8 1 0 13.55908549054106 10.049397314927878 20.38137027493957 0 1 0
7509 19 2 0 5.4011547079248885 12.259418819286578 17.861310821197634 1 -1 1
5882 15 1 0 9.807446168459993 11.175676318505648 22.83536960166857 0 0 1
7838 20 2 0 12.804493981368537 5.938161070355909 21.87838409859062 0 1 0
7839 20 2 0 12.541856948595722 6.685714355816359 23.172162261028344 0 1 0
7585 19 2 0 14.447352903729772 6.5847275465198845 15.569111498574385 1 -1 1
3036 8 1 0 14.507129199965778 9.769169980424977 21.20818727102976 0 1 0
7629 19 2 0 5.22991594223493 9.318365635418486 22.73245952335366 1 -1 1
5890 15 1 0 5.029566444665557 10.088766547089637 28.661783899887645 0 0 1
7510 19 1 0 6.377088394172654 11.695452393097653 18.89109547011049 1 -1 1
7511 19 1 0 7.610110382323419 12.21652648541543 19.080629121469137 1 -1 1
5883 15 1 0 8.935740276513474 12.132070654115475 23.03370827360648 0 0 1
592 2 1 0 15.48007903851927 5.180277847994807 10.620614382129691 -1 1 1
7530 19 1 0 18.47419852697626 5.2343134130021856 23.06587298217353 1 -1 1
7543 19 1 0 23.355545184679517 7.429064583198954 14.516332908493634 1 -1 1
2653 7 2 0 5.844219337168286 25.240902831592358 20.778442904255787 0 -1 1
7529 19 2 0 17.001851152350973 5.127668320107086 22.64636900432956 1 -1 1
7518 19 1 0 13.65439662714389 13.151830472982896 17.822465084964193 1 -1 1
3035 8 2 0 15.197230062768565 10.795780419844844 22.13092077232221 0 1 0
7541 19 2 0 21.112304630257768 7.896878181175937 14.972985662692313 1 -1 1
7522 19 1 0 17.522743072054414 10.445642728033397 16.809722919207758 1 -1 1
7521 19 2 0 16.07982034103891 11.00927282121038 16.9892429207191 1 -1 1
7524 19 2 0 16.90010708819677 8.61379434149633 18.278478958547364 1 -1 1
7525 19 2 0 17.647741033688295 7.675172856368233 19.15769077554634 1 -1 1
7526 19 1 0 16.853069929582503 6.85469327667867 20.155323973921963 1 -1 1
7527 19 1 0 16.872513167903794 7.290021838132958 21.420740235159467 1 -1 1
7523 19 1 0 17.824349503121773 9.28358783398997 17.375356537386466 1 -1 1
7519 19 1 0 14.851930758829821 13.252115242006253 17.348802254688096 1 -1 1
7520 19 2 0 15.972269234528339 12.30106892139823 17.76518415813112 1 -1 1
3032 8 1 0 18.805619444184288 12.066504243526001 22.13783959141166 0 1 0
3034 8 2 0 16.676254701685895 11.060337975191366 21.692932017937057 0 1 0
3033 8 1 0 17.531983811537085 11.921149515794514 22.55189996286895 0 1 0
2699 7 1 0 21.814116682292802 7.422903883423139 22.083926787608593 0 -1 1
2693 7 2 0 20.75012333651133 12.769312867621222 18.613588940447922 0 -1 1
2695 7 1 0 21.792584101107764 10.81309814489925 19.52329400790768 0 -1 1
2698 7 1 0 21.23408598607051 8.310996404147298 21.327823750932467 0 -1 1
2697 7 2 0 21.596140162962133 8.335388602340398 19.812273169957628 0 -1 1
2694 7 1 0 21.516114358931123 11.488607685958957 18.424917396491438 0 -1 1
2696 7 2 0 22.528524378232675 9.41670951833375 19.34335638787843 0 -1 1
3031 8 2 0 19.843536641454904 12.855873367113494 22.861876449880192 0 1 0
3030 8 2 0 21.23503111133391 12.223871488074781 22.862491651839623 0 1 0
7528 19 2 0 16.198857290410274 6.45594678555455 22.50496447963228 1 -1 1
7544 19 2 0 23.26663041582091 6.567559895268235 15.749130653917144 1 -1 1
3026 8 2 0 25.23132979532363 12.917340971269878 22.115550669293693 0 1 0
2700 7 2 0 21.403784640809185 7.477371169866724 23.52397041895058 0 -1 1
2701 7 2 0 22.453953497628042 8.013618472033848 24.49236775472005 0 -1 1
6524 17 2 0 23.734203060082923 6.843686345492815 5.123212281938333 0 1 0
7545 19 2 0 24.557943144293887 5.737225572746107 16.135159269386907 1 -1 1
6374 16 2 0 5.759619509633669 15.39536900394021 12.403483393950886 1 0 0
7547 19 1 0 24.631763159846315 5.1305519532555905 18.43449032903888 1 -1 1
1352 4 1 0 9.375100638838559 33.22687653825085 5.5269143967785475 0 1 1
3029 8 1 0 22.215332783159123 12.673742553959311 23.998270250409114 0 1 0