units real
atom_style full
boundary p p p

# --- Force Field Styles ---
pair_style lj/cut 14.0
dielectric 1.000000
bond_style harmonic
angle_style harmonic
dihedral_style multi/harmonic
improper_style none
special_bonds lj 0 0 0
pair_modify mix arithmetic tail yes
neighbor 2.0 bin
neigh_modify delay 0 every 1 check yes
neigh_modify one 4000
package gpu 1 neigh yes

read_data /home/arz2/PolyJarvis/data/cis-PBD2/lammps/equil/minimize/minimize_out.data
Reading data file ...
  orthogonal box = (0 0 0) to (68.178378 68.178378 68.178378)
  1 by 1 by 1 MPI processor grid
  reading atoms ...
  8040 atoms
  reading velocities ...
  8040 velocities
  scanning bonds ...
  2 = max bonds/atom
  scanning angles ...
  1 = max angles/atom
  scanning dihedrals ...
  2 = max dihedrals/atom
  orthogonal box = (0 0 0) to (68.178378 68.178378 68.178378)
  1 by 1 by 1 MPI processor grid
  reading bonds ...
  8020 bonds
  reading angles ...
  8000 angles
  reading dihedrals ...
  7980 dihedrals
Finding 1-2 1-3 1-4 neighbors ...
  special bond factors lj:    0        0        0       
  special bond factors coul:  0        0        0       
     2 = max # of 1-2 neighbors
     2 = max # of 1-3 neighbors
     4 = max # of 1-4 neighbors
     6 = max # of special neighbors
  special bonds CPU = 0.007 seconds
  read_data CPU = 0.125 seconds
include /home/arz2/PolyJarvis/data/cis-PBD2/lammps/cell/emc_build.params
# LAMMPS parameters created by EMC v9.4.4, build Jul 31 2025 20:33:44

# Variables

variable	seed		index	734812
variable	ntotal		index	8040
variable	fshape		index	1
variable	output		index	emc_build
variable	field		index	trappe/2014/trappe-ua
variable	location1	index	/home/arz2/emc/field/
variable	nav		index	0.6022141179
variable	temperature	index	300
variable	radius		index	5
variable	nrelax		index	100
variable	weight_nonbond	index	0.0001
variable	weight_bond	index	0.0001
variable	weight_focus	index	1
variable	cutoff		index	14
variable	charge_cutoff	index	14
variable	kappa		index	4
variable	density1	index	0.57
variable	lprevious	index	0
variable	lphase		index	68.1783775471
variable	f_poly		index	20
variable	chem_repeat	index	*C/C=C\C*
variable	chem_cap	index	*C
variable	lg_repeat	index	4
variable	lg_cap		index	1
variable	norm_poly	index	100
variable	l_poly		index	402
variable	mg_repeat	index	54.0914
variable	mg_cap		index	15.0347
variable	m_poly		index	5439.2094
variable	n_poly		index	20
variable	mtotal		index	108784.188
variable	nphase1		index	8040
variable	mphase1		index	108784.188
variable	vphase1		index	316912.949994
variable	lbox		index	68.1783775471
variable	lphase1		index	68.1783775471
variable	lxx		index	68.1783775471
variable	lyy		index	68.1783775471
variable	lzz		index	68.1783775471
variable	lzy		index	0
variable	lzx		index	0
variable	lyx		index	0
variable	vtotal		index	316912.949994
variable	nl_poly		index	20

# Types

variable	type_c3h	index	1
variable	type_c4h2	index	2
variable	type_c4h3	index	3

variable	type_bond_c3h_c3h index	1
variable	type_bond_c3h_c4h2 index	2
variable	type_bond_c4h2_c4h2 index	3
variable	type_bond_c4h2_c4h3 index	4

variable	type_angle_c3h_c3h_c4h2 index	1
variable	type_angle_c3h_c4h2_c4h2 index	2
variable	type_angle_c3h_c4h2_c4h3 index	3

# Clusters

variable	n0_poly		index	1
variable	n1_poly		index	20
variable	nl_poly		index	20

# Flags

variable	flag_charged	index	0

# Masses

mass		1    13.01890  # c3h
mass		2    14.02680  # c4h2
mass		3    15.03470  # c4h3

# Potentials

pair_modify	mix arithmetic tail yes
special_bonds	lj 0 0 0 coul 0 0 0.5
Finding 1-2 1-3 1-4 neighbors ...
  special bond factors lj:    0        0        0       
  special bond factors coul:  0        0        0.5     
     2 = max # of 1-2 neighbors
     2 = max # of 1-3 neighbors
     4 = max # of 1-4 neighbors
     6 = max # of special neighbors
  special bonds CPU = 0.007 seconds

# Pair Coeffs

pair_coeff	1 1    0.09340    3.71000  # c3h,c3h
pair_coeff	2 2    0.09141    3.95000  # c4h2,c4h2
pair_coeff	3 3    0.19475    3.75000  # c4h3,c4h3

# Bond Coeffs

bond_coeff	1  529.99987    1.33000  # c3h,c3h
bond_coeff	2  260.00013    1.54000  # c3h,c4h2
bond_coeff	3  260.00013    1.54000  # c4h2,c4h2
bond_coeff	4  260.00013    1.54000  # c4h2,c4h3

# Angle Coeffs

angle_coeff	1   69.96954  119.70000  # c3h,c3h,c4h2
angle_coeff	2   62.10020  114.00000  # c3h,c4h2,c4h2
angle_coeff	3   62.10020  114.00000  # c3h,c4h2,c4h3

# Dihedral Coeffs

dihedral_coeff	1    1.91086    1.85422    0.43627   -2.24348    0.00000  # c3h,c3h,c4h2,c4h2
dihedral_coeff	2    1.91086    1.85422    0.43627   -2.24348    0.00000  # c3h,c3h,c4h2,c4h3
dihedral_coeff	3    2.00702   -4.01203    0.27102    6.29006    0.00000  # c3h,c4h2,c4h2,c3h
dihedral_coeff	4   25.63496    0.99360  -25.63496   -0.99360    0.00000  # c4h2,c3h,c3h,c4h2


# --- Thermo Output ---
thermo_style custom step time temp press enthalpy etotal ke pe ebond eangle edihed eimp evdwl ecoul elong etail vol lx ly lz density pxx pyy pzz
thermo_modify flush yes
thermo 1000

# --- Trajectory ---
dump dump_nvt all custom 1000 nvt_softheat.dump id type mol x y z ix iy iz vx vy vz

# --- Restart Checkpointing ---
restart 10000 nvt_1.rst nvt_2.rst

# --- Initial Velocities (optional) ---
velocity all create 300.0 355754 mom yes rot yes dist gaussian

# --- SHAKE Constraints ---
# Constrains H-X bonds to allow 2fs timestep
# SHAKE disabled (TraPPE-UA united-atom)

# --- NVT Thermostat (Nose-Hoover) ---
# T_damp = 50.0 fs  (coupling timescale for heat exchange)
# Ramp: 300.0 K -> 480.0 K over 500000 steps
timestep 0.5
fix nvt_fix all nvt temp 300.0 480.0 50.0

run 500000

CITE-CITE-CITE-CITE-CITE-CITE-CITE-CITE-CITE-CITE-CITE-CITE-CITE

Your simulation uses code contributions which should be cited:

- GPU package (short-range, long-range and three-body potentials): doi:10.1016/j.cpc.2010.12.021, doi:10.1016/j.cpc.2011.10.012, doi:10.1016/j.cpc.2013.08.002, doi:10.1016/j.commatsci.2014.10.068, doi:10.1016/j.cpc.2016.10.020, doi:10.3233/APC200086

@Article{Brown11,
 author = {W. M. Brown and P. Wang and S. J. Plimpton and A. N. Tharrington},
 title = {Implementing Molecular Dynamics on Hybrid High Performance Computers---Short Range Forces},
 journal = {Comput.\ Phys.\ Commun.},
 year =    2011,
 volume =  182,
 pages =   {898--911},
 doi =     {10.1016/j.cpc.2010.12.021}
}

@Article{Brown12,
 author = {W. M. Brown and A. Kohlmeyer and S. J. Plimpton and A. N. Tharrington},
 title = {Implementing Molecular Dynamics on Hybrid High Performance Computers - Particle-Particle Particle-Mesh},
 journal = {Comput.\ Phys.\ Commun.},
 year =    2012,
 volume =  183,
 doi =     {10.1016/j.cpc.2011.10.012},
 pages =   {449--459}
}

@Article{Brown13,
 author = {W. M. Brown and Y. Masako},
 title = {Implementing Molecular Dynamics on Hybrid High Performance Computers---Three-Body Potentials},
 journal = {Comput.\ Phys.\ Commun.},
 year =    2013,
 volume =  184,
 pages =   {2785--2793},
 doi =     {10.1016/j.cpc.2013.08.002},
}

@Article{Trung15,
 author = {T. D. Nguyen and S. J. Plimpton},
 title = {Accelerating Dissipative Particle Dynamics Simulations for Soft Matter Systems},
 journal = {Comput.\ Mater.\ Sci.},
 year =    2015,
 doi =     {10.1016/j.commatsci.2014.10.068},
 volume =  100,
 pages =   {173--180}
}

@Article{Trung17,
 author = {T. D. Nguyen},
 title = {{GPU}-Accelerated {T}ersoff Potentials for Massively Parallel
    Molecular Dynamics Simulations},
 journal = {Comput.\ Phys.\ Commun.},
 year =    2017,
 doi =     {10.1016/j.cpc.2016.10.020},
 volume =  212,
 pages =   {113--122}
}

@inproceedings{Nikolskiy19,
 author = {V. Nikolskiy and V. Stegailov},
 title = {{GPU} Acceleration of Four-Site Water Models in {LAMMPS}},
 booktitle = {Proceedings of the International Conference on Parallel
    Computing (ParCo 2019), Prague, Czech Republic},
 doi =     {10.3233/APC200086},
 year =    2019
}

CITE-CITE-CITE-CITE-CITE-CITE-CITE-CITE-CITE-CITE-CITE-CITE-CITE

Generated 3 of 3 mixed pair_coeff terms from arithmetic mixing rule
Per MPI rank memory allocation (min/avg/max) = 15.55 | 15.55 | 15.55 Mbytes
   Step          Time           Temp          Press         Enthalpy        TotEng         KinEng         PotEng         E_bond        E_angle        E_dihed        E_impro         E_vdwl         E_coul         E_long         E_tail         Volume           Lx             Ly             Lz          Density          Pxx            Pyy            Pzz      
         0   0              300            557.80164      8792.9263      6214.8506      7188.8196     -973.969        7.0216186      133.7605       7069.5998      0             -8184.351       0              0             -183.40902      316912.95      68.178378      68.178378      68.178378      0.56999999     564.5433       583.16723      525.6944     
      1000   500            329.25929      147.80318      14499.01       13815.886      7889.9521      5925.9337      1967.418       2307.373       8943.119       0             -7291.9763      0              0             -183.40902      316912.95      68.178378      68.178378      68.178378      0.56999999     60.707443      375.99913      6.7029554    
      2000   1000           301.42013     -186.35031      12968.141      13829.424      7222.8497      6606.5745      2367.0727      2390.1594      8887.0189      0             -7037.6766      0              0             -183.40902      316912.95      68.178378      68.178378      68.178378      0.56999999    -231.97281     -477.65709      150.57896    
      3000   1500           295.96047     -408.30655      11858.052      13745.183      7092.0214      6653.162       2478.0647      2342.2119      8759.4476      0             -6926.5621      0              0             -183.40902      316912.95      68.178378      68.178378      68.178378      0.56999999    -29.461645     -878.89458     -316.56342    
      4000   2000           293.86632     -466.18069      11761.839      13916.456      7041.8398      6874.6166      2439.4115      2406.4694      8870.2261      0             -6841.4903      0              0             -183.40902      316912.95      68.178378      68.178378      68.178378      0.56999999    -218.71199     -404.4442      -775.38587    
      5000   2500           302.43547     -408.93711      12144.304      14034.35       7247.18        6787.1703      2414.6842      2416.0252      8844.1676      0             -6887.7066      0              0             -183.40902      316912.95      68.178378      68.178378      68.178378      0.56999999    -109.30891     -505.63465     -611.86778    
      6000   3000           302.09173     -342.79882      12449.202      14033.567      7238.9433      6794.6235      2403.3844      2400.1216      8858.3388      0             -6867.2214      0              0             -183.40902      316912.95      68.178378      68.178378      68.178378      0.56999999    -271.19645     -419.99062     -337.20937    
      7000   3500           303.48387     -346.15924      12437.279      14037.175      7272.3026      6764.8726      2396.4779      2425.8924      8845.7107      0             -6903.2084      0              0             -183.40902      316912.95      68.178378      68.178378      68.178378      0.56999999    -509.9462      -525.15694     -3.3745804    
      8000   4000           301.36501     -446.59434      11917.23       13981.322      7221.5291      6759.7932      2420.0646      2396.8263      8885.84        0             -6942.9378      0              0             -183.40902      316912.95      68.178378      68.178378      68.178378      0.56999999    -405.34279     -534.64635     -399.79387    
      9000   4500           301.0644      -87.861012      13494.213      13900.293      7214.3256      6685.9676      2410.2721      2373.1396      8865.0231      0             -6962.4671      0              0             -183.40902      316912.95      68.178378      68.178378      68.178378      0.56999999    -264.91444     -65.53349       66.864897    
     10000   5000           304.71552     -247.60219      12889.547      14033.928      7301.8163      6732.1113      2484.9877      2354.7772      8857.7139      0             -6965.3675      0              0             -183.40902      316912.95      68.178378      68.178378      68.178378      0.56999999    -339.11263     -214.92403     -188.7699     
     11000   5500           305.93805     -123.89074      13382.593      13955.198      7331.1116      6624.0861      2380.0988      2344.4827      8882.7366      0             -6983.2319      0              0             -183.40902      316912.95      68.178378      68.178378      68.178378      0.56999999    -169.68138     -315.75205      113.7612     
     12000   6000           306.16207     -637.93184      11029.352      13977.778      7336.4796      6641.2984      2417.8686      2402.0069      8850.8017      0             -7029.3789      0              0             -183.40902      316912.95      68.178378      68.178378      68.178378      0.56999999    -878.99827     -499.56429     -535.23296    
     13000   6500           303.66757     -117.30117      13321.386      13863.534      7276.7046      6586.8297      2355.6843      2398.7605      8881.3931      0             -7049.0083      0              0             -183.40902      316912.95      68.178378      68.178378      68.178378      0.56999999    -53.754081      68.69455      -366.84396    
     14000   7000           301.50168     -471.17152      11669.148      13846.832      7224.8039      6622.0279      2395.532       2416.7872      8868.5319      0             -7058.8233      0              0             -183.40902      316912.95      68.178378      68.178378      68.178378      0.56999999    -688.72606     -562.52678     -162.26171    
     15000   7500           298.62203     -419.41139      11786.938      13725.395      7155.7996      6569.5949      2383.7786      2392.3693      8852.0506      0             -7058.6035      0              0             -183.40902      316912.95      68.178378      68.178378      68.178378      0.56999999    -93.217195     -631.99741     -533.01958    
     16000   8000           310.16456     -438.3228       11870.088      13895.951      7432.3903      6463.5602      2388.1364      2347.5583      8825.021       0             -7097.1555      0              0             -183.40902      316912.95      68.178378      68.178378      68.178378      0.56999999     49.592223     -323.3154      -1041.2452    
     17000   8500           302.23934     -686.04488      10607.607      13778.403      7242.4804      6535.923       2395.1126      2418.2656      8833.7499      0             -7111.2051      0              0             -183.40902      316912.95      68.178378      68.178378      68.178378      0.56999999    -446.40367     -952.1572      -659.57377    
     18000   9000           306.27654     -564.7527       11370.393      13980.596      7339.2227      6641.3729      2424.5696      2525.1706      8821.6729      0             -7130.0402      0              0             -183.40902      316912.95      68.178378      68.178378      68.178378      0.56999999    -277.45294     -768.73252     -648.07262    
     19000   9500           309.18737     -208.19643      12848.61       13810.863      7408.9741      6401.8891      2372.3221      2342.0614      8851.0241      0             -7163.5185      0              0             -183.40902      316912.95      68.178378      68.178378      68.178378      0.56999999    -292.02531     -209.05756     -123.50643    
     20000   10000          313.00715     -347.90566      12403.061      14011.029      7500.5065      6510.5223      2381.6264      2415.2619      8860.4466      0             -7146.8127      0              0             -183.40902      316912.95      68.178378      68.178378      68.178378      0.56999999    -300.10863     -264.9927      -478.61563    
     21000   10500          308.31858     -239.11098      12854.936      13960.072      7388.1555      6571.916       2403.3948      2436.888       8855.7038      0             -7124.0706      0              0             -183.40902      316912.95      68.178378      68.178378      68.178378      0.56999999    -265.56995     -315.86621     -135.89677    
     22000   11000          306.78401     -102.02288      13333.894      13805.429      7351.3831      6454.0458      2374.9311      2396.1135      8888.7789      0             -7205.7778      0              0             -183.40902      316912.95      68.178378      68.178378      68.178378      0.56999999    -331.38452     -15.861946      41.177832    
     23000   11500          306.82897     -210.78746      12901.723      13875.951      7352.4604      6523.4905      2450.914       2377.7048      8913.6928      0             -7218.8211      0              0             -183.40902      316912.95      68.178378      68.178378      68.178378      0.56999999    -265.24574     -361.72227     -5.3943768    
     24000   12000          311.69774     -426.36154      11872.025      13842.605      7469.1293      6373.4753      2405.0183      2321.1303      8836.7727      0             -7189.446       0              0             -183.40902      316912.95      68.178378      68.178378      68.178378      0.56999999    -330.61364     -697.56165     -250.90933    
     25000   12500          308.32843     -209.3391       12940.079      13907.613      7388.3916      6519.2216      2399.7417      2413.5431      8834.3636      0             -7128.4268      0              0             -183.40902      316912.95      68.178378      68.178378      68.178378      0.56999999    -216.74485     -381.72264     -29.549805    
     26000   13000          312.21509     -143.7254       13432.38       14096.657      7481.5265      6615.1305      2487.1306      2430.0672      8885.4484      0             -7187.5156      0              0             -183.40902      316912.95      68.178378      68.178378      68.178378      0.56999999     87.765504     -412.63626     -106.30544    
     27000   13500          311.69822     -588.6221       11311.785      14032.309      7469.1408      6563.1678      2439.3458      2449.5111      8883.6758      0             -7209.365       0              0             -183.40902      316912.95      68.178378      68.178378      68.178378      0.56999999    -227.11583     -730.77927     -807.97121    
     28000   14000          307.6589      -493.40864      11622.84       13903.301      7372.3477      6530.9531      2433.4406      2419.6257      8904.7465      0             -7226.8597      0              0             -183.40902      316912.95      68.178378      68.178378      68.178378      0.56999999    -460.12738     -398.79617     -621.30237    
     29000   14500          312.18555     -682.06753      10849.016      14001.43       7480.8186      6520.611       2466.3772      2406.463       8902.4646      0             -7254.6937      0              0             -183.40902      316912.95      68.178378      68.178378      68.178378      0.56999999    -679.28387     -845.53359     -521.38513    
     30000   15000          312.41174     -276.17297      12835.626      14112.056      7486.2389      6625.8171      2473.8522      2444.6219      8945.8645      0             -7238.5215      0              0             -183.40902      316912.95      68.178378      68.178378      68.178378      0.56999999    -243.60776     -5.3462486     -579.5649     
     31000   15500          312.52797     -356.79995      12385.682      14034.758      7489.024       6545.7337      2419.0849      2455.4625      8909.8124      0             -7238.6261      0              0             -183.40902      316912.95      68.178378      68.178378      68.178378      0.56999999    -656.15194     -364.81564     -49.432284    
     32000   16000          308.27349     -60.076156      13712.535      13990.198      7387.0751      6603.1231      2448.1728      2490.4469      8897.9889      0             -7233.4855      0              0             -183.40902      316912.95      68.178378      68.178378      68.178378      0.56999999    -303.87193     -44.086711      167.73018    
     33000   16500          310.90452     -118.54663      13516.261      14064.166      7450.1216      6614.0445      2476.6241      2457.9076      8902.3149      0             -7222.8021      0              0             -183.40902      316912.95      68.178378      68.178378      68.178378      0.56999999     79.004755      17.267214     -451.91186    
     34000   17000          310.3501      -294.59558      12634.364      13995.941      7436.8364      6559.1042      2406.7238      2530.6312      8859.1733      0             -7237.4241      0              0             -183.40902      316912.95      68.178378      68.178378      68.178378      0.56999999    -170.28969     -296.2961      -417.20096    
     35000   17500          313.75618     -472.45958      11841.477      14025.114      7518.4552      6506.6589      2449.11        2451.6738      8880.021       0             -7274.1459      0              0             -183.40902      316912.95      68.178378      68.178378      68.178378      0.56999999    -392.07279     -610.70611     -414.59984    
     36000   18000          317.65432     -204.63111      13161.755      14107.529      7611.8653      6495.6641      2476.6911      2406.7461      8916.8694      0             -7304.6425      0              0             -183.40902      316912.95      68.178378      68.178378      68.178378      0.56999999     116.23569     -400.19045     -329.93856    
     37000   18500          312.8031      -180.84459      13142.192      13978.029      7495.617       6482.4117      2463.3079      2462.9101      8855.4941      0             -7299.3004      0              0             -183.40902      316912.95      68.178378      68.178378      68.178378      0.56999999    -472.08992     -130.76634      60.322479    
     38000   19000          309.75334     -168.42314      13247.987      14026.413      7422.5363      6603.8772      2505.6106      2483.9229      8889.0964      0             -7274.7527      0              0             -183.40902      316912.95      68.178378      68.178378      68.178378      0.56999999    -222.23225      1.097504      -284.13468    
     39000   19500          317.5966      -239.77559      13054.119      14162.326      7610.4821      6551.8434      2486.2652      2492.1528      8918.2024      0             -7344.7769      0              0             -183.40902      316912.95      68.178378      68.178378      68.178378      0.56999999    -455.45619      204.17039     -468.04098    
     40000   20000          321.88859     -474.46908      12051.733      14244.658      7713.3301      6531.3282      2469.6611      2476.2595      8926.4155      0             -7341.0079      0              0             -183.40902      316912.95      68.178378      68.178378      68.178378      0.56999999    -701.30186     -533.21628     -188.88911    
     41000   20500          315.57377     -100.17677      13692.921      14155.923      7562.0097      6593.9133      2482.5735      2526.0814      8894.1279      0             -7308.8696      0              0             -183.40902      316912.95      68.178378      68.178378      68.178378      0.56999999    -329.6362       79.886085     -50.780179    
     42000   21000          311.87284     -174.36265      13180.885      13986.763      7473.3254      6513.438       2476.3486      2417.931       8968.425       0             -7349.2665      0              0             -183.40902      316912.95      68.178378      68.178378      68.178378      0.56999999    -385.21476     -367.60972      229.73654    
     43000   21500          313.11547     -68.508591      13778.84       14095.476      7503.1021      6592.3741      2467.2199      2502.3294      8950.2842      0             -7327.4594      0              0             -183.40902      316912.95      68.178378      68.178378      68.178378      0.56999999    -109.85963     -208.37904      112.7129     
     44000   22000          319.02827     -379.52447      12431.822      14185.927      7644.7889      6541.1386      2470.5669      2455.4129      8951.5679      0             -7336.4092      0              0             -183.40902      316912.95      68.178378      68.178378      68.178378      0.56999999    -623.17694     -238.32787     -277.06862    
     45000   22500          313.33811     -156.44846      13376.114      14099.195      7508.4371      6590.7583      2494.3346      2482.5545      8945.0969      0             -7331.2277      0              0             -183.40902      316912.95      68.178378      68.178378      68.178378      0.56999999    -130.69541     -323.06719     -15.58278     
     46000   23000          318.96624     -597.63816      11492.124      14254.319      7643.3024      6611.0161      2499.2204      2523.6406      8916.2248      0             -7328.0697      0              0             -183.40902      316912.95      68.178378      68.178378      68.178378      0.56999999    -413.28707     -542.31999     -837.30741    
     47000   23500          317.98074     -288.08286      12875.997      14207.473      7619.6874      6587.7858      2515.0521      2506.9046      8919.7267      0             -7353.8976      0              0             -183.40902      316912.95      68.178378      68.178378      68.178378      0.56999999    -390.95149     -269.67942     -203.61769    
     48000   24000          313.76914     -291.92709      12809.52       14158.763      7518.7658      6639.9974      2552.7327      2457.2267      8976.5109      0             -7346.4729      0              0             -183.40902      316912.95      68.178378      68.178378      68.178378      0.56999999    -447.08598     -370.01711     -58.678194    
     49000   24500          320.49455     -554.30656      11812.241      14374.163      7679.9251      6694.2378      2508.6525      2542.4551      8976.8797      0             -7333.7494      0              0             -183.40902      316912.95      68.178378      68.178378      68.178378      0.56999999    -674.96333     -496.83114     -491.1252     
     50000   25000          321.08568     -97.32107       13905.419      14355.222      7694.0901      6661.1323      2545.9879      2501.8125      8963.6078      0             -7350.2758      0              0             -183.40902      316912.95      68.178378      68.178378      68.178378      0.56999999     34.189239     -68.688996     -257.46345    
     51000   25500          315.4185      -623.51236      11171.702      14053.483      7558.289       6495.194       2469.637       2452.7796      8981.4475      0             -7408.6702      0              0             -183.40902      316912.95      68.178378      68.178378      68.178378      0.56999999    -781.97518     -611.60456     -476.95733    
     52000   26000          317.906       -572.87837      11549.088      14196.846      7617.8962      6578.9499      2508.6261      2517.0084      8915.963       0             -7362.6476      0              0             -183.40902      316912.95      68.178378      68.178378      68.178378      0.56999999    -677.16286     -286.81447     -754.65778    
     53000   26500          320.06137     -51.149712      14087.806      14324.212      7669.5449      6654.6671      2502.2711      2575.6108      8925.7363      0             -7348.9511      0              0             -183.40902      316912.95      68.178378      68.178378      68.178378      0.56999999    -180.87673      146.22787     -118.80028    
     54000   27000          317.73566     -501.25763      11769.023      14085.761      7613.8144      6471.9463      2467.8341      2499.9804      8909.2799      0             -7405.1481      0              0             -183.40902      316912.95      68.178378      68.178378      68.178378      0.56999999    -300.22075     -613.88903     -589.66312    
     55000   27500          323.91044     -439.7008       12259.861      14292.093      7761.7792      6530.3135      2476.0728      2453.8483      9007.5032      0             -7407.1109      0              0             -183.40902      316912.95      68.178378      68.178378      68.178378      0.56999999    -303.39935     -309.19189     -706.51115    
     56000   28000          321.85875     -193.91191      13208.774      14105.006      7712.615       6392.3907      2434           2472.0227      8899.1125      0             -7412.7445      0              0             -183.40902      316912.95      68.178378      68.178378      68.178378      0.56999999    -116.19473     -399.29746     -66.243531    
     57000   28500          324.75647     -328.75645      12849.831      14369.294      7782.0523      6587.2418      2530.9514      2471.1616      8984.2838      0             -7399.155       0              0             -183.40902      316912.95      68.178378      68.178378      68.178378      0.56999999    -518.86198     -392.02915     -75.37822     
     58000   29000          323.40512     -233.45202      13375.589      14454.569      7749.6701      6704.8991      2580.5198      2528.2742      8999.4326      0             -7403.3275      0              0             -183.40902      316912.95      68.178378      68.178378      68.178378      0.56999999     53.19856      -359.78841     -393.76622    
     59000   29500          316.98568     -590.51865      11588.59       14317.879      7595.8429      6722.0358      2609.1145      2471.8236      9014.0247      0             -7372.9269      0              0             -183.40902      316912.95      68.178378      68.178378      68.178378      0.56999999    -937.81142     -332.70992     -501.03461    
     60000   30000          321.03654     -82.864557      13922.111      14305.099      7692.9126      6612.1859      2626.0501      2467.4101      8903.5795      0             -7384.8538      0              0             -183.40902      316912.95      68.178378      68.178378      68.178378      0.56999999    -39.403685     -7.4725422     -201.71744    
     61000   30500          323.36983     -206.35266      13321.42       14275.152      7748.8246      6526.3269      2493.6356      2486.3139      8968.7396      0             -7422.3621      0              0             -183.40902      316912.95      68.178378      68.178378      68.178378      0.56999999     33.555758     -222.40004     -430.21369    
     62000   31000          326.34713     -231.08974      13416.525      14484.587      7820.1689      6664.4182      2548.6107      2486.673       9059.6953      0             -7430.5608      0              0             -183.40902      316912.95      68.178378      68.178378      68.178378      0.56999999     106.38777     -233.31292     -566.34407    
     63000   31500          319.54649     -34.225475      14120.484      14278.669      7657.207       6621.4616      2564.5727      2585.9626      8907.142       0             -7436.2157      0              0             -183.40902      316912.95      68.178378      68.178378      68.178378      0.56999999    -150.06292      211.44643     -164.05993    
     64000   32000          325.30912     -266.35836      13175.653      14406.721      7795.2953      6611.426       2520.0972      2531.3878      8989.3645      0             -7429.4234      0              0             -183.40902      316912.95      68.178378      68.178378      68.178378      0.56999999    -533.10895     -228.65616     -37.309977    
     65000   32500          320.90886     -738.26762      10891.671      14303.833      7689.8529      6613.9803      2570.5582      2511.3517      8985.8392      0             -7453.7688      0              0             -183.40902      316912.95      68.178378      68.178378      68.178378      0.56999999    -842.92415     -457.68693     -914.19177    
     66000   33000          321.98126     -432.13495      12478.871      14476.135      7715.5506      6760.5839      2566.3093      2636.8518      8990.9896      0             -7433.5667      0              0             -183.40902      316912.95      68.178378      68.178378      68.178378      0.56999999    -381.6529      -718.77358     -195.97838    
     67000   33500          334.83606     -506.7413       12292.248      14634.33       8023.5867      6610.7437      2587.6901      2511.3913      8942.7143      0             -7431.0519      0              0             -183.40902      316912.95      68.178378      68.178378      68.178378      0.56999999    -405.4338      -948.63128     -166.15882    
     68000   34000          325.79558     -684.44849      11364.628      14528.046      7806.9521      6721.0941      2551.9292      2572.9098      9051.4808      0             -7455.2257      0              0             -183.40902      316912.95      68.178378      68.178378      68.178378      0.56999999    -472.23946     -823.40615     -757.69986    
     69000   34500          329.2492      -239.84967      13400.515      14509.064      7889.7103      6619.354       2567.8683      2550.6815      8954.7754      0             -7453.9713      0              0             -183.40902      316912.95      68.178378      68.178378      68.178378      0.56999999    -449.24775      106.94091     -377.24217    
     70000   35000          332.02181     -377.18385      12880.957      14624.244      7956.1497      6668.0942      2580.9263      2593.5814      8947.5076      0             -7453.9211      0              0             -183.40902      316912.95      68.178378      68.178378      68.178378      0.56999999    -308.96605     -580.92101     -241.66447    
     71000   35500          327.01987     -425.71934      12621.949      14589.56       7836.2896      6753.2706      2621.7199      2556.8424      8995.6402      0             -7420.932       0              0             -183.40902      316912.95      68.178378      68.178378      68.178378      0.56999999    -390.9736      -102.78272     -783.40171    
     72000   36000          326.27679     -1.718339       14505.87       14513.812      7818.4833      6695.329       2552.9088      2611.8612      8976.6537      0             -7446.0948      0              0             -183.40902      316912.95      68.178378      68.178378      68.178378      0.56999999     297.93303     -64.263963     -238.82409    
     73000   36500          327.56337     -127.8362       13873.408      14464.247      7849.3132      6614.9343      2528.1006      2551.6955      8974.9197      0             -7439.7815      0              0             -183.40902      316912.95      68.178378      68.178378      68.178378      0.56999999    -50.402777     -153.80239     -179.30342    
     74000   37000          328.72174     -533.02753      12108.504      14572.078      7877.071       6695.0066      2589.8748      2512.4596      8998.8501      0             -7406.1779      0              0             -183.40902      316912.95      68.178378      68.178378      68.178378      0.56999999    -499.91176     -736.4709      -362.69992    
     75000   37500          325.19984     -575.80322      11843.977      14505.253      7792.6767      6712.5761      2553.9308      2561.268       9008.0893      0             -7410.712       0              0             -183.40902      316912.95      68.178378      68.178378      68.178378      0.56999999    -576.50161     -231.72744     -919.1806     
     76000   38000          332.16663     -256.19417      13616.554      14800.645      7959.6198      6841.025       2671.4204      2567.6345      9023.179       0             -7421.209       0              0             -183.40902      316912.95      68.178378      68.178378      68.178378      0.56999999    -538.95654      157.56379     -387.18975    
     77000   38500          329.37481     -461.01712      12574.67       14705.422      7892.7203      6812.7021      2552.321       2621.1892      9008.0764      0             -7368.8844      0              0             -183.40902      316912.95      68.178378      68.178378      68.178378      0.56999999    -440.63901     -441.50287     -500.90949    
     78000   39000          328.82501     -543.3122       12218.287      14729.395      7879.5456      6849.8491      2637.9302      2603.1472      9001.3172      0             -7392.5454      0              0             -183.40902      316912.95      68.178378      68.178378      68.178378      0.56999999    -511.40963     -735.54646     -382.98051    
     79000   39500          326.96482     -347.50329      12916.315      14522.423      7834.9704      6687.4524      2543.5361      2624.7232      8899.8696      0             -7380.6765      0              0             -183.40902      316912.95      68.178378      68.178378      68.178378      0.56999999    -148.9617      -411.19595     -482.35222    
     80000   40000          328.12168     -192.04189      13657.675      14545.264      7862.6919      6682.572       2532.229       2543.7111      9037.4929      0             -7430.8611      0              0             -183.40902      316912.95      68.178378      68.178378      68.178378      0.56999999    -228.21616     -240.30793     -107.60157    
     81000   40500          335.49826      47.394229      15035.352      14816.303      8039.4549      6776.8478      2654.5156      2567.2573      9009.4473      0             -7454.3724      0              0             -183.40902      316912.95      68.178378      68.178378      68.178378      0.56999999     111.33681      11.451111      19.394763    
     82000   41000          331.88082     -153.15728      13901.865      14609.735      7952.7712      6656.9642      2579.7784      2539.0987      8977.759       0             -7439.6719      0              0             -183.40902      316912.95      68.178378      68.178378      68.178378      0.56999999    -21.131644     -278.9866      -159.3536     
     83000   41500          332.65421      11.490731      14814.517      14761.408      7971.3037      6790.1043      2606.8703      2611.2192      8963.6552      0             -7391.6403      0              0             -183.40902      316912.95      68.178378      68.178378      68.178378      0.56999999    -416.64         280.27364      170.83855    
     84000   42000          328.10951     -320.15346      13188.579      14668.28       7862.4002      6805.8799      2634.9101      2611.9841      8918.7351      0             -7359.7495      0              0             -183.40902      316912.95      68.178378      68.178378      68.178378      0.56999999    -226.38294     -301.28275     -432.7947     
     85000   42500          331.54913      35.962226      14984.186      14817.974      7944.8229      6873.1514      2641.2955      2658.2973      8972.6609      0             -7399.1024      0              0             -183.40902      316912.95      68.178378      68.178378      68.178378      0.56999999     146.50045     -243.46533      204.85155    
     86000   43000          332.8413      -23.46159       14584.785      14693.221      7975.7868      6717.4347      2518.3691      2634.906       8992.5927      0             -7428.4332      0              0             -183.40902      316912.95      68.178378      68.178378      68.178378      0.56999999     1.3005715      155.07589     -226.76123    
     87000   43500          333.19179      10.274107      14961.275      14913.789      7984.1855      6929.6037      2643.0058      2649.8259      9029.3327      0             -7392.5606      0              0             -183.40902      316912.95      68.178378      68.178378      68.178378      0.56999999    -130.19758      70.662779      90.35712     
     88000   44000          332.61158     -163.84708      14016.726      14774.003      7970.2822      6803.7204      2593.1024      2622.4342      9005.8148      0             -7417.631       0              0             -183.40902      316912.95      68.178378      68.178378      68.178378      0.56999999     37.063509     -291.47041     -237.13434    
     89000   44500          327.92466     -408.54477      12761.525      14649.758      7857.9708      6791.787       2634.0319      2645.8631      8975.2723      0             -7463.3803      0              0             -183.40902      316912.95      68.178378      68.178378      68.178378      0.56999999    -299.61116     -669.72525     -256.29789    
     90000   45000          335.11054     -340.93095      13294.66       14870.392      8030.1642      6840.2277      2648.2234      2635.851       8984.1261      0             -7427.9729      0              0             -183.40902      316912.95      68.178378      68.178378      68.178378      0.56999999    -614.22629     -0.67393915    -407.89263    
     91000   45500          332.32646     -529.29297      12435.312      14881.625      7963.4498      6918.1748      2628.9933      2632.7426      9065.7445      0             -7409.3056      0              0             -183.40902      316912.95      68.178378      68.178378      68.178378      0.56999999    -341.92832     -703.30728     -542.64332    
     92000   46000          333.86008     -233.25347      13687.404      14765.467      8000.1995      6765.2671      2571.18        2659.6877      8971.3024      0             -7436.9029      0              0             -183.40902      316912.95      68.178378      68.178378      68.178378      0.56999999    -183.90099     -151.69771     -364.16172    
     93000   46500          335.3638      -150.97853      14227.082      14924.882      8036.2328      6888.6493      2589.5336      2641.7401      9050.6427      0             -7393.2671      0              0             -183.40902      316912.95      68.178378      68.178378      68.178378      0.56999999    -93.320301     -103.73664     -255.87865    
     94000   47000          340.33101      28.268379      15180.813      15050.161      8155.2607      6894.8999      2571.1017      2688.5394      9059.8474      0             -7424.5885      0              0             -183.40902      316912.95      68.178378      68.178378      68.178378      0.56999999    -16.298073     -67.376622      168.47983    
     95000   47500          333.24347     -119.82011      14346.164      14899.955      7985.424       6914.5311      2607.7185      2671.4769      9059.8218      0             -7424.4861      0              0             -183.40902      316912.95      68.178378      68.178378      68.178378      0.56999999     184.14174      32.862342     -576.46441    
     96000   48000          329.33571     -69.622147      14559.699      14881.482      7891.7833      6989.6991      2678.5262      2636.6554      9138.4551      0             -7463.9377      0              0             -183.40902      316912.95      68.178378      68.178378      68.178378      0.56999999    -102.41185     -63.563568     -42.891024    
     97000   48500          333.78583      51.734421      15162.372      14923.263      7998.4203      6924.8428      2604.3994      2687.6387      9075.3516      0             -7442.5469      0              0             -183.40902      316912.95      68.178378      68.178378      68.178378      0.56999999    -50.968896      249.87903     -43.706873    
     98000   49000          337.01971     -464.91262      12816.226      14964.982      8075.9129      6889.0693      2615.5599      2601.1198      9076.7181      0             -7404.3285      0              0             -183.40902      316912.95      68.178378      68.178378      68.178378      0.56999999    -321.42906     -890.28278     -183.02601    
     99000   49500          335.51084     -313.3131       13587.229      15035.315      8039.7563      6995.5591      2679.6593      2596.1642      9149.3527      0             -7429.6172      0              0             -183.40902      316912.95      68.178378      68.178378      68.178378      0.56999999    -453.59357     -216.33024     -270.01549    
    100000   50000          334.19279     -260.37196      13683.197      14886.597      8008.1722      6878.4252      2655.0421      2584.9954      9096.7475      0             -7458.3598      0              0             -183.40902      316912.95      68.178378      68.178378      68.178378      0.56999999    -367.58799     -250.98481     -162.54307    
    101000   50500          332.43122     -231.90095      13737.008      14808.82       7965.9601      6842.8595      2606.0617      2667.1294      9018.8377      0             -7449.1694      0              0             -183.40902      316912.95      68.178378      68.178378      68.178378      0.56999999    -695.88002      162.03771     -161.86053    
    102000   51000          332.05896     -444.56125      12887.159      14941.854      7957.0399      6984.8143      2607.0767      2758.6906      9033.65        0             -7414.6031      0              0             -183.40902      316912.95      68.178378      68.178378      68.178378      0.56999999    -487.43498     -578.70509     -267.54367    
    103000   51500          341.94225     -212.41485      14168.298      15150.047      8193.8705      6956.1769      2637.1102      2660.3571      9073.8877      0             -7415.178       0              0             -183.40902      316912.95      68.178378      68.178378      68.178378      0.56999999    -238.23496     -116.88955     -282.12003    
    104000   52000          337.42602     -110.97744      14484.275      14997.196      8085.6493      6911.5468      2686.2119      2608.8116      9060.965       0             -7444.4417      0              0             -183.40902      316912.95      68.178378      68.178378      68.178378      0.56999999    -332.07153     -185.6407       184.77991    
    105000   52500          335.98907     -104.90812      14609.559      15094.429      8051.2161      7043.213       2677.7009      2637.5216      9131.0889      0             -7403.0984      0              0             -183.40902      316912.95      68.178378      68.178378      68.178378      0.56999999    -244.15747     -119.04824      48.481351    
    106000   53000          333.86844     -413.30845      13071.8        14982.049      8000.4         6981.6493      2663.9618      2626.7176      9105.5082      0             -7414.5384      0              0             -183.40902      316912.95      68.178378      68.178378      68.178378      0.56999999    -339.73584     -512.19604     -387.99346    
    107000   53500          339.69303     -98.207029      14665.255      15119.153      8139.9729      6979.18        2632.851       2655.5377      9091.7173      0             -7400.926       0              0             -183.40902      316912.95      68.178378      68.178378      68.178378      0.56999999    -223.27977      127.84988     -199.1912     
    108000   54000          337.76403     -450.90818      13034.106      15118.137      8093.749       7024.3876      2645.7754      2724.252       9060.888       0             -7406.5278      0              0             -183.40902      316912.95      68.178378      68.178378      68.178378      0.56999999    -364.86056     -230.57128     -757.29271    
    109000   54500          343.55425      70.456559      15681.865      15356.225      8232.4983      7123.7271      2695.5301      2687.3104      9122.9495      0             -7382.0629      0              0             -183.40902      316912.95      68.178378      68.178378      68.178378      0.56999999     330.35747      80.724466     -199.71226    
    110000   55000          342.9529      -257.7792       14031.489      15222.906      8218.0884      7004.8176      2639.3487      2646.4765      9060.9332      0             -7341.9408      0              0             -183.40902      316912.95      68.178378      68.178378      68.178378      0.56999999     16.444051     -249.7828      -539.99885    
    111000   55500          341.48099     -288.14978      13965.653      15297.438      8182.8175      7114.6208      2676.7403      2644.779       9104.3213      0             -7311.2199      0              0             -183.40902      316912.95      68.178378      68.178378      68.178378      0.56999999    -470.18138     -110.92022     -283.34774    
    112000   56000          341.81598     -560.19791      12738.457      15327.608      8190.8448      7136.7632      2678.999       2693.7385      9107.6823      0             -7343.6567      0              0             -183.40902      316912.95      68.178378      68.178378      68.178378      0.56999999    -553.31483     -507.49751     -619.78139    
    113000   56500          342.86681     -472.17219      13107.547      15289.856      8216.0255      7073.8303      2665.7606      2734.0828      9065.5629      0             -7391.576       0              0             -183.40902      316912.95      68.178378      68.178378      68.178378      0.56999999    -847.39621     -343.49822     -225.62213    
    114000   57000          341.76957     -599.62797      12450.904      15222.295      8189.7325      7032.5623      2628.3125      2746.0584      9054.9926      0             -7396.8012      0              0             -183.40902      316912.95      68.178378      68.178378      68.178378      0.56999999    -1070.7479     -125.33197     -602.80404    
    115000   57500          339.08439     -408.84436      13193.473      15083.09       8125.3883      6957.7017      2696.7033      2631.9337      9064.395       0             -7435.3302      0              0             -183.40902      316912.95      68.178378      68.178378      68.178378      0.56999999    -614.31475     -338.47612     -273.74222    
    116000   58000          336.64596     -156.82336      14403.633      15128.447      8066.9568      7061.4902      2720.965       2696.1614      9071.0612      0             -7426.6975      0              0             -183.40902      316912.95      68.178378      68.178378      68.178378      0.56999999    -296.33056      49.160266     -223.29979    
    117000   58500          345.78223     -123.7606       14972.161      15544.164      8285.8868      7258.2774      2740.7329      2762.6323      9123.1278      0             -7368.2156      0              0             -183.40902      316912.95      68.178378      68.178378      68.178378      0.56999999    -178.4546       153.3571      -346.18429    
    118000   59000          344.10802     -285.0978       14143.491      15461.17       8245.7682      7215.4022      2781.7263      2720.4397      9107.7976      0             -7394.5615      0              0             -183.40902      316912.95      68.178378      68.178378      68.178378      0.56999999    -299.39274     -343.80256     -212.0981     
    119000   59500          335.20933     -605.92268      12408.991      15209.475      8032.5314      7176.9433      2789.3265      2703.4177      9103.9919      0             -7419.7928      0              0             -183.40902      316912.95      68.178378      68.178378      68.178378      0.56999999    -516.09044     -951.51335     -350.16426    
    120000   60000          342.44797     -49.494132      15197.725      15426.479      8205.9889      7220.4905      2788.268       2711.1631      9121.9135      0             -7400.8541      0              0             -183.40902      316912.95      68.178378      68.178378      68.178378      0.56999999    -272.27871     -103.08446      226.88077    
    121000   60500          349.39962     -281.20605      14266.828      15566.52       8372.5695      7193.9507      2707.1195      2751.1763      9121.8858      0             -7386.2309      0              0             -183.40902      316912.95      68.178378      68.178378      68.178378      0.56999999     101.89679     -464.60082     -480.91414    
    122000   61000          341.3937      -306.38945      13878.59       15294.676      8180.7257      7113.9502      2737.5748      2696.0215      9097.7954      0             -7417.4416      0              0             -183.40902      316912.95      68.178378      68.178378      68.178378      0.56999999    -386.03798     -356.04421     -177.08617    
    123000   61500          346.40001     -565.73853      12896.433      15511.192      8300.6906      7210.5011      2746.3791      2801.904       9053.5064      0             -7391.2884      0              0             -183.40902      316912.95      68.178378      68.178378      68.178378      0.56999999    -911.4245      -501.8764      -283.91471    
    124000   62000          343.09552      45.222085      15518.739      15309.729      8221.5061      7088.2229      2735.925       2764.1952      9019.1093      0             -7431.0067      0              0             -183.40902      316912.95      68.178378      68.178378      68.178378      0.56999999     270.75085     -59.568698     -75.515901    
    125000   62500          349.65081     -210.33164      14575.596      15547.718      8378.5887      7169.1289      2734.4409      2771.4042      9060.4874      0             -7397.2037      0              0             -183.40902      316912.95      68.178378      68.178378      68.178378      0.56999999     243.32935     -414.89635     -459.42792    
    126000   63000          344.09373     -506.13234      13035.517      15374.785      8245.4259      7129.3591      2760.7981      2746.1677      8996.7819      0             -7374.3885      0              0             -183.40902      316912.95      68.178378      68.178378      68.178378      0.56999999    -552.42825     -791.92503     -174.04375    
    127000   63500          355.8275      -114.32252      15050.661      15579.042      8526.599       7052.4432      2729.1112      2656.1528      9084.0064      0             -7416.8272      0              0             -183.40902      316912.95      68.178378      68.178378      68.178378      0.56999999    -161.62157     -155.04481     -26.301193    
    128000   64000          344.35296     -284.46633      14024.737      15339.497      8251.6377      7087.8598      2681.4073      2671.2876      9125.7613      0             -7390.5963      0              0             -183.40902      316912.95      68.178378      68.178378      68.178378      0.56999999    -510.68356     -384.93683      42.221414    
    129000   64500          348.38708     -504.56572      13291.378      15623.405      8348.3062      7275.0988      2790.2034      2742.9773      9132.9684      0             -7391.0503      0              0             -183.40902      316912.95      68.178378      68.178378      68.178378      0.56999999    -619.52522     -430.18233     -463.98963    
    130000   65000          348.56366     -321.05502      14098.026      15581.894      8352.5375      7229.3566      2777.716       2760.3582      9135.5362      0             -7444.2537      0              0             -183.40902      316912.95      68.178378      68.178378      68.178378      0.56999999     30.747114     -690.76324     -303.14894    
    131000   65500          344.60022     -54.799732      15265.72       15518.996      8257.5628      7261.4332      2788.4173      2699.4415      9132.1261      0             -7358.5517      0              0             -183.40902      316912.95      68.178378      68.178378      68.178378      0.56999999    -17.618756     -215.43444      68.653999    
    132000   66000          346.60325     -20.887178      15492.621      15589.158      8305.5608      7283.5971      2785.371       2748.1583      9099.8747      0             -7349.807       0              0             -183.40902      316912.95      68.178378      68.178378      68.178378      0.56999999     92.610338     -262.1131       106.84123    
    133000   66500          350.40791      41.557298      15797.795      15605.723      8396.7309      7208.9923      2738.7501      2725.3792      9145.8642      0             -7401.0012      0              0             -183.40902      316912.95      68.178378      68.178378      68.178378      0.56999999     239.56628     -220.14626      105.25187    
    134000   67000          347.38928      230.73684      16594.636      15528.205      8324.3962      7203.8084      2758.2246      2697.049       9111.5203      0             -7362.9856      0              0             -183.40902      316912.95      68.178378      68.178378      68.178378      0.56999999     80.956423      377.64647      233.60763    
    135000   67500          349.90341     -36.302724      15514.082      15681.868      8384.6417      7297.2261      2749.7991      2695.2564      9180.4769      0             -7328.3063      0              0             -183.40902      316912.95      68.178378      68.178378      68.178378      0.56999999    -317.42804      102.65667      105.86319    
    136000   68000          346.45275      97.56611       16068.676      15617.74       8301.9545      7315.7853      2697.9085      2743.9465      9139.5978      0             -7265.6676      0              0             -183.40902      316912.95      68.178378      68.178378      68.178378      0.56999999     349.80997     -19.43306      -37.678583    
    137000   68500          349.00038     -684.39059      12519.45       15682.601      8363.0025      7319.598       2735.7913      2729.5912      9154.846       0             -7300.6305      0              0             -183.40902      316912.95      68.178378      68.178378      68.178378      0.56999999    -659.50857     -854.43545     -539.22775    
    138000   69000          344.16657     -364.08906      13879.195      15561.96       8247.1714      7314.7891      2747.6589      2764.6396      9124.6287      0             -7322.1381      0              0             -183.40902      316912.95      68.178378      68.178378      68.178378      0.56999999    -410.44391     -224.01405     -457.80923    
    139000   69500          350.12273     -320.1369       14269.07       15748.694      8389.8971      7358.7973      2764.1559      2761.4331      9178.4126      0             -7345.2043      0              0             -183.40902      316912.95      68.178378      68.178378      68.178378      0.56999999    -521.52165     -342.898       -95.991056    
    140000   70000          356.28719     -50.605861      15651.413      15885.306      8537.6144      7347.6911      2775.4956      2766.7422      9194.6639      0             -7389.2106      0              0             -183.40902      316912.95      68.178378      68.178378      68.178378      0.56999999     28.401695     -193.00528      12.786       
    141000   70500          350.01736     -316.33531      14300.662      15762.717      8387.3723      7375.3446      2822.5799      2766.0937      9158.944       0             -7372.273       0              0             -183.40902      316912.95      68.178378      68.178378      68.178378      0.56999999    -186.02504     -430.47213     -332.50877    
    142000   71000          348.29529     -424.92293      13682.033      15645.964      8346.1067      7299.8569      2766.2325      2770.9358      9140.5888      0             -7377.9002      0              0             -183.40902      316912.95      68.178378      68.178378      68.178378      0.56999999    -626.99603     -313.69562     -334.07714    
    143000   71500          353.73865     -266.23294      14761.435      15991.924      8476.5445      7515.3794      2876.1495      2816.8967      9173.5231      0             -7351.19        0              0             -183.40902      316912.95      68.178378      68.178378      68.178378      0.56999999    -304.01933     -304.742       -189.93748    
    144000   72000          351.84505     -247.13283      14660.065      15802.276      8431.1685      7371.1071      2834.655       2795.8213      9134.2583      0             -7393.6274      0              0             -183.40902      316912.95      68.178378      68.178378      68.178378      0.56999999    -319.15426     -40.655456     -381.58877    
    145000   72500          352.5296      -177.29683      15102.576      15922.015      8447.5724      7474.4426      2850.1818      2752.2508      9234.7094      0             -7362.6994      0              0             -183.40902      316912.95      68.178378      68.178378      68.178378      0.56999999    -350.29972      304.22054     -485.8113     
    146000   73000          350.09702     -245.20806      14655.582      15788.897      8389.281       7399.616       2787.6871      2781.8789      9201.3177      0             -7371.2677      0              0             -183.40902      316912.95      68.178378      68.178378      68.178378      0.56999999    -67.167119     -514.64267     -153.81439    
    147000   73500          351.03397     -444.60762      13709.165      15764.075      8411.733       7352.3418      2774.9093      2732.8701      9229.7092      0             -7385.1468      0              0             -183.40902      316912.95      68.178378      68.178378      68.178378      0.56999999    -442.23383     -639.50182     -252.08722    
    148000   74000          351.86704     -244.15854      14703.429      15831.893      8431.6955      7400.1977      2780.1052      2770.7324      9202.9029      0             -7353.5429      0              0             -183.40902      316912.95      68.178378      68.178378      68.178378      0.56999999    -173.64805     -405.96592     -152.86166    
    149000   74500          354.49087     -558.44994      13361.184      15942.256      8494.5698      7447.686       2812.8096      2798.0393      9196.1678      0             -7359.3306      0              0             -183.40902      316912.95      68.178378      68.178378      68.178378      0.56999999    -540.36852     -673.38609     -461.5952     
    150000   75000          355.38026     -386.41542      14034.972      15820.926      8515.8818      7305.0445      2753.3803      2751.0144      9163.4265      0             -7362.7767      0              0             -183.40902      316912.95      68.178378      68.178378      68.178378      0.56999999    -323.2953      -580.88199     -255.06897    
    151000   75500          354.58711     -253.17171      14788.749      15958.871      8496.8758      7461.9949      2881.931       2770.845       9192.6972      0             -7383.4783      0              0             -183.40902      316912.95      68.178378      68.178378      68.178378      0.56999999    -252.37408      12.51771      -519.65876    
    152000   76000          356.42219     -715.04505      12819.234      16124.066      8540.8494      7583.2161      2907.5506      2796.6575      9219.4871      0             -7340.479       0              0             -183.40902      316912.95      68.178378      68.178378      68.178378      0.56999999    -910.33909     -374.90058     -859.89546    
    153000   76500          357.26061     -529.26573      13560.481      16006.667      8560.9403      7445.7272      2847.7835      2778.5963      9165.8996      0             -7346.5522      0              0             -183.40902      316912.95      68.178378      68.178378      68.178378      0.56999999    -630.24063     -650.74195     -306.8146     
    154000   77000          351.93974     -633.11697      12889.218      15815.39       8433.4376      7381.9526      2831.3379      2765.8053      9130.2389      0             -7345.4295      0              0             -183.40902      316912.95      68.178378      68.178378      68.178378      0.56999999    -690.3462      -457.58394     -751.42077    
    155000   77500          356.35933     -341.26632      14422.651      15999.933      8539.3432      7460.5898      2798.6241      2839.8308      9155.1054      0             -7332.9705      0              0             -183.40902      316912.95      68.178378      68.178378      68.178378      0.56999999    -419.14531     -235.18838     -369.46527    
    156000   78000          354.81007     -74.449723      15583.508      15927.604      8502.2187      7425.3852      2868.0307      2754.934       9145.7436      0             -7343.323       0              0             -183.40902      316912.95      68.178378      68.178378      68.178378      0.56999999    -305.60869      15.391908      66.867611    
    157000   78500          360.13667     -280.00121      14669.368      15963.491      8629.8586      7333.6327      2814.3558      2755.4311      9143.682       0             -7379.8362      0              0             -183.40902      316912.95      68.178378      68.178378      68.178378      0.56999999    -296.33863     -149.75747     -393.90753    
    158000   79000          357.87987     -287.69384      14545.273      15874.951      8575.7793      7299.1718      2792.7779      2793.549       9145.2044      0             -7432.3596      0              0             -183.40902      316912.95      68.178378      68.178378      68.178378      0.56999999    -467.66542     -371.53181     -23.884288    
    159000   79500          352.94634     -63.954566      15485.181      15780.77       8457.5586      7323.2112      2813.8653      2760.0058      9123.3682      0             -7374.028       0              0             -183.40902      316912.95      68.178378      68.178378      68.178378      0.56999999    -456.00764      210.17216      53.971787    
    160000   80000          356.9301      -224.41226      14898.518      15935.718      8553.0203      7382.6978      2820.537       2758.361       9221.2074      0             -7417.4076      0              0             -183.40902      316912.95      68.178378      68.178378      68.178378      0.56999999    -125.63914     -128.41952     -419.17813    
    161000   80500          361.76071     -103.4451       15562.781      16040.889      8668.775       7372.1139      2772.5737      2830.0835      9212.3247      0             -7442.8681      0              0             -183.40902      316912.95      68.178378      68.178378      68.178378      0.56999999    -553.69675      60.733347      182.6281     
    162000   81000          360.87024     -506.66138      13584.234      15925.947      8647.4368      7278.5102      2759.8876      2805.1898      9138.1275      0             -7424.6946      0              0             -183.40902      316912.95      68.178378      68.178378      68.178378      0.56999999    -674.63445     -605.12302     -240.22668    
    163000   81500          362.76495     -128.18264      15503.186      16095.627      8692.8392      7402.7875      2834.1857      2803.9899      9203.785       0             -7439.1732      0              0             -183.40902      316912.95      68.178378      68.178378      68.178378      0.56999999    -309.2548      -258.29964      183.00653    
    164000   82000          360.54943     -641.88198      13061.534      16028.216      8639.7493      7388.467       2782.339       2847.6088      9202.1927      0             -7443.6735      0              0             -183.40902      316912.95      68.178378      68.178378      68.178378      0.56999999    -678.63283     -376.04277     -870.97035    
    165000   82500          358.03299     -244.11921      14975.474      16103.757      8579.4485      7524.3082      2821.512       2873.3449      9237.1217      0             -7407.6705      0              0             -183.40902      316912.95      68.178378      68.178378      68.178378      0.56999999    -96.633266     -195.84689     -439.87748    
    166000   83000          358.28779     -644.09781      13025.289      16002.212      8585.5542      7416.6581      2823.9703      2827.5807      9180.6896      0             -7415.5825      0              0             -183.40902      316912.95      68.178378      68.178378      68.178378      0.56999999    -660.71554     -380.25048     -891.32741    
    167000   83500          366.21397     -223.55454      15159.242      16192.477      8775.4871      7416.9902      2856.6598      2797.9137      9181.4965      0             -7419.0797      0              0             -183.40902      316912.95      68.178378      68.178378      68.178378      0.56999999    -189.36514      113.72596     -595.02445    
    168000   84000          357.007       -431.56519      13980.384      15975.014      8554.8631      7420.1506      2800.9618      2870.2457      9180.9954      0             -7432.0523      0              0             -183.40902      316912.95      68.178378      68.178378      68.178378      0.56999999    -458.94489     -96.128224     -739.62247    
    169000   84500          361.10021     -167.06318      15489.831      16261.972      8652.9475      7609.0243      2885.8114      2853.3142      9291.8137      0             -7421.915       0              0             -183.40902      316912.95      68.178378      68.178378      68.178378      0.56999999    -157.64987     -63.907859     -279.63181    
    170000   85000          360.24884     -127.86312      15479.343      16070.307      8632.5465      7437.7605      2778.3392      2839.1426      9224.6827      0             -7404.4039      0              0             -183.40902      316912.95      68.178378      68.178378      68.178378      0.56999999    -295.4019       55.005333     -143.1928     
    171000   85500          364.4793      -82.72965       15816.055      16198.419      8733.9197      7464.4997      2836.12        2922.1714      9177.1269      0             -7470.9186      0              0             -183.40902      316912.95      68.178378      68.178378      68.178378      0.56999999    -253.32782     -115.53621      120.67507    
    172000   86000          355.02736     -159.79998      15242.088      15980.66       8507.4255      7473.2344      2839.047       2843.736       9214.9377      0             -7424.4863      0              0             -183.40902      316912.95      68.178378      68.178378      68.178378      0.56999999    -146.06609     -11.691898     -321.64194    
    173000   86500          362.01574     -248.25317      15079.798      16227.187      8674.8861      7552.3008      2952.826       2856.9188      9183.5122      0             -7440.9562      0              0             -183.40902      316912.95      68.178378      68.178378      68.178378      0.56999999    -324.13437     -301.68935     -118.9358     
    174000   87000          362.13076     -306.74377      14946.398      16364.122      8677.6423      7686.4792      2917.4631      2872.9229      9306.0166      0             -7409.9234      0              0             -183.40902      316912.95      68.178378      68.178378      68.178378      0.56999999    -266.36268     -197.25311     -456.61552    
    175000   87500          365.82808      160.39691      17221.531      16480.2        8766.2403      7713.9602      2899.426       2880.3108      9322.0436      0             -7387.8202      0              0             -183.40902      316912.95      68.178378      68.178378      68.178378      0.56999999     164.51491      77.6722        239.00362    
    176000   88000          358.80754     -1.9394471      16124.673      16133.637      8598.009       7535.6277      2924.3648      2815.0541      9209.4229      0             -7413.2141      0              0             -183.40902      316912.95      68.178378      68.178378      68.178378      0.56999999    -295.91789      254.5131       35.586454    
    177000   88500          369.41087     -377.06862      14689.254      16432.009      8852.0937      7579.9153      2865.3791      2815.5069      9239.2559      0             -7340.2266      0              0             -183.40902      316912.95      68.178378      68.178378      68.178378      0.56999999    -945.26767     -52.533633     -133.40455    
    178000   89000          364.28847     -181.75429      15541.364      16381.406      8729.347       7652.0587      2889.4072      2795.6093      9291.3327      0             -7324.2906      0              0             -183.40902      316912.95      68.178378      68.178378      68.178378      0.56999999    -245.20867     -466.07921      166.025      
    179000   89500          366.23925     -120.5104       16031.867      16588.848      8776.0929      7812.7551      2928.7085      2966.3311      9276.8601      0             -7359.1445      0              0             -183.40902      316912.95      68.178378      68.178378      68.178378      0.56999999    -32.280557     -261.06481     -68.185834    
    180000   90000          370.9977      -370.29717      14830.727      16542.185      8890.1184      7652.0666      2940.7339      2828.8329      9208.6346      0             -7326.1349      0              0             -183.40902      316912.95      68.178378      68.178378      68.178378      0.56999999    -25.644437     -561.73077     -523.5163     
    181000   90500          363.6103      -354.88683      14907.507      16547.741      8713.0961      7834.6446      3008.0753      2902.2384      9236.7395      0             -7312.4086      0              0             -183.40902      316912.95      68.178378      68.178378      68.178378      0.56999999    -512.6239       62.764723     -614.80131    
    182000   91000          360.51892     -609.27605      13552.56       16368.543      8639.0183      7729.5245      2929.0522      2877.8352      9257.6237      0             -7334.9866      0              0             -183.40902      316912.95      68.178378      68.178378      68.178378      0.56999999    -552.12619     -372.67689     -903.02507    
    183000   91500          368.14504     -243.11242      15549.496      16673.125      8821.761       7851.3644      2945.5626      2906.0542      9302.6632      0             -7302.9156      0              0             -183.40902      316912.95      68.178378      68.178378      68.178378      0.56999999    -267.43472      152.66053     -614.56308    
    184000   92000          364.26685     -113.57737      15881.658      16406.596      8728.829       7677.7666      2896.2709      2824.7888      9324.5876      0             -7367.8806      0              0             -183.40902      316912.95      68.178378      68.178378      68.178378      0.56999999    -142.67078     -89.852434     -108.20891    
    185000   92500          367.90638     -484.72608      14425.282      16665.613      8816.0421      7849.5709      2914.953       2977.0526      9259.2753      0             -7301.71        0              0             -183.40902      316912.95      68.178378      68.178378      68.178378      0.56999999    -500.93296     -535.2812      -417.96407    
    186000   93000          367.09857     -52.338281      16192.284      16434.184      8796.6846      7637.4992      2828.6791      2845.3231      9219.9734      0             -7256.4763      0              0             -183.40902      316912.95      68.178378      68.178378      68.178378      0.56999999     52.69766      -162.48297     -47.22953     
    187000   93500          371.83265     -431.77558      14498.342      16493.944      8910.1261      7583.8179      2884.7069      2874.5549      9156.2616      0             -7331.7055      0              0             -183.40902      316912.95      68.178378      68.178378      68.178378      0.56999999    -689.54059     -367.51145     -238.2747     
    188000   94000          371.04948      6.2654051      16760.757      16731.799      8891.3592      7840.4397      2943.1042      2865.6222      9318.3561      0             -7286.6428      0              0             -183.40902      316912.95      68.178378      68.178378      68.178378      0.56999999    -332.99642     -62.382877      414.17551    
    189000   94500          367.90059     -376.1419       14845.513      16583.985      8815.9031      7768.0817      2912.3362      2884.4602      9283.3862      0             -7312.1009      0              0             -183.40902      316912.95      68.178378      68.178378      68.178378      0.56999999    -429.34144     -298.85937     -400.22488    
    190000   95000          369.54722     -127.09821      16146.669      16734.098      8855.3611      7878.737       3027.8206      2878.9431      9287.6196      0             -7315.6463      0              0             -183.40902      316912.95      68.178378      68.178378      68.178378      0.56999999    -176.73339     -428.58687      224.02563    
    191000   95500          368.45344     -81.233768      16181.573      16557.024      8829.1511      7727.8727      2905.2041      2891.1148      9246.78        0             -7315.2262      0              0             -183.40902      316912.95      68.178378      68.178378      68.178378      0.56999999    -89.61214      -98.682147     -55.407016    
    192000   96000          365.45713     -62.393123      16337.098      16625.47       8757.3512      7868.1184      2956.0182      2939.5158      9297.296       0             -7324.7116      0              0             -183.40902      316912.95      68.178378      68.178378      68.178378      0.56999999    -427.48252      74.739994      165.56315    
    193000   96500          370.64396      57.085452      16730.88       16467.039      8881.642       7585.3973      2862.6956      2795.2467      9283.8543      0             -7356.3992      0              0             -183.40902      316912.95      68.178378      68.178378      68.178378      0.56999999    -199.06822      66.74225       303.58233    
    194000   97000          367.95572      90.984733      17214.724      16794.206      8817.2244      7976.9818      3025.2578      2959.0767      9365.8354      0             -7373.1881      0              0             -183.40902      316912.95      68.178378      68.178378      68.178378      0.56999999    -239.23969      324.56961      187.62428    
    195000   97500          365.97305     -251.05472      15395.393      16555.73       8769.7141      7786.0161      2934.491       2872.8951      9377.5543      0             -7398.9244      0              0             -183.40902      316912.95      68.178378      68.178378      68.178378      0.56999999    -436.28327     -111.31246     -205.56844    
    196000   98000          372.66212      115.4797       17289.317      16755.588      8930.0025      7825.585       2917.9373      2997.1673      9250.4193      0             -7339.9389      0              0             -183.40902      316912.95      68.178378      68.178378      68.178378      0.56999999    -7.6338806      117.61149      236.46148    
    197000   98500          368.31261      51.460598      16791.325      16553.482      8825.7764      7727.7059      2865.0066      2927.2834      9284.146       0             -7348.7302      0              0             -183.40902      316912.95      68.178378      68.178378      68.178378      0.56999999    -361.20627      246.33192      269.25615    
    198000   99000          369.34468     -61.025514      16364.391      16646.442      8850.5077      7795.9344      2954.7578      2900.1337      9289.8106      0             -7348.7677      0              0             -183.40902      316912.95      68.178378      68.178378      68.178378      0.56999999     37.23167      -201.67775     -18.630464    
    199000   99500          377.80986     -61.831632      16663.615      16949.391      9053.3565      7896.0346      3018.1936      2851.1575      9375.4793      0             -7348.7958      0              0             -183.40902      316912.95      68.178378      68.178378      68.178378      0.56999999    -257.73486     -221.24792      293.48789    
[...]
    458000   229000         466.98681     -120.14594      21355.552      21910.849      11190.28       10720.569      3695.7441      3650.9028      10023.341      0             -6649.419       0              0             -183.40902      316912.95      68.178378      68.178378      68.178378      0.56999999     227.67889     -212.43446     -375.68226    
    459000   229500         473.04896      49.752912      22306.321      22076.371      11335.545      10740.825      3716.425       3634.7009      10010.778      0             -6621.0787      0              0             -183.40902      316912.95      68.178378      68.178378      68.178378      0.56999999     369.12217     -153.74492     -66.118522    
    460000   230000         467.58605     -75.494134      21653.969      22002.892      11204.639      10798.253      3772.9774      3628.0304      10024.044      0             -6626.7986      0              0             -183.40902      316912.95      68.178378      68.178378      68.178378      0.56999999     103.98975     -153.09956     -177.3726     
    461000   230500         466.50748     -176.61793      20993.496      21809.797      11178.794      10631.004      3731.2672      3682.5613      9863.8435      0             -6646.6683      0              0             -183.40902      316912.95      68.178378      68.178378      68.178378      0.56999999     548.05772     -766.21591     -311.6956     
    462000   231000         469.40291      191.70647      22750.562      21864.523      11248.176      10616.347      3690.7733      3685.146       9866.8728      0             -6626.4452      0              0             -183.40902      316912.95      68.178378      68.178378      68.178378      0.56999999     359.21284      235.00116     -19.094591    
    463000   231500         461.75093     -175.52566      20780.844      21592.097      11064.814      10527.283      3623.7152      3588.2947      10007.695      0             -6692.4215      0              0             -183.40902      316912.95      68.178378      68.178378      68.178378      0.56999999     292.41591     -710.53592     -108.45698    
    464000   232000         463.10707     -381.79555      20093.637      21858.239      11097.311      10760.929      3713.102       3719.0624      10018.607      0             -6689.8421      0              0             -183.40902      316912.95      68.178378      68.178378      68.178378      0.56999999    -397.89713     -483.67573     -263.81379    
    465000   232500         469.09657     -56.600397      21453.731      21715.329      11240.835      10474.494      3596.4873      3612.0406      9928.9162      0             -6662.9503      0              0             -183.40902      316912.95      68.178378      68.178378      68.178378      0.56999999    -189.58427     -91.955974      111.73905    
    466000   233000         467.11031     -90.818976      21423.589      21843.34       11193.239      10650.101      3792.3021      3596.7613      9943.2314      0             -6682.1935      0              0             -183.40902      316912.95      68.178378      68.178378      68.178378      0.56999999    -197.72858      99.426623     -174.15498    
    467000   233500         461.16833     -202.47849      20915.665      21851.49       11050.853      10800.637      3789.6693      3627.1331      9994.5623      0             -6610.7278      0              0             -183.40902      316912.95      68.178378      68.178378      68.178378      0.56999999    -165.29507     -218.55845     -223.58195    
    468000   234000         466.47626     -148.36377      21152.462      21838.177      11178.046      10660.131      3655.8924      3654.0542      10059.087      0             -6708.9026      0              0             -183.40902      316912.95      68.178378      68.178378      68.178378      0.56999999    -261.60373     -74.399387     -109.08819    
    469000   234500         470.01786      283.6759       23384.587      22073.479      11262.912      10810.567      3735.9669      3644.5993      10048.861      0             -6618.86        0              0             -183.40902      316912.95      68.178378      68.178378      68.178378      0.56999999     382.14485      522.60387     -53.721023    
    470000   235000         467.94056     -507.17387      19641.803      21985.885      11213.134      10772.751      3641.9662      3720.5229      10022.008      0             -6611.7464      0              0             -183.40902      316912.95      68.178378      68.178378      68.178378      0.56999999    -808.42246     -566.51207     -146.5871     
    471000   235500         467.10517     -614.64615      19182.696      22023.498      11193.116      10830.382      3738.4914      3601.3842      10089.908      0             -6599.4014      0              0             -183.40902      316912.95      68.178378      68.178378      68.178378      0.56999999    -948.56843     -476.96572     -418.4043     
    472000   236000         471.29457     -638.38221      19342.047      22292.554      11293.506      10999.049      3826.4365      3738.1298      10018.484      0             -6584.0016      0              0             -183.40902      316912.95      68.178378      68.178378      68.178378      0.56999999    -704.29175     -331.18402     -879.67086    
    473000   236500         477.62372     -443.09392      20152.572      22200.486      11445.169      10755.317      3693.5522      3608.4956      9986.5927      0             -6533.3237      0              0             -183.40902      316912.95      68.178378      68.178378      68.178378      0.56999999    -614.37873     -48.914571     -665.98847    
    474000   237000         471.9534      -61.365906      21963.024      22246.648      11309.293      10937.355      3773.1793      3642.4725      10078.498      0             -6556.7955      0              0             -183.40902      316912.95      68.178378      68.178378      68.178378      0.56999999    -242.20908      44.046717      14.064642    
    475000   237500         473.06004     -99.058233      21790.44       22248.273      11335.811      10912.462      3719.1466      3728.0877      10013.182      0             -6547.9548      0              0             -183.40902      316912.95      68.178378      68.178378      68.178378      0.56999999    -467.17932     -98.057514      268.06214    
    476000   238000         471.60939     -478.561        20116.049      22327.887      11301.049      11026.837      3761.8128      3692.8284      10098.232      0             -6526.0363      0              0             -183.40902      316912.95      68.178378      68.178378      68.178378      0.56999999    -608.02541     -557.95919     -269.69839    
    477000   238500         470.91353     -16.193447      22208.906      22283.75       11284.375      10999.375      3766.7884      3807.4743      10060.064      0             -6634.9513      0              0             -183.40902      316912.95      68.178378      68.178378      68.178378      0.56999999     294.16255      12.725134     -355.46802    
    478000   239000         472.90096     -171.81256      21407.328      22201.42       11331.999      10869.421      3738.888       3608.4046      10127.222      0             -6605.0937      0              0             -183.40902      316912.95      68.178378      68.178378      68.178378      0.56999999    -316.32656      15.228284     -214.3394     
    479000   239500         475.01619     -717.30069      19066.186      22381.442      11382.686      10998.756      3750.5689      3777.3087      10056.506      0             -6585.6268      0              0             -183.40902      316912.95      68.178378      68.178378      68.178378      0.56999999    -587.23529     -729.1879      -835.47887    
    480000   240000         469.48722     -325.71449      20683.097      22188.5        11250.196      10938.304      3775.4378      3730.6962      9975.6944      0             -6543.5242      0              0             -183.40902      316912.95      68.178378      68.178378      68.178378      0.56999999    -483.17386     -170.22914     -323.74049    
    481000   240500         480.56158     -127.63156      22098.55       22688.444      11515.568      11172.876      3836.124       3826.697       10083.709      0             -6573.6538      0              0             -183.40902      316912.95      68.178378      68.178378      68.178378      0.56999999    -323.55327     -172.41844      113.07703    
    482000   241000         475.84127      315.86586      23652.43       22192.545      11402.457      10790.088      3700.8607      3660.8228      9992.572       0             -6564.1676      0              0             -183.40902      316912.95      68.178378      68.178378      68.178378      0.56999999     209.05232      768.27461     -29.729341    
    483000   241500         465.88897     -238.86197      21116.844      22220.828      11163.973      11056.855      3748.0469      3727.0931      10140.779      0             -6559.0638      0              0             -183.40902      316912.95      68.178378      68.178378      68.178378      0.56999999    -388.17652     -101.37559     -227.0338     
    484000   242000         473.59488     -277.7963       21090.719      22374.652      11348.627      11026.024      3766.7242      3735.2776      10052.473      0             -6528.4502      0              0             -183.40902      316912.95      68.178378      68.178378      68.178378      0.56999999    -480.51218     -257.91066     -94.966044    
    485000   242500         466.2405      -465.84221      20037.228      22190.281      11172.396      11017.884      3764.1121      3726.6091      10042.631      0             -6515.4672      0              0             -183.40902      316912.95      68.178378      68.178378      68.178378      0.56999999    -300.97487     -341.16088     -755.39088    
    486000   243000         475.17693     -484.31146      20268.434      22506.85       11386.537      11120.312      3790.029       3788.9966      10010.29       0             -6469.003       0              0             -183.40902      316912.95      68.178378      68.178378      68.178378      0.56999999    -359.72743     -683.78603     -409.42092    
    487000   243500         466.8433      -317.34519      20630.721      22097.443      11186.841      10910.602      3745.4156      3693.5795      9953.6079      0             -6482.0007      0              0             -183.40902      316912.95      68.178378      68.178378      68.178378      0.56999999    -386.44615     -104.18598     -461.40344    
    488000   244000         474.47933      241.23192      23573.408      22458.471      11369.821      11088.649      3800.1956      3798.8247      9994.498       0             -6504.8689      0              0             -183.40902      316912.95      68.178378      68.178378      68.178378      0.56999999     150.90274      381.24393      191.54908    
    489000   244500         469.97796     -167.23134      21526.533      22299.451      11261.956      11037.495      3779.2909      3692.6074      10019.251      0             -6453.6535      0              0             -183.40902      316912.95      68.178378      68.178378      68.178378      0.56999999    -260.17228      24.983835     -266.50558    
    490000   245000         472.53524     -237.97318      21295.347      22395.224      11323.235      11071.988      3763.947       3793.4993      10006.41       0             -6491.8683      0              0             -183.40902      316912.95      68.178378      68.178378      68.178378      0.56999999    -270.09126      266.68865     -710.51693    
    491000   245500         480.55411      120.6898       23165.143      22607.332      11515.389      11091.943      3795.6666      3771.83        9980.4723      0             -6456.0259      0              0             -183.40902      316912.95      68.178378      68.178378      68.178378      0.56999999     541.98014     -298.9921       119.08137    
    492000   246000         468.55896      179.16385      23122.312      22294.243      11227.953      11066.29       3825.7265      3752.4514      10001.389      0             -6513.2761      0              0             -183.40902      316912.95      68.178378      68.178378      68.178378      0.56999999    -98.944959      292.35727      344.07923    
    493000   246500         484.41042      45.07661       22831.203      22622.866      11607.797      11015.069      3755.6917      3706.8046      10061.558      0             -6508.9853      0              0             -183.40902      316912.95      68.178378      68.178378      68.178378      0.56999999     231.68026      29.504911     -125.95534    
    494000   247000         477.82072      56.988092      22918.849      22655.458      11449.89       11205.569      3818.9076      3876.9047      10018.494      0             -6508.7381      0              0             -183.40902      316912.95      68.178378      68.178378      68.178378      0.56999999    -449.43847      358.73501      261.66774    
    495000   247500         478.83982      218.19031      23391.264      22382.821      11474.31       10908.511      3722.3218      3769.4825      10001.361      0             -6584.6548      0              0             -183.40902      316912.95      68.178378      68.178378      68.178378      0.56999999     409.34568      253.51107     -8.2858273    
    496000   248000         481.9404      -112.74479      22178.78       22699.869      11548.609      11151.261      3841.6722      3848.7757      10011.549      0             -6550.7362      0              0             -183.40902      316912.95      68.178378      68.178378      68.178378      0.56999999    -23.294889     -706.33615      391.39667    
    497000   248500         487.21195     -7.2258796      22671.019      22704.416      11674.929      11029.486      3738.1985      3746.0369      10076.288      0             -6531.0373      0              0             -183.40902      316912.95      68.178378      68.178378      68.178378      0.56999999    -278.4061       300.04342     -43.314957    
    498000   249000         473.98859     -161.40991      21773.071      22519.083      11358.061      11161.022      3796.5643      3848.1528      10083.879      0             -6567.5741      0              0             -183.40902      316912.95      68.178378      68.178378      68.178378      0.56999999    -194.62923     -562.60157      273.00108    
    499000   249500         475.68915     -139.48188      21794.443      22439.107      11398.812      11040.296      3819.8412      3812.1646      9993.876       0             -6585.5859      0              0             -183.40902      316912.95      68.178378      68.178378      68.178378      0.56999999    -558.4301      -174.30519      314.28965    
    500000   250000         474.94692     -627.46367      19500.138      22400.181      11381.026      11019.155      3811.8989      3660.3028      10122.259      0             -6575.3053      0              0             -183.40902      316912.95      68.178378      68.178378      68.178378      0.56999999    -337.97637     -738.85275     -805.56189    
Loop time of 667.639 on 1 procs for 500000 steps with 8040 atoms

Performance: 32.353 ns/day, 0.742 hours/ns, 748.908 timesteps/s, 6.021 Matom-step/s
99.5% CPU use with 1 MPI tasks x 1 OpenMP threads

MPI task timing breakdown:
Section |  min time  |  avg time  |  max time  |%varavg| %total
---------------------------------------------------------------
Pair    | 57.26      | 57.26      | 57.26      |   0.0 |  8.58
Bond    | 495.37     | 495.37     | 495.37     |   0.0 | 74.20
Neigh   | 0.081131   | 0.081131   | 0.081131   |   0.0 |  0.01
Comm    | 46.494     | 46.494     | 46.494     |   0.0 |  6.96
Output  | 7.7865     | 7.7865     | 7.7865     |   0.0 |  1.17
Modify  | 38.77      | 38.77      | 38.77      |   0.0 |  5.81
Other   |            | 21.88      |            |       |  3.28

Nlocal:           8040 ave        8040 max        8040 min
Histogram: 1 0 0 0 0 0 0 0 0 0
Nghost:          21017 ave       21017 max       21017 min
Histogram: 1 0 0 0 0 0 0 0 0 0
Neighs:              0 ave           0 max           0 min
Histogram: 1 0 0 0 0 0 0 0 0 0

Total # of neighbors = 0
Ave neighs/atom = 0
Ave special neighs/atom = 5.9701493
Neighbor list builds = 3967
Dangerous builds = 0

# --- Cleanup ---
unfix nvt_fix

undump dump_nvt

# --- Write Output ---
write_dump all custom nvt_softheat_last.dump id type mol x y z xu yu zu vx vy vz modify sort id
write_data /home/arz2/PolyJarvis/data/cis-PBD2/lammps/equil/nvt_softheat/nvt_softheat_out.data
System init for write_data ...
Generated 3 of 3 mixed pair_coeff terms from arithmetic mixing rule

print "STAGE COMPLETE: NVT T=300.0->480.0K steps=500000"
STAGE COMPLETE: NVT T=300.0->480.0K steps=500000
quit
4.20
Neigh   | 0.081131   | 0.081131   | 0.081131   |   0.0 |  0.01
Comm    | 46.494     | 46.494     | 46.494     |   0.0 |  6.96
Output  | 7.7865     | 7.7865     | 7.7865     |   0.0 |  1.17
Modify  | 38.77      | 38.77      | 38.77      |   0.0 |  5.81
Other   |            | 21.88      |            |       |  3.28

Nlocal:           8040 ave        8040 max        8040 min
Histogram: 1 0 0 0 0 0 0 0 0 0
Nghost:          21017 ave       21017 max       21017 min
Histogram: 1 0 0 0 0 0 0 0 0 0
Neighs:              0 ave           0 max           0 min
Histogram: 1 0 0 0 0 0 0 0 0 0

Total # of neighbors = 0
Ave neighs/atom = 0
Ave special neighs/atom = 5.9701493
Neighbor list builds = 3967
Dangerous builds = 0
System init for write_data ...


---------------------------------------------------------------------
      Device Time Info (average): 
---------------------------------------------------------------------
Data Transfer:   44.6395 s.
Neighbor copy:   0.6220 s.
Neighbor build:  2.4461 s.
Force calc:      104.4314 s.
Device Overhead: 13.0528 s.
CPU Neighbor:    0.9491 s.
CPU Cast/Pack:   36.8437 s.
CPU Driver_Time: 10.0553 s.
CPU Idle_Time:   0.8158 s.
Average split:   1.0000.
Max Mem / Proc:  62.26 MB.
Prefetch mode:   None.
Vector width:    32.
Lanes / atom:    4.
Pair block:      256.
Neigh block:     128.
Neigh mode:      Hybrid (binning on host) with subgroup support.
Neigh sorting:   Unavailable or disabled.
---------------------------------------------------------------------


--------------------------------------------------------------------------
- Using acceleration for lj/cut:
-  with 1 proc(s) per device.
-  with 1 thread(s) per proc.
-  Horizontal vector operations: ENABLED
-  Shared memory system: No
--------------------------------------------------------------------------
Device 0: Quadro RTX 6000, 72 CUs, 23/24 GB, 1.8 GHZ (Mixed Precision)
--------------------------------------------------------------------------

Initializing Device and compiling on process 0...Done.
Initializing Device 0 on core 0...Done.

Generated 3 of 3 mixed pair_coeff terms from arithmetic mixing rule
STAGE COMPLETE: NVT T=300.0->480.0K steps=500000
Cuda driver error 4 in call at file '/home/arz2/lammps/lib/gpu/geryon/nvd_timer.h' in line 98.
Cuda driver error 4 in call at file '/home/arz2/lammps/lib/gpu/geryon/nvd_timer.h' in line 99.
Cuda driver error 4 in call at file '/home/arz2/lammps/lib/gpu/geryon/nvd_timer.h' in line 98.
Cuda driver error 4 in call at file '/home/arz2/lammps/lib/gpu/geryon/nvd_timer.h' in line 99.
Cuda driver error 4 in call at file '/home/arz2/lammps/lib/gpu/geryon/nvd_timer.h' in line 98.
Cuda driver error 4 in call at file '/home/arz2/lammps/lib/gpu/geryon/nvd_timer.h' in line 99.
