units real
atom_style full
boundary p p p

# --- Force Field Styles ---
pair_style lj/cut 14.0
dielectric 1.000000
bond_style harmonic
angle_style harmonic
dihedral_style multi/harmonic
improper_style none
special_bonds lj 0 0 0
pair_modify mix arithmetic tail yes
neighbor 2.0 bin
neigh_modify delay 0 every 1 check yes
neigh_modify one 4000
# GPU disabled (CPU run)

read_data /home/arz2/PolyJarvis/data/cis-PBD4/lammps/equil/npt_melt/npt_melt_out.data
Reading data file ...
  orthogonal box = (4.0962222 4.0962222 4.0962222) to (64.082155 64.082155 64.082155)
  2 by 2 by 2 MPI processor grid
  reading atoms ...
  8040 atoms
  reading velocities ...
  8040 velocities
  scanning bonds ...
  2 = max bonds/atom
  scanning angles ...
  1 = max angles/atom
  scanning dihedrals ...
  2 = max dihedrals/atom
  orthogonal box = (4.0962222 4.0962222 4.0962222) to (64.082155 64.082155 64.082155)
  2 by 2 by 2 MPI processor grid
  reading bonds ...
  8020 bonds
  reading angles ...
  8000 angles
  reading dihedrals ...
  7980 dihedrals
Finding 1-2 1-3 1-4 neighbors ...
  special bond factors lj:    0        0        0       
  special bond factors coul:  0        0        0       
     2 = max # of 1-2 neighbors
     2 = max # of 1-3 neighbors
     4 = max # of 1-4 neighbors
     6 = max # of special neighbors
  special bonds CPU = 0.001 seconds
  read_data CPU = 0.199 seconds
include /home/arz2/PolyJarvis/data/cis-PBD4/lammps/equil/emc_build.params
# LAMMPS parameters created by EMC v9.4.4, build Jul 31 2025 20:33:44

# Variables

variable	seed		index	482913
variable	ntotal		index	8040
variable	fshape		index	1
variable	output		index	emc_build
variable	field		index	trappe/2014/trappe-ua
variable	location1	index	/home/arz2/emc/field/
variable	nav		index	0.6022141179
variable	temperature	index	300
variable	radius		index	5
variable	nrelax		index	100
variable	weight_nonbond	index	0.0001
variable	weight_bond	index	0.0001
variable	weight_focus	index	1
variable	cutoff		index	14
variable	charge_cutoff	index	14
variable	kappa		index	4
variable	density1	index	0.57
variable	lprevious	index	0
variable	lphase		index	68.1783775471
variable	f_poly		index	20
variable	chem_repeat	index	*C/C=C\C*
variable	chem_cap	index	*C
variable	lg_repeat	index	4
variable	lg_cap		index	1
variable	norm_poly	index	100
variable	l_poly		index	402
variable	mg_repeat	index	54.0914
variable	mg_cap		index	15.0347
variable	m_poly		index	5439.2094
variable	n_poly		index	20
variable	mtotal		index	108784.188
variable	nphase1		index	8040
variable	mphase1		index	108784.188
variable	vphase1		index	316912.949994
variable	lbox		index	68.1783775471
variable	lphase1		index	68.1783775471
variable	lxx		index	68.1783775471
variable	lyy		index	68.1783775471
variable	lzz		index	68.1783775471
variable	lzy		index	0
variable	lzx		index	0
variable	lyx		index	0
variable	vtotal		index	316912.949994
variable	nl_poly		index	20

# Types

variable	type_c3h	index	1
variable	type_c4h2	index	2
variable	type_c4h3	index	3

variable	type_bond_c3h_c3h index	1
variable	type_bond_c3h_c4h2 index	2
variable	type_bond_c4h2_c4h2 index	3
variable	type_bond_c4h2_c4h3 index	4

variable	type_angle_c3h_c3h_c4h2 index	1
variable	type_angle_c3h_c4h2_c4h2 index	2
variable	type_angle_c3h_c4h2_c4h3 index	3

# Clusters

variable	n0_poly		index	1
variable	n1_poly		index	20
variable	nl_poly		index	20

# Flags

variable	flag_charged	index	0

# Masses

mass		1    13.01890  # c3h
mass		2    14.02680  # c4h2
mass		3    15.03470  # c4h3

# Potentials

pair_modify	mix arithmetic tail yes
special_bonds	lj 0 0 0 coul 0 0 0.5
Finding 1-2 1-3 1-4 neighbors ...
  special bond factors lj:    0        0        0       
  special bond factors coul:  0        0        0.5     
     2 = max # of 1-2 neighbors
     2 = max # of 1-3 neighbors
     4 = max # of 1-4 neighbors
     6 = max # of special neighbors
  special bonds CPU = 0.001 seconds

# Pair Coeffs

pair_coeff	1 1    0.09340    3.71000  # c3h,c3h
pair_coeff	2 2    0.09141    3.95000  # c4h2,c4h2
pair_coeff	3 3    0.19475    3.75000  # c4h3,c4h3

# Bond Coeffs

bond_coeff	1  529.99987    1.33000  # c3h,c3h
bond_coeff	2  260.00013    1.54000  # c3h,c4h2
bond_coeff	3  260.00013    1.54000  # c4h2,c4h2
bond_coeff	4  260.00013    1.54000  # c4h2,c4h3

# Angle Coeffs

angle_coeff	1   69.96954  119.70000  # c3h,c3h,c4h2
angle_coeff	2   62.10020  114.00000  # c3h,c4h2,c4h2
angle_coeff	3   62.10020  114.00000  # c3h,c4h2,c4h3

# Dihedral Coeffs

dihedral_coeff	1    1.91086    1.85422    0.43627   -2.24348    0.00000  # c3h,c3h,c4h2,c4h2
dihedral_coeff	2    1.91086    1.85422    0.43627   -2.24348    0.00000  # c3h,c3h,c4h2,c4h3
dihedral_coeff	3    2.00702   -4.01203    0.27102    6.29006    0.00000  # c3h,c4h2,c4h2,c3h
dihedral_coeff	4   25.63496    0.99360  -25.63496   -0.99360    0.00000  # c4h2,c3h,c3h,c4h2


# --- Thermo Output ---
thermo_style custom step time temp press enthalpy etotal ke pe ebond eangle edihed eimp evdwl ecoul elong etail vol lx ly lz density pxx pyy pzz
thermo_modify flush yes
thermo 1000

# --- Trajectory ---
dump dump_npt all custom 1000 npt_cool.dump id type mol x y z ix iy iz vx vy vz

# --- Restart Checkpointing ---
restart 10000 npt_1.rst npt_2.rst

# --- Initial Velocities (optional) ---
# Velocities read from data file

# --- SHAKE Constraints ---
# SHAKE disabled (TraPPE-UA united-atom)

# --- NPT Thermostat + Barostat (Nose-Hoover) ---
# T_damp = 100.0 fs  (heat bath coupling)
# P_damp = 1000.0 fs  (pressure bath coupling, ~10x T_damp typical)
# Ramp: T=400.0->300.0K  P=1.0->1.0atm
timestep 2.0
fix npt_fix all npt temp 400.0 300.0 100.0 iso 1.0 1.0 1000.0

run 2000000
Generated 3 of 3 mixed pair_coeff terms from arithmetic mixing rule
Neighbor list info ...
  update: every = 1 steps, delay = 0 steps, check = yes
  max neighbors/atom: 4000, page size: 100000
  master list distance cutoff = 16
  ghost atom cutoff = 16
  binsize = 8, bins = 8 8 8
  1 neighbor lists, perpetual/occasional/extra = 1 0 0
  (1) pair lj/cut, perpetual
      attributes: half, newton on
      pair build: half/bin/newton
      stencil: half/bin/3d
      bin: standard
Per MPI rank memory allocation (min/avg/max) = 9.201 | 9.204 | 9.207 Mbytes
   Step          Time           Temp          Press         Enthalpy        TotEng         KinEng         PotEng         E_bond        E_angle        E_dihed        E_impro         E_vdwl         E_coul         E_long         E_tail         Volume           Lx             Ly             Lz          Density          Pxx            Pyy            Pzz      
         0   0              399.31982      290.70242      18406.091      17490.982      9568.7938      7922.188       3252.2086      3177.7944      9583.2869      0             -8091.1019      0              0             -269.28516      215848.11      59.985933      59.985933      59.985933      0.83688652     595.24469     -226.9453       503.80786    
      1000   2000           399.07472      444.81585      18874.397      17468.719      9562.9205      7905.799       3278.2151      3209.1515      9528.4926      0             -8110.0602      0              0             -268.24475      216685.3       60.063387      60.063387      60.063387      0.83365313     564.00268      214.89544      555.54944    
      2000   4000           400.49255      210.39581      18103.727      17445.662      9596.8956      7848.7665      3268.9088      3177.8773      9607.3659      0             -8205.3855      0              0             -271.02241      214464.54      59.857489      59.857489      59.857489      0.84228554     102.55083      583.23847     -54.601857    
      3000   6000           398.68769      93.809193      17947.915      17648.988      9553.6463      8095.3417      3284.4813      3159.312       9683.0955      0             -8031.5472      0              0             -266.02176      218496.02      60.230228      60.230228      60.230228      0.82674449    -272.7548      -22.725662      576.90804    
      4000   8000           403.24985     -127.97753      17030.378      17434.753      9662.968       7771.7846      3261.7187      3132.9415      9491.8843      0             -8114.7599      0              0             -268.2789       216657.72      60.060838      60.060838      60.060838      0.83375925     351.0155      -496.92746     -238.02061    
      5000   10000          397.72187      32.595206      17488.131      17385.277      9530.5025      7854.774       3244.4995      3214.5132      9521.9176      0             -8126.1562      0              0             -268.63669      216369.16      60.034162      60.034162      60.034162      0.83487121    -560.13548      250.23722      407.68388    
      6000   12000          394.47672     -103.16108      17055.088      17379.489      9452.7398      7926.7493      3247.9057      3250.7502      9601.7305      0             -8173.637       0              0             -269.56916      215620.71      59.96486       59.96486       59.96486       0.83776914    -276.41125      284.87076     -317.94274    
      7000   14000          398.88699      82.828923      17565.048      17304.167      9558.422       7745.7451      3171.5939      3156.8363      9517.8701      0             -8100.5552      0              0             -269.13891      215965.41      59.996797      59.996797      59.996797      0.836432       692.11845     -406.18242     -37.449266    
      8000   16000          402.03699     -242.61718      16670.907      17429.13       9633.9046      7795.2255      3222.3242      3236.0689      9525.7681      0             -8188.9357      0              0             -271.24453      214288.91      59.841145      59.841145      59.841145      0.84297587     26.930509     -759.52876      4.7467135    
      9000   18000          400.90551     -384.63016      16039.809      17249.474      9606.7913      7642.6825      3211.5544      3150.9562      9488.4007      0             -8208.2289      0              0             -269.53485      215648.16      59.967405      59.967405      59.967405      0.83766249    -655.95903     -499.17629      1.2448374    
     10000   20000          401.42996      286.59955      18269.872      17375.221      9619.3586      7755.8621      3182.3341      3168.3944      9612.4927      0             -8207.3591      0              0             -271.55519      214043.76      59.818317      59.818317      59.818317      0.84394134     55.266262      562.57518      241.95722    
     11000   22000          401.66804     -32.03814       17541.945      17642.635      9625.0636      8017.5714      3349.5917      3211.2494      9629.8874      0             -8173.157       0              0             -269.72281      215497.89      59.953472      59.953472      59.953472      0.83824664    -516.88546     -205.28774      626.05879    
     12000   24000          395.27283      129.57123      17567.093      17160.886      9471.8169      7689.0691      3201.6092      3118.9829      9564.8958      0             -8196.4187      0              0             -270.39444      214962.61      59.903791      59.903791      59.903791      0.84033394    -135.15122     -502.76477      1026.6297    
     13000   26000          400.22697      346.35857      18417.577      17324.178      9590.5315      7733.6469      3220.0196      3165.1879      9510.9581      0             -8162.5187      0              0             -268.52461      216459.47      60.042513      60.042513      60.042513      0.83452289     469.8328       369.95397      199.28895    
     14000   28000          398.24561     -386.49173      16164.681      17385.78       9543.0527      7842.7278      3258.6398      3099.5892      9575.4872      0             -8090.9884      0              0             -268.30314      216638.14      60.059029      60.059029      60.059029      0.83383459    -203.0659      -211.26187     -745.14742    
     15000   30000          400.68106      325.0111       18448.797      17431.309      9601.4128      7829.8963      3222.6322      3130.2622      9660.3902      0             -8183.3883      0              0             -270.77313      214661.97      59.875852      59.875852      59.875852      0.84151084    -18.064072      351.67608      641.4213     
     16000   32000          404.63209      30.437511      17603.351      17507.855      9696.0903      7811.7647      3277.76        3180.7226      9494.6948      0             -8141.4126      0              0             -270.1845       215129.64      59.919303      59.919303      59.919303      0.8396815      340.85894      19.196808     -268.74322    
     17000   34000          398.41517      131.36956      17722.851      17306.905      9547.1159      7759.7894      3178.6587      3171.0604      9530.0084      0             -8119.9381      0              0             -267.72852      217103.12      60.101967      60.101967      60.101967      0.83204876     167.63644      138.45718      88.015069    
     18000   36000          396.82447      302.56356      18253.794      17297.261      9508.9984      7788.2621      3248.7074      3109.8605      9516.6873      0             -8086.9931      0              0             -268.13464      216774.29      60.071608      60.071608      60.071608      0.83331091    -63.143735      279.4076       691.42682    
     19000   38000          396.03369      411.95757      18632.371      17328.451      9490.0492      7838.4019      3271.0322      3142.7752      9524.4874      0             -8099.8929      0              0             -267.81709      217031.31      60.09534       60.09534       60.09534       0.83232405     633.39568      153.20869      449.26834    
     20000   40000          397.90595     -233.52317      16763.438      17497.454      9534.9137      7962.5401      3354.9378      3230.7795      9545.3714      0             -8168.5486      0              0             -269.68771      215525.93      59.956073      59.956073      59.956073      0.83813755    -229.57585     -24.115811     -446.87784    
     21000   42000          391.7197       216.13479      17792.7        17113.09       9386.6742      7726.4157      3200.3273      3197.295       9528.0997      0             -8199.3063      0              0             -269.58869      215605.09      59.963412      59.963412      59.963412      0.83782983     116.32151      508.31193      23.770924    
     22000   44000          400.48573      206.97209      18147.713      17497.94       9596.7323      7901.2077      3285.2957      3204.5976      9580.2693      0             -8168.955       0              0             -270.01429      215265.25      59.93189       59.93189       59.93189       0.83915252    -178.71712      394.52536      405.10804    
     23000   46000          393.00442     -214.00911      16540.753      17210.887      9417.4595      7793.4273      3317.961       3141.9129      9486.9604      0             -8153.407       0              0             -270.71176      214710.64      59.880377      59.880377      59.880377      0.8413201     -421.15881      236.54869     -457.4172     
     24000   48000          390.26603     -277.48767      16283.687      17148.638      9351.8402      7796.7975      3240.1535      3176.6607      9580.8992      0             -8200.9159      0              0             -271.94989      213733.11      59.789364      59.789364      59.789364      0.84516797    -485.06814      87.870755     -435.26562    
     25000   50000          398.81554     -170.02008      16803.748      17337.441      9556.71        7780.7312      3254.6632      3241.0143      9510.6277      0             -8225.574       0              0             -270.05049      215236.4       59.929212      59.929212      59.929212      0.83926502    -50.502566     -458.48299     -1.074682     
     26000   52000          398.41622      312.09806      18271.355      17299.492      9547.1411      7752.3506      3279.4695      3180.2601      9545.4724      0             -8252.8515      0              0             -272.22164      213519.75      59.769462      59.769462      59.769462      0.84601252     138.75547      505.80072      291.73799    
     27000   54000          403.11554      51.327099      17423.039      17262.223      9659.7496      7602.4735      3187.1253      3178.9694      9433.4571      0             -8197.0782      0              0             -270.55476      214835.24      59.891957      59.891957      59.891957      0.84083218     444.63083      73.274732     -363.92427    
     28000   56000          399.58892      166.39926      17956.257      17433.067      9575.2423      7857.8243      3222.4132      3177.7189      9586.7319      0             -8129.0398      0              0             -269.60514      215591.94      59.962193      59.962193      59.962193      0.83788095     406.81006      859.65055     -767.26284    
     29000   58000          399.87626     -126.75425      17012.433      17410.29       9582.1277      7828.1625      3173.1181      3239.6598      9567.516       0             -8152.1315      0              0             -270.06756      215222.79      59.92795       59.92795       59.92795       0.83931806     217.66507     -356.88887     -241.03895    
     30000   60000          398.09428      469.32326      18753.303      17285.259      9539.4265      7745.832       3249.6332      3140.7994      9585.8867      0             -8230.4872      0              0             -271.00014      214482.16      59.859129      59.859129      59.859129      0.84221633     301.76699      608.01296      498.18984    
     31000   62000          396.54492      138.62556      17747.489      17310.999      9502.2997      7808.6992      3335.8174      3167.9779      9452.1559      0             -8147.252       0              0             -269.21884      215901.29      59.990859      59.990859      59.990859      0.83668041    -451.02625      253.14737      613.75558    
     32000   64000          398.08775     -137.68066      16915.515      17347.038      9539.27        7807.7679      3203.773       3185.8353      9593.8283      0             -8175.6687      0              0             -270.4614       214909.39      59.898847      59.898847      59.898847      0.84054205     111.71918     -265.05283     -259.70833    
     33000   66000          400.30265      623.98405      19247.089      17286.334      9592.345       7693.9889      3209.7494      3079.6583      9570.6426      0             -8166.0615      0              0             -269.76565      215463.66      59.950298      59.950298      59.950298      0.83837979     746.00399      883.04883      242.89932    
     34000   68000          399.68438      142.12355      17767.096      17324.694      9577.5297      7747.164       3275.9122      3189.6764      9531.1188      0             -8249.5434      0              0             -272.32333      213440.01      59.762021      59.762021      59.762021      0.84632856    -271.9667       422.08246      276.25488    
     35000   70000          392.84559     -93.184016      16995.065      17287.587      9413.6535      7873.9337      3229.4864      3239.019       9575.9913      0             -8170.5631      0              0             -270.0341       215249.47      59.930425      59.930425      59.930425      0.83921406    -539.33208     -101.07378      360.85381    
     36000   72000          397.0669       2.9001864      17259.139      17250.038      9514.8077      7735.2307      3160.1019      3156.4712      9625.8233      0             -8207.1657      0              0             -270.15219      215155.37      59.921691      59.921691      59.921691      0.83958108    -98.660448     -278.20982      385.57083    
     37000   74000          396.11542      67.605327      17458.484      17246.672      9492.0078      7754.6639      3191.7644      3210.5089      9587.1354      0             -8234.7447      0              0             -270.56152      214829.87      59.891458      59.891458      59.891458      0.84085318    -91.407484      552.62516     -258.4017     
     38000   76000          395.93319     -286.69297      16289.65       17192.934      9487.641       7705.2935      3234.2184      3164.9191      9495.114       0             -8188.958       0              0             -269.04759      216038.71      60.003584      60.003584      60.003584      0.8361482      133.45133     -194.76123     -798.76902    
     39000   78000          396.35749     -317.15877      16380.536      17378.042      9497.8084      7880.2341      3253.7782      3269.0347      9557.7368      0             -8200.3157      0              0             -269.52413      215656.73      59.968199      59.968199      59.968199      0.8376292      131.73432     -825.46477     -257.74586    
     40000   80000          397.25093     -266.09579      16564.719      17401.313      9519.2175      7882.0954      3331.6423      3120.7617      9571.8834      0             -8142.192       0              0             -269.62474      215576.26      59.960739      59.960739      59.960739      0.83794188    -562.54015      112.93175     -348.67897    
     41000   82000          398.89492      420.97635      18647.953      17326.298      9558.612       7767.6861      3308.9538      3101.6718      9542.5609      0             -8185.5005      0              0             -270.00773      215270.49      59.932376      59.932376      59.932376      0.83913211     518.86075      463.42018      280.64813    
     42000   84000          403.71215     -442.51598      15984.48       17368.199      9674.0461      7694.1526      3242.4775      3202.7469      9495.9486      0             -8247.0204      0              0             -271.09262      214408.99      59.852321      59.852321      59.852321      0.84250374    -452.95487     -468.13781     -406.45526    
     43000   86000          392.49016      2.1885597      17001.249      16994.476      9405.1364      7589.3398      3237.2929      3157.6577      9546.8028      0             -8352.4136      0              0             -273.91024      212203.44      59.646387      59.646387      59.646387      0.85126037     105.79092     -282.31608      183.09084    
     44000   88000          398.86281      774.27313      19789.584      17374.532      9557.8425      7816.6896      3333.5822      3177.2432      9569.1563      0             -8263.2921      0              0             -271.77178      213873.18      59.802422      59.802422      59.802422      0.84461444     811.2989       635.2112       876.30929    
     45000   90000          396.26056      350.0898       18390.181      17289.152      9495.4857      7793.6659      3256.4684      3156.8966      9594.3386      0             -8214.0377      0              0             -269.53624      215647.05      59.967302      59.967302      59.967302      0.83766681     261.97208      461.95483      326.34248    
     46000   92000          404.88253     -72.097349      17274.399      17499.423      9702.0916      7797.3319      3252.2476      3224.3065      9586.0223      0             -8265.2446      0              0             -271.59803      214010         59.815172      59.815172      59.815172      0.84407447    -235.25737      671.3178      -652.35248    
     47000   94000          401.13185     -93.555962      17040.273      17332.799      9612.215       7720.5842      3183.8397      3234.9722      9526.5057      0             -8224.7334      0              0             -271.10908      214395.97      59.851109      59.851109      59.851109      0.84255492     762.71302     -127.57939     -915.80151    
     48000   96000          394.63724     -78.425018      17031.958      17278.246      9456.5863      7821.6592      3288.4222      3214.1418      9508.8392      0             -8189.7441      0              0             -269.92888      215333.37      59.938211      59.938211      59.938211      0.83888706    -124.566       -2.352149      -108.3569     
     49000   98000          397.54212      449.89234      18764.512      17357.218      9526.1954      7831.0222      3262.4069      3199.142       9553.0612      0             -8183.5879      0              0             -270.99437      214486.72      59.859553      59.859553      59.859553      0.84219842     800.55946      705.23703     -156.11948    
     50000   100000         398.35807      197.54596      17782.977      17167.098      9545.7476      7621.3506      3256.3667      3073.3184      9532.8665      0             -8241.2011      0              0             -271.90001      213772.31      59.79302       59.79302       59.79302       0.84501297     88.32656       421.41941      82.891916    
     51000   102000         398.4347      -155.63921      16650.509      17137.864      9547.584       7590.2795      3209.3277      3144.3234      9477.6461      0             -8241.0177      0              0             -270.71403      214708.84      59.880209      59.880209      59.880209      0.84132715    -563.76377     -398.31097      495.15711    
     52000   104000         390.86231      385.76424      18277.487      17075.456      9366.1288      7709.3274      3187.5843      3254.8983      9475.3508      0             -8208.506       0              0             -272.04627      213657.38      59.782302      59.782302      59.782302      0.84546752     527.78607      75.438212      554.06844    
     53000   106000         399.7112       300.18214      18185.532      17250.604      9578.1723      7672.4321      3282.3392      3055.4743      9587.1986      0             -8252.58        0              0             -272.17197      213558.71      59.773098      59.773098      59.773098      0.84585816     668.13993     -362.36047      594.76697    
     54000   108000         399.69991      244.89802      18125.084      17356.941      9577.9018      7779.0391      3309.0315      3173.3743      9498.789       0             -8202.1557      0              0             -270.2587       215070.57      59.913818      59.913818      59.913818      0.8399121      91.017624      275.35058      368.32585    
     55000   110000         397.0103      -337.52164      16197.869      17264.324      9513.4515      7750.8722      3306.7879      3095.6075      9501.5606      0             -8153.0838      0              0             -268.28462      216653.1       60.060412      60.060412      60.060412      0.83377702    -341.88392     -503.7444      -166.93661    
     56000   112000         400.80392     -91.682912      17175.532      17462.747      9604.3569      7858.3903      3268.255       3234.9204      9538.468       0             -8183.2531      0              0             -270.5937       214804.32      59.889084      59.889084      59.889084      0.8409532      292.94601     -131.85032     -436.14443    
     57000   114000         392.74498      675.46853      19270.049      17160.211      9411.2428      7748.9677      3250.6539      3213.4147      9530.7815      0             -8245.8824      0              0             -271.3892       214174.67      59.83051       59.83051       59.83051       0.84342548     187.41565      1453.5595      385.4305     
     58000   116000         398.11702      169.6305       17903.803      17369.732      9539.9714      7829.7608      3247.271       3257.3194      9509.177       0             -8184.0067      0              0             -269.24133      215883.25      59.989188      59.989188      59.989188      0.8367503     -871.16898      722.85778      657.2027     
     59000   118000         400.24242      161.45994      17798.734      17288.046      9590.9019      7697.1442      3223.382       3175.5232      9471.6181      0             -8173.3791      0              0             -268.00661      216877.84      60.081171      60.081171      60.081171      0.83291304    -108.05172     -83.088537      675.52008    
     60000   120000         399.10644     -229.94117      16546.83       17269.649      9563.6807      7705.968       3112.9307      3236.1154      9518.717       0             -8161.7952      0              0             -269.66457      215544.43      59.957788      59.957788      59.957788      0.83806564     231.65665     -185.13673     -736.34343    
     61000   122000         400.45141     -12.284247      17178.537      17217.155      9595.9098      7621.2453      3174.8103      3181.176       9438.5786      0             -8173.3195      0              0             -269.6435       215561.27      59.959349      59.959349      59.959349      0.83800016    -572.83433     -104.48649      640.46808    
     62000   124000         396.43642      285.18199      18132.296      17228.535      9499.6998      7728.8357      3203.3082      3173.0506      9416.6977      0             -8064.2208      0              0             -267.48859      217297.85      60.119932      60.119932      60.119932      0.8313031      656.51285     -177.20628      376.23941    
     63000   126000         397.46082     -358.70729      16131.703      17261.334      9524.2472      7737.0871      3292.4893      3104.2158      9542.4576      0             -8202.0756      0              0             -269.17825      215933.84      59.993874      59.993874      59.993874      0.83655427    -309.30069     -509.11265     -257.70853    
     64000   128000         394.78092      86.516742      17532.261      17259.206      9460.0294      7799.177       3227.5259      3211.2193      9507.9034      0             -8147.4716      0              0             -268.58816      216408.25      60.037777      60.037777      60.037777      0.83472039    -63.354008      646.20939     -323.30516    
     65000   130000         401.01756      566.15161      19175.549      17391.303      9609.4763      7781.8264      3226.6135      3235.3942      9456.1832      0             -8136.3645      0              0             -268.97656      216095.76      60.008865      60.008865      60.008865      0.83592745     256.64705      978.92693      462.88084    
     66000   132000         398.68937     -3.2068606      17204.331      17214.377      9553.6865      7660.6904      3212.5287      3129.3055      9474.9856      0             -8156.1294      0              0             -270.59652      214802.08      59.888876      59.888876      59.888876      0.84096196    -274.70365     -395.99647      661.07954    
     67000   134000         391.87652     -285.47881      16328.525      17226.568      9390.432       7836.1358      3295.4452      3162.2043      9506.5105      0             -8128.0242      0              0             -269.47179      215698.62      59.972082      59.972082      59.972082      0.83746653     151.15108      116.8253      -1124.4128    
     68000   136000         401.08         83.87189       17712.24       17447.758      9610.9726      7836.7858      3297.662       3147.5863      9552.7884      0             -8161.2509      0              0             -268.81707      216223.98      60.020731      60.020731      60.020731      0.83543177    -215.966        543.08897     -75.507303    
     69000   138000         397.02782     -169.60971      16746.92       17277.411      9513.8712      7763.5394      3243.067       3169.788       9537.4179      0             -8186.7336      0              0             -271.02515      214462.36      59.857287      59.857287      59.857287      0.84229408     66.936219     -645.21558      69.450224    
     70000   140000         398.58694     -302.06045      16287.659      17237.736      9551.2321      7686.5035      3146.6287      3147.7414      9561.8011      0             -8169.6676      0              0             -269.50818      215669.5       59.969383      59.969383      59.969383      0.83757961    -370.32181     -99.398676     -436.46087    
     71000   142000         394.49196      521.41165      18784.171      17150.588      9453.1051      7697.4827      3284.8458      3118.3901      9519.2014      0             -8224.9546      0              0             -270.56773      214824.93      59.891         59.891         59.891         0.8408725      753.95705      715.22101      95.056882    
     72000   144000         403.22555      169.13109      17814.102      17283.592      9662.3858      7621.2061      3190.414       3179.2191      9446.3428      0             -8194.7698      0              0             -270.25026      215077.29      59.914442      59.914442      59.914442      0.83988587     301.55187     -46.102581      251.94398    
     73000   146000         396.88522      181.69101      17694.93       17128.013      9510.4541      7617.5592      3255.8992      3175.0967      9412.8477      0             -8226.2844      0              0             -271.67582      213948.72      59.809463      59.809463      59.809463      0.84431622     131.56769      1029.8189     -616.31353    
     74000   148000         400.05573     -88.960273      17051.062      17329.406      9586.4282      7742.9777      3272.9886      3181.0902      9505.3797      0             -8216.4808      0              0             -270.92657      214540.4       59.864546      59.864546      59.864546      0.84198771    -42.107044     -410.89053      186.11676    
     75000   150000         389.0973      -329.60394      16020.402      17056.038      9323.8344      7732.2036      3274.2874      3100.1028      9501.1886      0             -8143.3752      0              0             -269.78739      215446.3       59.948687      59.948687      59.948687      0.83844735     231.07314     -482.19704     -737.68791    
     76000   152000         395.63811      377.96551      18301.029      17122.019      9480.57        7641.4494      3226.0191      3156.096       9476.1477      0             -8216.8133      0              0             -271.75114      213889.43      59.803937      59.803937      59.803937      0.84455029     70.652012      949.24671      113.9978     
     77000   154000         397.17841     -168.71793      16712.866      17242.688      9517.4799      7725.2083      3295.8866      3127.5574      9472.3031      0             -8170.5388      0              0             -269.94019      215324.34      59.937374      59.937374      59.937374      0.83892223    -267.31586      129.42111     -368.25904    
     78000   156000         397.15001     -424.64024      15896.715      17226.477      9516.7992      7709.6777      3312.0393      3155.0613      9467.7011      0             -8225.1241      0              0             -270.69719      214722.2       59.881451      59.881451      59.881451      0.84127483    -170.92089     -453.30312     -649.6967     
     79000   158000         398.90048      150.20315      17670.531      17195.644      9558.7452      7636.8987      3219.6071      3069.5428      9427.5585      0             -8079.8097      0              0             -268.11763      216788.04      60.072878      60.072878      60.072878      0.83325804     1078.1286     -457.84347     -169.67573    
     80000   160000         400.79598      8.8359092      17304.079      17276.401      9604.1666      7672.2339      3272.5213      3191.8702      9423.9949      0             -8216.1526      0              0             -270.61608      214786.56      59.887433      59.887433      59.887433      0.84102275     519.04895      180.51621     -673.05743    
     81000   162000         396.02002     -69.616083      17024.858      17243.221      9489.7216      7753.4993      3256.2707      3274.9154      9452.1537      0             -8229.8406      0              0             -270.25096      215076.74      59.91439       59.91439       59.91439       0.83988804    -746.74115      741.18029     -203.28739    
     82000   164000         393.07461     -525.76275      15581.226      17226.608      9419.1416      7807.4665      3309.4835      3179.1021      9524.7453      0             -8205.8644      0              0             -270.86916      214585.87      59.868776      59.868776      59.868776      0.84180928    -790.22192     -172.24175     -614.82459    
     83000   166000         398.96192      644.65767      19382.781      17355.838      9560.2177      7795.6205      3330.4282      3191.0918      9436.1982      0             -8162.0977      0              0             -269.60272      215593.87      59.962372      59.962372      59.962372      0.83787344     551.65333      987.15184      395.16785    
     84000   168000         393.06261     -376.33543      15993.851      17180.285      9418.8541      7761.4308      3217.0775      3189.5055      9502.197       0             -8147.3492      0              0             -268.88588      216168.64      60.015611      60.015611      60.015611      0.83564563    -145.56462     -1170.6323      187.1906     
     85000   170000         398.66638     -116.21899      16887.625      17253.99       9553.1356      7700.8541      3178.8056      3154.7495      9531.3457      0             -8164.0467      0              0             -268.90554      216152.84      60.014148      60.014148      60.014148      0.83570672    -472.66589      470.75216     -346.74323    
     86000   172000         394.38779      485.23029      18739.732      17214.57       9450.609       7763.9607      3254.667       3128.168       9577.1588      0             -8196.0331      0              0             -269.69225      215522.3       59.955736      59.955736      59.955736      0.83815167     465.81936      784.79723      205.07427    
     87000   174000         395.11347     -214.60841      16425.5        17102.253      9467.9981      7634.2551      3120.5938      3223.8211      9428.5678      0             -8138.7276      0              0             -268.81467      216225.9       60.020909      60.020909      60.020909      0.83542433     296.85039      315.44752     -1256.1232    
     88000   176000         394.38185     -403.38498      16004.893      17279.681      9450.4665      7829.2141      3205.5593      3213.8938      9530.7047      0             -8120.9437      0              0             -268.23678      216691.74      60.063981      60.063981      60.063981      0.83362836    -675.542       -93.220016     -441.39294    
     89000   178000         401.71186     -4.7285021      17147.226      17162.073      9626.1137      7535.9593      3158.5161      3073.8593      9523.56        0             -8219.9761      0              0             -269.98154      215291.37      59.934314      59.934314      59.934314      0.83905071    -387.85042      8.5971358      365.06777    
     90000   180000         398.18351     -413.44674      15832.829      17133.855      9541.5648      7592.2899      3188.2129      3070.7524      9472.301       0             -8138.9763      0              0             -269.38308      215769.66      59.978664      59.978664      59.978664      0.83719083    -276.20871     -819.62183     -144.50968    
     91000   182000         395.84139     -461.03796      15719.91       17167.929      9485.4412      7682.4879      3191.8451      3192.0229      9485.6449      0             -8187.0251      0              0             -269.8975       215358.4       59.940534      59.940534      59.940534      0.83878955    -39.311428     -626.31457     -717.48789    
     92000   184000         399.37721      18.606598      17290.048      17231.381      9570.1689      7661.2121      3209.9449      3168.8062      9473.7395      0             -8191.2785      0              0             -268.85169      216196.13      60.018155      60.018155      60.018155      0.83553936     6.2923617      54.283204     -4.7557722    
     93000   186000         399.28912      167.99103      17864.924      17335.941      9568.0582      7767.8827      3337.1331      3180.73        9433.9345      0             -8183.9149      0              0             -269.20347      215913.62      59.992001      59.992001      59.992001      0.83663262     7.0919112      55.884762      440.99641    
     94000   188000         395.46987     -580.38021      15453.218      17280.189      9476.5385      7803.6506      3318.8844      3160.502       9509.6572      0             -8185.393       0              0             -269.28828      215845.62      59.985702      59.985702      59.985702      0.8368962     -961.77409     -559.32236     -220.04417    
     95000   190000         389.69868      388.93562      18250.27       17042.003      9338.2451      7703.7574      3276.5447      3184.0336      9483.1758      0             -8239.9967      0              0             -272.86715      213014.63      59.722293      59.722293      59.722293      0.84801866     818.37646      28.377041      320.05335    
     96000   192000         394.08716      73.37989       17414.357      17183.938      9443.405       7740.5329      3225.9138      3169.0699      9527.5796      0             -8182.0305      0              0             -269.95741      215310.61      59.9361        59.9361        59.9361        0.83897574     338.39212      192.80156     -311.054      
     97000   194000         392.99845     -118.39768      16789.162      17160.747      9417.3166      7743.4307      3248.3705      3143.4636      9534.1968      0             -8182.6003      0              0             -270.09793      215198.59      59.925703      59.925703      59.925703      0.83941246     210.72493     -1.4332671     -564.48471    
     98000   196000         394.99866     -96.703477      16885.818      17189.488      9465.2469      7724.2415      3287.028       3144.951       9504.8451      0             -8212.5827      0              0             -269.94589      215319.8       59.936952      59.936952      59.936952      0.83893994     355.81677     -84.108472     -561.81873    
     99000   198000         402.62247     -94.464471      17007.072      17306.334      9647.9344      7658.3999      3146.038       3099           9513.8977      0             -8100.5358      0              0             -267.57992      217223.68      60.113091      60.113091      60.113091      0.83158695    -32.779383     -29.076442     -221.53759    
    100000   200000         398.49268     -159.62893      16819.598      17321.251      9548.9732      7772.2777      3247.3705      3194.8101      9501.2738      0             -8171.1768      0              0             -269.73986      215484.27      59.952209      59.952209      59.952209      0.83829962    -441.71265      55.071603     -92.245741    
    101000   202000         392.62561      239.24532      17767.076      17018.348      9408.3824      7609.9652      3251.0298      3078.1231      9430.1934      0             -8149.3812      0              0             -270.8668       214587.74      59.868949      59.868949      59.868949      0.84180195    -34.095949      448.34767      303.48423    
    102000   204000         396.23799      49.829722      17319.983      17163.745      9494.9448      7668.7997      3152.5977      3166.5746      9574.1592      0             -8224.5318      0              0             -270.35655      214992.74      59.90659       59.90659       59.90659       0.84021618     70.593676     -324.39899      403.29448    
    103000   206000         395.58363      282.97761      18014.561      17128.102      9479.2645      7648.838       3157.0763      3224.2515      9452.7997      0             -8185.2895      0              0             -270.60165      214798.01      59.888497      59.888497      59.888497      0.8409779      45.064254      804.52415     -0.65559254   
    104000   208000         393.82129      338.19671      18327.227      17273.045      9437.0341      7836.0112      3259.3183      3190.6298      9610.6059      0             -8224.5428      0              0             -271.95079      213732.4       59.789298      59.789298      59.789298      0.84517077     494.53537      216.39144      303.66333    
    105000   210000         395.55735      96.227831      17672.916      17369.651      9478.6349      7891.0165      3274.3485      3181.1833      9602.2783      0             -8166.7936      0              0             -268.97722      216095.23      60.008816      60.008816      60.008816      0.8359295     -45.970504     -390.30242      724.95642    
    106000   212000         400.13434     -507.98162      15734.756      17326.351      9588.312       7738.0388      3299.0421      3176.4879      9489.0133      0             -8226.5045      0              0             -270.55278      214836.8       59.892103      59.892103      59.892103      0.84082604    -401.00408     -1026.9276     -96.013221    
    107000   214000         396.82837     -813.70439      14650.801      17197.837      9509.0918      7688.7447      3221.3555      3069.1978      9619.4047      0             -8221.2132      0              0             -270.81216      214631.03      59.872975      59.872975      59.872975      0.84163215    -1295.7395     -288.11742     -857.25622    
    108000   216000         396.94412      827.65143      19660.716      17088.207      9511.8655      7576.3417      3170.0987      3150.1909      9516.2721      0             -8260.2201      0              0             -272.72639      213124.57      59.732566      59.732566      59.732566      0.84758119     1088.3721      840.2036       554.37859    
    109000   218000         387.79442      110.85828      17299.891      16952.69       9292.6137      7660.0762      3234.1829      3139.1256      9502.1481      0             -8215.3804      0              0             -270.65955      214752.05      59.884226      59.884226      59.884226      0.84115786     75.240004      934.28688     -676.95206    
    110000   220000         402.1401       247.22699      18084.754      17316.206      9636.3754      7679.8302      3292.3698      3145.9157      9509.8759      0             -8268.3311      0              0             -272.6851       213156.84      59.735581      59.735581      59.735581      0.84745288     162.54298     -120.2608       699.39878    
    111000   222000         393.78662      62.437612      17249.251      17053.745      9436.2033      7617.5416      3200.2821      3121.6869      9467.1956      0             -8171.623       0              0             -270.72174      214702.72      59.87964       59.87964       59.87964       0.84135113    -337.06738      39.3678        485.01242    
    112000   224000         392.97789      424.34329      18560.33       17237.105      9416.8239      7820.2809      3282.3892      3216.9653      9550.1322      0             -8229.2058      0              0             -271.84426      213816.16      59.797107      59.797107      59.797107      0.8448397     -50.969472      985.6724       338.32693    
    113000   226000         399.02268     -571.11192      15359.62       17142.324      9561.6735      7580.6506      3240.3478      3139.6728      9454.8888      0             -8254.2589      0              0             -271.56804      214033.63      59.817374      59.817374      59.817374      0.84398128    -828.32726     -361.90257     -523.10592    
    114000   228000         398.47484     -134.39074      16770.931      17191.84       9548.5458      7643.2944      3232.3844      3085.5145      9570.2426      0             -8244.847       0              0             -270.65566      214755.14      59.884513      59.884513      59.884513      0.84114576    -483.04164     -380.72218      460.59161    
    115000   230000         391.61841      429.62291      18451.505      17110.092      9384.2469      7725.8449      3164.42        3164.0258      9558.3858      0             -8160.9867      0              0             -271.49469      214091.46      59.82276       59.82276       59.82276       0.84375332     199.39986      432.34507      657.12379    
    116000   232000         395.47748     -534.35699      15563.71       17235.544      9476.721       7758.8231      3197.9547      3269.5045      9537.3198      0             -8245.956       0              0             -270.94106      214528.92      59.863479      59.863479      59.863479      0.84203274    -228.67997     -700.36963     -674.02138    
    117000   234000         393.754        209.86136      17498.958      16841.235      9435.4215      7405.8138      3105.2643      3110.4833      9442.9817      0             -8252.9155      0              0             -270.4743       214899.14      59.897895      59.897895      59.897895      0.84058213    -174.01115      525.44086      278.15435    
    118000   236000         389.72587      570.30024      18619.965      16836.622      9338.8966      7497.7256      3162.7089      3124.4496      9444.2979      0             -8233.7308      0              0             -271.08492      214415.08      59.852887      59.852887      59.852887      0.84247983     804.84364     -112.4226       1018.4797    
    119000   238000         395.81042      143.35412      17612.67       17166.21       9484.6991      7681.5107      3225.9618      3143.519       9565.6582      0             -8253.6284      0              0             -272.18491      213548.56      59.772151      59.772151      59.772151      0.84589837     185.68443      310.84591     -66.46799     
    120000   240000         395.06308     -447.23131      15726.344      17123.767      9466.7906      7656.9759      3193.3243      3157.4973      9526.8215      0             -8220.6672      0              0             -271.29459      214249.37      59.837465      59.837465      59.837465      0.84313144    -288.41326     -565.09961     -488.18105    
    121000   242000         393.00709      44.473289      17225.857      17086.728      9417.5236      7669.2047      3193.9728      3208.2381      9475.0216      0             -8208.0278      0              0             -270.96907      214506.75      59.861417      59.861417      59.861417      0.84211977    -20.674291      138.14131      15.952852    
    122000   244000         393.41511      87.944218      17369.661      17095.209      9427.3008      7667.9084      3153.5097      3222.8599      9534.8319      0             -8243.2931      0              0             -271.63044      213984.46      59.812793      59.812793      59.812793      0.8441752      207.02636     -96.627467      153.43377    
    123000   246000         392.16523      111.08227      17568.457      17220.678      9397.3503      7823.3275      3283.2155      3199.5442      9532.8461      0             -8192.2783      0              0             -270.75576      214675.74      59.877132      59.877132      59.877132      0.84145686     65.899551      30.602111      236.74516    
    124000   248000         389.70168      579.16297      18689.361      16860.228      9338.317       7521.9111      3132.1445      3032.329       9489.9923      0             -8132.5547      0              0             -268.40588      216555.22      60.051365      60.051365      60.051365      0.83415388     1141.5587      126.90324      469.02693    
    125000   250000         395.50778     -164.14866      16710.436      17227.85       9477.4468      7750.403       3192.2758      3169.411       9514.6326      0             -8125.9163      0              0             -268.92787      216134.89      60.012487      60.012487      60.012487      0.83577613     148.51927     -373.17767     -267.78759    
    126000   252000         396.87956      479.46466      18753.342      17246.843      9510.3186      7736.5244      3193.7777      3154.0092      9576.2446      0             -8187.5071      0              0             -269.78912      215444.92      59.948559      59.948559      59.948559      0.83845272     892.05038      609.70462     -63.361011    
    127000   254000         395.76295      400.22586      18413.682      17158.84       9483.5616      7675.2783      3198.4712      3142.7883      9551.1875      0             -8217.1687      0              0             -270.36625      214985.03      59.905873      59.905873      59.905873      0.84024633     143.27752      714.85772      342.54235    
    128000   256000         394.38998      12.613384      17097.748      17058.244      9450.6614      7607.5831      3154.1244      3177.5998      9473.9003      0             -8198.0415      0              0             -270.66613      214746.84      59.883741      59.883741      59.883741      0.84117829     33.538395     -170.14508      174.44684    
    129000   258000         393.07062     -502.60253      15501.477      17076.515      9419.046       7657.4694      3131.1201      3173.6189      9601.1417      0             -8248.4114      0              0             -270.50177      214877.32      59.895867      59.895867      59.895867      0.84066751    -700.90088     -882.73227      75.825562    
    130000   260000         390.5454       531.10409      18587.837      16921.782      9358.5348      7563.2471      3218.8147      3137.2308      9423.185       0             -8215.9835      0              0             -270.22579      215096.77      59.91625       59.91625       59.91625       0.83980983     916.93693      175.38279      500.99255    
    131000   262000         393.87153     -709.21315      14774.16       16997.47       9438.2379      7559.2323      3212.3542      3110.721       9430.2932      0             -8194.1361      0              0             -270.40406      214954.96      59.903081      59.903081      59.903081      0.84036385    -661.88568     -783.71248     -682.04127    
    132000   264000         397.83958      535.8243       18835.625      17172.121      9533.3232      7638.7974      3213.3513      3111.9556      9557.699       0             -8244.2085      0              0             -273.04553      212875.46      59.709285      59.709285      59.709285      0.84857303     1113.6604      625.63759     -131.82511    
    133000   266000         389.60339     -133.26989      16610.147      17028.815      9335.9616      7692.8538      3228.1489      3133.0874      9494.7793      0             -8163.1618      0              0             -269.83504      215408.25      59.945159      59.945159      59.945159      0.83859544     1.3718084     -55.784559     -345.39692    
    134000   268000         394.8707       600.17576      18939.549      17067.779      9462.1808      7605.5979      3265.0735      3140.9236      9439.2419      0             -8239.641       0              0             -271.80815      213844.56      59.799755      59.799755      59.799755      0.84472747     924.48068      563.93158      312.11501    
    135000   270000         397.56245      236.27155      17782.702      17050.485      9526.6824      7523.8029      3218.0655      3096.1611      9544.2394      0             -8334.6632      0              0             -273.53221      212496.71      59.673851      59.673851      59.673851      0.85008554     20.666121      484.35499      203.79355    
    136000   272000         395.00999      137.18184      17619.24       17186.255      9465.5185      7720.7361      3271.0976      3169.0363      9444.0159      0             -8163.4137      0              0             -268.57123      216421.89      60.039039      60.039039      60.039039      0.83466777    -57.440284     -34.711264      503.69705    
    137000   274000         395.44796      448.27865      18518.487      17118.9        9476.0134      7642.8867      3188.0993      3180.3601      9505.6578      0             -8231.2306      0              0             -271.50937      214079.89      59.821682      59.821682      59.821682      0.84379892     51.045573      561.04821      732.74216    
    138000   276000         402.9974      -197.10146      16785.93       17406.861      9656.9187      7749.9428      3303.8084      3135.9801      9488.2111      0             -8178.0569      0              0             -269.081        216011.89      60.001101      60.001101      60.001101      0.83625202    -90.258519     -124.75862     -376.28725    
    139000   278000         400.80812     -477.07141      15735.918      17226.023      9604.4575      7621.5651      3176.269       3146.4361      9552.2201      0             -8253.36        0              0             -271.39578      214169.49      59.830027      59.830027      59.830027      0.84344592    -202.17718     -499.24026     -729.79679    
    140000   280000         392.91305     -103.03698      16692.466      17013.965      9415.27        7598.6948      3255.531       3152.2505      9465.2784      0             -8274.3651      0              0             -271.67528      213949.15      59.809502      59.809502      59.809502      0.84431455    -278.05787      187.04508     -218.09816    
    141000   282000         390.34529     -185.71887      16320.771      16899.4        9353.7395      7545.6608      3139.3677      3176.69        9484.7899      0             -8255.1869      0              0             -272.07703      213633.23      59.780049      59.780049      59.780049      0.84556311    -581.40255     -222.2213       246.46724    
    142000   284000         391.64413      105.36282      17286.662      16957.115      9384.8634      7572.252       3242.3916      3113.6831      9460.0722      0             -8243.8949      0              0             -271.02373      214463.49      59.857392      59.857392      59.857392      0.84228966    -99.658069      634.6104      -218.86386    
    143000   286000         392.99627      632.44417      18966.342      16991.095      9417.2643      7573.8304      3239.0713      3107.88        9485.4563      0             -8258.5772      0              0             -271.41719      214152.59      59.828454      59.828454      59.828454      0.84351246    -12.185892      1177.7631      731.75528    
    144000   288000         392.49465      530.47003      18607.596      16962.818      9405.2441      7557.5742      3202.5833      3137.6616      9468.0649      0             -8250.7356      0              0             -273.39472      212603.57      59.683853      59.683853      59.683853      0.84965824     928.8999       619.69977      42.810419    
    145000   290000         398.53039      194.16158      17747.169      17141.188      9549.877       7591.3107      3186.4932      3117.053       9471.2992      0             -8183.5347      0              0             -271.60679      214003.1       59.814529      59.814529      59.814529      0.84410168     654.91957     -324.22427      251.78944    
    146000   292000         389.99476      714.2538       19092.405      16857.782      9345.3399      7512.4424      3185.7943      3140.0001      9387.2413      0             -8200.5934      0              0             -270.9474       214523.9       59.863012      59.863012      59.863012      0.84205245     796.36952      533.96645      812.42544    
    147000   294000         394.85391     -556.30441      15416.366      17160.989      9461.7784      7699.2104      3247.8672      3225.9239      9459.0186      0             -8233.5993      0              0             -270.30088      215037.01      59.910702      59.910702      59.910702      0.84004318    -642.12988     -268.11913     -758.66422    
    148000   296000         396.33961      152.76218      17512.269      17036.863      9497.3799      7539.4827      3193.7244      3111.063       9476.0693      0             -8241.374       0              0             -272.38785      213389.45      59.757302      59.757302      59.757302      0.84652909     193.62701      390.04705     -125.38751    
    149000   298000         395.54386     -443.50623      15752.755      17139.465      9478.3115      7661.1536      3277.6246      3133.1575      9483.5147      0             -8233.1431      0              0             -271.11315      214392.75      59.85081       59.85081       59.85081       0.84256757    -30.867925     -697.87062     -601.78015    
    150000   300000         390.58779     -205.95105      16329.714      16973.093      9359.5504      7613.5426      3243.7322      3125.0162      9512.5179      0             -8267.7236      0              0             -271.35242      214203.71      59.833213      59.833213      59.833213      0.84331116    -422.47031     -110.44598     -84.936849    
    151000   302000         392.60879     -46.574432      16709.467      16854.151      9407.9791      7446.1721      3150.451       3122.4405      9459.2963      0             -8286.0157      0              0             -272.87465      213008.78      59.721746      59.721746      59.721746      0.84804195     122.42007     -0.25230559    -261.89105    
    152000   304000         391.80962     -252.07443      16113.912      16900.991      9388.8289      7512.1619      3163.0005      3120.5854      9479.2417      0             -8250.6656      0              0             -271.48569      214098.56      59.823422      59.823422      59.823422      0.84372532    -89.489064     -230.69171     -436.04252    
    153000   306000         388.83815     -94.610499      16415.92       16710.266      9317.6244      7392.642       3114.2418      3069.6558      9469.1064      0             -8260.362       0              0             -272.46865      213326.18      59.751395      59.751395      59.751395      0.84678017    -314.61587     -33.788858      64.573231    
    154000   308000         389.69371     -342.50694      15966.895      17042.015      9338.1258      7703.8891      3231.0639      3127.6922      9545.9589      0             -8200.826       0              0             -270.05298      215234.41      59.929028      59.929028      59.929028      0.83927277    -340.45697     -698.1207       11.056838    
    155000   310000         396.24117      144.95554      17557.121      17104.281      9495.021       7609.2598      3171.2663      3190.4574      9510.5881      0             -8263.0519      0              0             -271.34774      214207.41      59.833558      59.833558      59.833558      0.8432966      268.29185      367.92577     -201.351      
    156000   312000         390.68186      621.06792      18827.507      16906.047      9361.8048      7544.2424      3256.6246      3052.1433      9541.1577      0             -8305.6831      0              0             -273.99608      212136.96      59.640157      59.640157      59.640157      0.85152715     390.216        428.59196      1044.3958    
    157000   314000         394.47619     -118.03457      16714.345      17084.143      9452.7272      7631.4153      3183.6836      3090.2748      9551.885       0             -8194.4281      0              0             -270.57154      214821.91      59.890719      59.890719      59.890719      0.84088434    -24.338159     -334.76812      5.0025557    
    158000   316000         395.23605      140.50494      17654.589      17212.549      9470.9356      7741.6136      3251.141       3139.3784      9524.8869      0             -8173.7927      0              0             -269.44311      215721.58      59.97421       59.97421       59.97421       0.83737739     491.39695      134.90481     -204.78695    
    159000   318000         387.56926     -219.55299      16217.829      16905.63       9287.2182      7618.4117      3181.5902      3121.571       9570.3824      0             -8255.1319      0              0             -270.59081      214806.61      59.889297      59.889297      59.889297      0.84094423    -129.19452     -285.95155     -243.51289    
    160000   320000         387.56882     -306.3628       15776.687      16733.811      9287.2078      7446.6027      3169.2912      3032.6488      9493.5675      0             -8248.9048      0              0             -271.33433      214217.99      59.834543      59.834543      59.834543      0.84325493     453.5482      -161.11519     -1211.5214    
    161000   322000         387.5459      -182.88577      16373.859      16943.103      9286.6586      7656.4446      3171.671       3144.5738      9578.9544      0             -8238.7546      0              0             -272.34388      213423.91      59.760518      59.760518      59.760518      0.84639242    -536.73638      238.19319     -250.11411    
    162000   324000         386.51731     -150.60311      16343.978      16814.896      9262.0107      7552.8855      3108.6245      3143.2875      9533.6097      0             -8232.6362      0              0             -271.09719      214405.37      59.851984      59.851984      59.851984      0.84251796     247.80645     -218.38256     -481.23321    
    163000   326000         391.51607      45.716954      17109.037      16965.931      9381.7946      7584.1364      3169.3539      3119.8473      9516.9739      0             -8222.0387      0              0             -270.80555      214636.27      59.873462      59.873462      59.873462      0.8416116     -12.479415     -14.413432      164.04371    
    164000   328000         395.05424      215.54306      17596.629      16928.915      9466.579       7462.3362      3156.2354      3075.0439      9527.7523      0             -8296.6954      0              0             -273.64041      212412.69      59.665985      59.665985      59.665985      0.85042179     31.057751      185.41666      430.15476    
    165000   330000         389.81997     -310.07704      16031.961      16996.67       9341.1516      7655.5188      3254.8956      3165.1567      9497.709       0             -8262.2424      0              0             -272.46421      213329.65      59.751719      59.751719      59.751719      0.84676639    -306.93433     -410.8043      -212.49248    
    166000   332000         393.54028      150.16043      17402.264      16932.608      9430.3002      7502.3076      3262.1075      2994.6926      9453.9772      0             -8208.4697      0              0             -271.0269       214460.98      59.857158      59.857158      59.857158      0.84229951     448.78698      178.28777     -176.59346    
    167000   334000         398.69592      288.87961      18132.517      17228.555      9553.8434      7674.7117      3268.6895      3103.4041      9499.6876      0             -8197.0695      0              0             -270.89636      214564.33      59.866772      59.866772      59.866772      0.8418938      564.31335      32.204168      270.12133    
    168000   336000         394.52786     -98.787359      16505.192      16812.695      9453.9653      7358.7302      3099.8323      3112.9943      9431.0457      0             -8285.1421      0              0             -272.32503      213438.68      59.761897      59.761897      59.761897      0.84633384     325.35669     -49.919408     -571.79936    
    169000   338000         392.5637       275.55492      17768.978      16906.974      9406.8987      7500.0755      3200.2722      3130.97        9446.1535      0             -8277.3202      0              0             -270.97883      214499.02      59.860697      59.860697      59.860697      0.84215012     633.62555     -153.37936      346.41857    
    170000   340000         388.85328      162.0122       17446.946      16938.712      9317.9868      7620.7247      3175.2549      3163.278       9470.2586      0             -8188.0667      0              0             -270.22149      215100.19      59.916568      59.916568      59.916568      0.83979646     710.9322      -250.65869      25.763091    
    171000   342000         389.97838     -436.32755      15547.766      16918.74       9344.9474      7573.7925      3219.4623      3172.3542      9375.7933      0             -8193.8172      0              0             -269.78639      215447.1       59.948762      59.948762      59.948762      0.83844424    -707.35844     -154.09226     -447.53195    
    172000   344000         385.78392     -36.423641      16550.73       16663.865      9244.4366      7419.4281      3170.2907      3073.1297      9455.4978      0             -8279.4902      0              0             -272.91371      212978.28      59.718897      59.718897      59.718897      0.84816336     42.280612      39.950374     -191.50191    
    173000   346000         395.53582      25.281472      17221.12       17142.525      9478.1188      7664.4064      3236.3094      3129.2824      9568.9309      0             -8270.1163      0              0             -272.67578      213164.13      59.736262      59.736262      59.736262      0.84742391     115.24113     -325.94196      286.54524    
    174000   348000         390.84653      718.15397      19036.18       16818.294      9365.7507      7452.5432      3164.1869      3149.3553      9411.8477      0             -8272.8468      0              0             -274.48267      211760.89      59.604894      59.604894      59.604894      0.85303938     717.81628      509.49576      927.14988    
    175000   350000         397.1514       340.08055      18125.634      17068.693      9516.8325      7551.8602      3198.9013      3095.3794      9542.174       0             -8284.5946      0              0             -272.75183      213104.69      59.730709      59.730709      59.730709      0.84766025     520.19822      215.8659       284.17752    
    176000   352000         396.62711      151.93808      17435.631      16961.35       9504.2691      7457.0813      3196.578       3069.2939      9449.2801      0             -8258.0708      0              0             -271.56118      214039.05      59.817878      59.817878      59.817878      0.84395993     306.81152      51.493372      97.509364    
    177000   354000         386.99453      203.99739      17378.194      16743.889      9273.4462      7470.4427      3147.1         3095.2223      9515.7529      0             -8287.6325      0              0             -272.62327      213205.18      59.740097      59.740097      59.740097      0.84726072     545.76215     -185.0227       251.25273    
    178000   356000         392.7165       62.494143      17120.275      16925.494      9410.5602      7514.9343      3174.6221      3055.4608      9495.3662      0             -8210.5149      0              0             -271.97641      213712.26      59.78742       59.78742       59.78742       0.84525041     12.236764      396.69264     -221.44697    
    179000   358000         395.77469     -574.67565      15149.94       16941.273      9483.8429      7457.4299      3169.3791      3088.1132      9440.9329      0             -8240.9952      0              0             -271.94618      213736.02      59.789635      59.789635      59.789635      0.84515646    -447.11011     -590.56197     -686.35487    
    180000   360000         386.3755      -406.22813      15503.346      16773.45       9258.6126      7514.8369      3100.9711      3157.7628      9483.6065      0             -8227.5035      0              0             -271.12364      214384.46      59.850038      59.850038      59.850038      0.84260017    -191.62165     -428.69059     -598.37215    
    181000   362000         388.52532      71.646162      17012.093      16787.298      9310.1281      7477.1703      3160.585       3086.4062      9496.8523      0             -8266.6732      0              0             -270.17415      215137.88      59.920068      59.920068      59.920068      0.83964932     181.02291      117.46708     -83.551504    
    182000   364000         394.49124     -150.84184      16570.946      17047.542      9453.0878      7594.4543      3140.1878      3165.6483      9416.4214      0             -8127.8032      0              0             -268.29194      216647.19      60.059866      60.059866      60.059866      0.83379976    -386.08989      32.584928     -99.020552    
    183000   366000         392.50391      75.069688      17196.206      16961.388      9405.466       7555.9224      3120.7481      3136.9601      9526.6103      0             -8228.3961      0              0             -271.0009       214481.56      59.859073      59.859073      59.859073      0.84221869    -25.480859     -96.734795      347.42472    
    184000   368000         396.01716      104.24175      17281.51       16954.264      9489.653       7464.6112      3047.2257      3086.0917      9574.3548      0             -8243.061       0              0             -270.02532      215256.46      59.931075      59.931075      59.931075      0.83918678     106.46589      339.71253     -133.45318    
    185000   370000         390.04052      59.870002      17157.099      16969.704      9346.4364      7623.2674      3126.6875      3104.128       9619.825       0             -8227.3731      0              0             -270.82434      214621.38      59.872078      59.872078      59.872078      0.84167       -149.36439     -49.27359       378.24798    
    186000   372000         391.44745      361.66628      18043.439      16909.817      9380.1503      7529.6667      3176.4082      3099.8602      9454.5256      0             -8201.1272      0              0             -270.44341      214923.69      59.900176      59.900176      59.900176      0.84048612    -64.240983      838.90324      310.33658    
    187000   374000         381.92045     -314.80963      15695.349      16674.716      9151.8573      7522.8583      3182.9317      3084.3976      9562.2617      0             -8306.7328      0              0             -272.48283      213315.07      59.750358      59.750358      59.750358      0.84682426    -494.78102     -382.45529     -67.192598    
    188000   376000         396.64835      404.07003      18234.027      16985.074      9504.778       7480.2957      3206.275       3170.7775      9441.5431      0             -8338.2999      0              0             -274.25031      211940.31      59.621723      59.621723      59.621723      0.85231724     895.64685      221.61046      94.952773    
    189000   378000         387.12487      134.84999      17077.854      16657.543      9276.5696      7380.9731      3127.1471      3021.5448      9493.7958      0             -8261.5147      0              0             -271.96716      213719.54      59.788098      59.788098      59.788098      0.84522165     879.85523     -204.49905     -270.8062     
    190000   380000         387.92873     -71.293877      16632.006      16854.743      9295.8322      7558.9107      3231.8578      3087.128       9491.6392      0             -8251.7142      0              0             -271.32878      214222.37      59.834951      59.834951      59.834951      0.84323769    -870.25574      590.92457      65.449541    
    191000   382000         398.19583     -115.21103      16651.015      17007.8        9541.86        7465.9401      3215.9803      3125.4232      9444.4396      0             -8319.903       0              0             -273.73122      212342.22      59.659387      59.659387      59.659387      0.850704      -14.938154     -705.15105      374.45612    
    192000   384000         389.26106     -81.109045      16465.183      16717.477      9327.7585      7389.7185      3148.2015      3115.5217      9427.5653      0             -8301.57        0              0             -272.52009      213285.91      59.747635      59.747635      59.747635      0.84694004    -108.07988     -642.0347       506.78744    
    193000   386000         388.54499     -342.00055      15840.278      16903.09       9310.5994      7592.4907      3243.1387      3103.8492      9520.5623      0             -8275.0596      0              0             -272.77646      213085.45      59.728911      59.728911      59.728911      0.8477368     -526.12469     -304.35675     -195.52022    
    194000   388000         388.29421      135.54227      17300.219      16878.395      9304.5902      7573.8049      3228.5284      3121.7172      9525.1284      0             -8301.5691      0              0             -272.38281      213393.4       59.757671      59.757671      59.757671      0.84651342     125.98902      284.03166     -3.3938763    
    195000   390000         382.40162     -117.60498      16235.551      16601.575      9163.3875      7438.1873      3220.9071      3064.9628      9453.4245      0             -8301.1071      0              0             -272.36582      213406.71      59.758914      59.758914      59.758914      0.84646061    -468.5126      -87.168218      202.86587    
    196000   392000         391.07947      141.69602      17183.013      16741.296      9371.3326      7369.9638      3194.6058      3052.8661      9401.0546      0             -8278.5627      0              0             -271.92567      213752.14      59.791139      59.791139      59.791139      0.84509273     127.39773      547.57457     -249.88424    
    197000   394000         388.59618     -18.29335       16685.658      16742.658      9311.8262      7430.8322      3224.9761      3085.2141      9387.6521      0             -8267.0101      0              0             -272.05012      213654.36      59.782021      59.782021      59.782021      0.84547947    -168.8506       18.230121      95.740426    
    198000   396000         388.57062      309.8747       17819.833      16853.234      9311.2137      7542.0207      3278.3436      3117.414       9466.7787      0             -8320.5157      0              0             -271.75449      213886.78      59.80369       59.80369       59.80369       0.84456073    -568.48114      676.28799      821.81724    
    199000   398000         385.82065     -63.352202      16477.388      16672.881      9245.3169      7427.5646      3164.9033      3173.4179      9427.839       0             -8338.5956      0              0             -274.70496      211589.53      59.588812      59.588812      59.588812      0.85373021    -522.76016      82.351944      250.35161    
    200000   400000         393.41708      122.74409      17210.868      16826.76       9427.3481      7399.4123      3089.3409      3033.3618      9513.6865      0             -8236.977       0              0             -270.88442      214573.78      59.867651      59.867651      59.867651      0.84185672     477.59235     -169.97578      60.615684    
    201000   402000         389.93595     -43.472678      16573.138      16707.64       9343.9306      7363.7098      3160.6311      3089.4901      9386.9087      0             -8273.32        0              0             -273.98324      212146.9       59.641089      59.641089      59.641089      0.85148724    -116.2095       131.28411     -145.49264    
    202000   404000         391.60334     -672.8448       14939.883      17041.88       9383.8859      7657.9936      3224.5199      3179.3803      9521.991       0             -8267.8975      0              0             -271.34348      214210.77      59.833871      59.833871      59.833871      0.84328336    -659.98705     -787.45518     -571.09217    
    203000   406000         386.6491       4.0363431      16712.53       16699.943      9265.1687      7434.7747      3186.8686      3043.0277      9489.9383      0             -8285.0599      0              0             -271.84276      213817.34      59.797217      59.797217      59.797217      0.84483503    -302.79275      430.08863     -115.18685    
    204000   408000         388.68193      303.60133      17806.366      16853.784      9313.881       7539.9031      3183.4002      3102.6617      9484.5534      0             -8230.7123      0              0             -270.17054      215140.76      59.920335      59.920335      59.920335      0.8396381      235.33826      55.735452      619.73028    
[...]
   1951000   3902000        304.17937     -138.61301      11376.502      11783.079      7288.9687      4494.1099      2483.0157      2409.8011      8664.7324      0             -9063.4393      0              0             -289.00004      201123.48      58.589653      58.589653      58.589653      0.89815658     140.22279     -218.41008     -337.65175    
   1952000   3904000        302.40077      106.52974      12080.962      11768.119      7246.3485      4521.7702      2484.6053      2414.1314      8730.4836      0             -9107.4502      0              0             -288.65564      201363.45      58.612945      58.612945      58.612945      0.89708624    -254.12933      64.902159      508.8164     
   1953000   3906000        305.0346       123.77499      12114.226      11752.929      7309.4624      4443.4671      2453.361       2413.9766      8690.4716      0             -9114.3421      0              0             -290.40573      200149.96      58.494967      58.494967      58.494967      0.90252517    -345.15225      562.57118      153.90604    
   1954000   3908000        304.24613     -233.727        11087.571      11772.805      7290.5686      4482.2368      2432.3705      2431.5955      8732.4713      0             -9114.2005      0              0             -289.13879      201026.97      58.58028       58.58028       58.58028       0.89858778    -738.51772      16.211937      21.124774    
   1955000   3910000        298.95168      171.69917      12198.131      11695.404      7163.699       4531.7052      2478.8693      2385.0845      8757.7471      0             -9089.9957      0              0             -289.51613      200764.96      58.554819      58.554819      58.554819      0.89976048     352.372        282.60505     -119.87953    
   1956000   3912000        303.41576     -98.292653      11474.098      11762.145      7270.6706      4491.4745      2474.204       2367.3741      8746.1547      0             -9096.2583      0              0             -289.26341      200940.36      58.571866      58.571866      58.571866      0.89897508    -231.18159     -366.90684      303.21047    
   1957000   3914000        302.21638     -98.207591      11542.542      11829.881      7241.93        4587.9511      2527.5332      2444.912       8742.3125      0             -9126.8067      0              0             -289.72571      200619.73      58.540696      58.540696      58.540696      0.90041183     153.72502     -254.95637     -193.39143    
   1958000   3916000        301.16487     -355.93403      10629.922      11674.875      7216.7331      4458.1418      2513.5306      2360.9429      8685.2955      0             -9101.6272      0              0             -288.74159      201303.51      58.607129      58.607129      58.607129      0.89735336    -26.602041     -752.62133     -288.57872    
   1959000   3918000        306.83652      545.39403      13406.693      11805.685      7352.6413      4453.0442      2464.1792      2385.1937      8680.2383      0             -9076.5669      0              0             -288.77099      201283.01      58.60514       58.60514       58.60514       0.89744474     673.26225      332.6404       630.27944    
   1960000   3920000        300.32119     -93.972122      11332.657      11609.867      7196.5162      4413.351       2381.5683      2422.3778      8670.2233      0             -9060.8184      0              0             -287.36047      202271.02      58.700872      58.700872      58.700872      0.89306109    -342.23037     -176.71655      237.03055    
   1961000   3922000        305.37591     -260.72477      11118.941      11887.444      7317.6411      4569.8027      2438.9516      2447.9799      8749.6656      0             -9066.7944      0              0             -287.58979      202109.73      58.685265      58.685265      58.685265      0.89377379    -555.71543     -812.03683      585.57796    
   1962000   3924000        301.2053      -93.775445      11467.944      11743.213      7217.7018      4525.5112      2460.4077      2457.3357      8691.5302      0             -9083.7624      0              0             -288.78064      201276.29      58.604487      58.604487      58.604487      0.89747471     66.973175     -680.02785      331.72834    
   1963000   3926000        304.30557     -45.11149       11632.438      11765.07       7291.9928      4473.0774      2395.5148      2404.9398      8761.63        0             -9089.0072      0              0             -288.32037      201597.6       58.635655      58.635655      58.635655      0.8960443     -531.93781      421.79271     -25.189365    
   1964000   3928000        299.72129     -5.9244751      11658.847      11676.261      7182.1409      4494.1201      2472.2237      2405.3456      8713.3544      0             -9096.8037      0              0             -288.40357      201539.44      58.630017      58.630017      58.630017      0.89630286     391.08436     -426.0923       17.234513    
   1965000   3930000        296.1393      -193.93265      11089.143      11657.989      7096.3067      4561.6819      2475.6891      2376.8445      8822.3659      0             -9113.2177      0              0             -288.99667      201125.83      58.589881      58.589881      58.589881      0.89814609    -176.94586     -276.91858     -127.93349    
   1966000   3932000        299.44249      95.401466      12142.78       11862.072      7175.4602      4686.6119      2515.3675      2418.4247      8800.6221      0             -9047.8025      0              0             -288.09623      201754.44      58.650858      58.650858      58.650858      0.89534772     407.69122     -81.69688      -39.789941    
   1967000   3934000        305.67144      532.49907      13470.622      11906.661      7324.7228      4581.9385      2469.6774      2400.8163      8766.3926      0             -9054.9478      0              0             -288.62212      201386.84      58.615215      58.615215      58.615215      0.89698205     723.09292      174.85327      699.55102    
   1968000   3936000        308.36154      183.53063      12506.04       11966.54       7389.1848      4577.355       2469.2376      2465.0909      8713.7039      0             -9070.6773      0              0             -288.37236      201561.26      58.632132      58.632132      58.632132      0.89620585     186.20305      406.46466     -42.075823    
   1969000   3938000        301.4548       237.84989      12483.658      11779.205      7223.6807      4555.5242      2403.5859      2428.4372      8713.8238      0             -8990.3228      0              0             -286.2116       203082.95      58.77931       58.77931       58.77931       0.88949063     681.07659     -181.67814      214.15121    
   1970000   3940000        303.58721      58.285382      11928.064      11755.869      7274.779       4481.0905      2409.53        2430.1948      8689.0735      0             -9047.7078      0              0             -286.93009      202574.41      58.730207      58.730207      58.730207      0.89172357     568.06879     -93.872676     -299.33997    
   1971000   3942000        298.25205     -57.719948      11539.208      11709.036      7146.9339      4562.102       2448.4405      2441.7595      8721.4907      0             -9049.5886      0              0             -288.10737      201746.64      58.650102      58.650102      58.650102      0.89538233    -738.50139      221.45804      343.88351    
   1972000   3944000        304.01016      86.373905      12122.996      11869.26       7284.9139      4584.3461      2484.2027      2419.5475      8720.9402      0             -9040.3443      0              0             -288.56061      201429.76      58.619379      58.619379      58.619379      0.89679092    -135.63585      420.5218      -25.764239    
   1973000   3946000        300.03773      266.2162       12375.481      11595.489      7189.7238      4405.7648      2357.6358      2416.8337      8722.9399      0             -9091.6447      0              0             -289.32147      200900.04      58.567948      58.567948      58.567948      0.89915551     280.64858     -69.316889      587.31691    
   1974000   3948000        304.15641      144.63258      12255.531      11832.253      7288.4186      4543.8346      2483.7725      2415.418       8760.9347      0             -9116.2905      0              0             -289.65225      200670.61      58.545645      58.545645      58.545645      0.90018352     1010.9037     -694.67543      117.66948    
   1975000   3950000        299.00932      402.20214      12899.898      11724.167      7165.0802      4559.0873      2469.1759      2426.3179      8786.7356      0             -9123.142       0              0             -289.98352      200441.38      58.523343      58.523343      58.523343      0.90121302     461.17988      295.38959      450.03696    
   1976000   3952000        298.62003     -91.041956      11435.306      11702.167      7155.7517      4546.4152      2482.3968      2393.5882      8738.3147      0             -9067.8844      0              0             -289.19715      200986.4       58.576339      58.576339      58.576339      0.89876914    -325.25196     -648.3368       700.46289    
   1977000   3954000        303.36974      634.10167      13606.4        11755.586      7269.5677      4486.0188      2462.2428      2371.8099      8752.7825      0             -9100.8164      0              0             -290.42412      200137.28      58.493732      58.493732      58.493732      0.90258234     589.88107      437.2294       875.19454    
   1978000   3956000        298.89881      35.670372      11801.377      11696.642      7162.4322      4534.2103      2455.0684      2416.5574      8746.9434      0             -9084.3588      0              0             -288.70392      201329.77      58.609678      58.609678      58.609678      0.89723629     599.14883     -454.6437      -37.494019    
   1979000   3958000        300.84638     -177.92971      11171.53       11693.879      7209.1011      4484.7783      2460.4847      2363.4361      8763.074       0             -9102.2165      0              0             -288.75134      201296.71      58.60647       58.60647       58.60647       0.89738365    -380.43601     -76.665363     -76.687756    
   1980000   3960000        303.79017      198.22044      12347.54       11765.236      7279.6424      4485.5936      2407.5579      2455.8367      8743.514       0             -9121.3149      0              0             -288.5594       201430.61      58.619461      58.619461      58.619461      0.89678714    -94.253826      190.37819      498.53697    
   1981000   3962000        297.57638      152.83785      12077.842      11629.581      7130.7431      4498.8376      2488.0871      2338.2897      8775.0968      0             -9102.636       0              0             -289.02564      201105.67      58.587924      58.587924      58.587924      0.89823612    -281.9785       877.84368     -137.35165    
   1982000   3964000        296.63224      357.51789      12739.46       11688.376      7108.1189      4580.2574      2512.8313      2437.5207      8701.2051      0             -9071.2997      0              0             -288.33472      201587.57      58.634683      58.634683      58.634683      0.89608887     431.84644      670.43117     -29.723949    
   1983000   3966000        305.59863     -411.34904      10552.47       11761.242      7322.978       4438.2644      2442.5713      2378.1198      8700.1567      0             -9082.5833      0              0             -288.47133      201492.11      58.625426      58.625426      58.625426      0.89651343    -447.19724     -311.67805     -475.17183    
   1984000   3968000        302.73861     -241.45787      10946.564      11657.556      7254.4442      4403.1117      2404.2569      2355.4199      8702.8475      0             -9059.4127      0              0             -287.8811       201905.21      58.665464      58.665464      58.665464      0.89467912     83.524201     -654.36462     -153.5332     
   1985000   3970000        297.69658      62.984217      11766.263      11582.128      7133.6233      4448.5043      2475.9181      2388.1074      8671.0008      0             -9086.522       0              0             -289.95466      200461.32      58.525284      58.525284      58.525284      0.90112334    -74.244833      503.73739     -240.53991    
   1986000   3972000        302.32322      637.9243       13462.924      11595.117      7244.4902      4350.6267      2431.0495      2302.3664      8751.9956      0             -9134.7848      0              0             -289.51672      200764.55      58.554779      58.554779      58.554779      0.89976232     1245.2678     -153.91973      822.42483    
   1987000   3974000        295.83444     -3.297284       11566.94       11576.62       7089.0014      4487.6188      2445.6446      2431.3983      8712.0852      0             -9101.5092      0              0             -288.72636      201314.12      58.608159      58.608159      58.608159      0.89730603    -389.01767      411.97595     -32.850136    
   1988000   3976000        302.1256       398.26144      12862.864      11694.82       7239.7547      4455.065       2501.1988      2387.3594      8683.9627      0             -9117.4558      0              0             -289.03182      201101.37      58.587506      58.587506      58.587506      0.89825534     541.65118      324.09518      329.03797    
   1989000   3978000        300.49565     -220.11734      11196.324      11845.02       7200.6968      4644.3227      2515.5412      2433.373       8779.6386      0             -9084.2301      0              0             -287.64034      202074.21      58.681828      58.681828      58.681828      0.89393087    -115.08169     -474.98449     -70.285846    
   1990000   3980000        300.46456      941.91442      14434.312      11670.336      7199.9518      4470.3845      2455.6341      2391.2211      8718.6844      0             -9095.155       0              0             -288.8776       201208.73      58.59793       58.59793       58.59793       0.89777606     438.31097      1044.8976      1342.5347    
   1991000   3982000        295.84432      96.175016      11840.02       11556.711      7089.2382      4467.4731      2427.278       2395.6009      8723.5257      0             -9078.9315      0              0             -287.76536      201986.42      58.673328      58.673328      58.673328      0.89431943     242.23871     -89.330861      135.6172     
   1992000   3984000        303.19475     -142.90864      11328.506      11748.8        7265.3745      4483.4252      2405.3365      2394.0794      8739.245       0             -9055.2357      0              0             -288.23202      201659.39      58.641646      58.641646      58.641646      0.89576972     281.16515     -576.43513     -133.45593    
   1993000   3986000        298.3913      -100.74159      11243.987      11538.976      7150.2707      4388.7057      2404.9742      2373.8478      8676.3694      0             -9066.4856      0              0             -289.4937       200780.52      58.556331      58.556331      58.556331      0.89969077     679.93763     -378.82815     -603.33425    
   1994000   3988000        302.10098     -234.61474      11026.913      11713.968      7239.1649      4474.8035      2459.2683      2403.7421      8734.5901      0             -9122.797       0              0             -289.46771      200798.54      58.558083      58.558083      58.558083      0.89961001    -372.07586     -177.98089     -153.78746    
   1995000   3990000        297.70003      159.9691       12108.608      11639.558      7133.706       4505.8523      2495.3812      2395.7049      8732.4265      0             -9117.6604      0              0             -289.10409      201051.1       58.582623      58.582623      58.582623      0.89847994     390.83453     -142.28944      231.36222    
   1996000   3992000        300.1172      -162.16228      11088.066      11563.419      7191.6281      4371.7906      2401.978       2391.0524      8694.3537      0             -9115.5935      0              0             -289.18174      200997.12      58.57738       58.57738       58.57738       0.89872125     28.727231     -147.02798     -368.18609    
   1997000   3994000        298.5902       27.205475      11633.335      11553.724      7155.0369      4398.687       2442.2512      2441.4505      8651.8583      0             -9136.8729      0              0             -289.68221      200649.86      58.543627      58.543627      58.543627      0.90027661    -510.9824       436.68969      155.90914    
   1998000   3996000        302.79613     -178.68107      11156.241      11679.975      7255.8225      4424.152       2402.4342      2435.3917      8687.6789      0             -9101.3527      0              0             -289.20412      200981.56      58.575868      58.575868      58.575868      0.89879082     185.42314     -524.84153     -196.62483    
   1999000   3998000        303.57205      277.55181      12435.385      11623.522      7274.4156      4349.1062      2396.1861      2394.583       8744.4593      0             -9186.1222      0              0             -289.79975      200568.48      58.53571       58.53571       58.53571       0.90064193    -247.82897      943.27398      137.21042    
   2000000   4000000        300.81139      71.241398      11959.011      11750.24       7208.2628      4541.9771      2498.9503      2450.4534      8681.8365      0             -9089.2632      0              0             -289.26617      200938.45      58.57168       58.57168       58.57168       0.89898365     115.35502     -96.640601      195.00977    
Loop time of 9381.43 on 8 procs for 2000000 steps with 8040 atoms

Performance: 36.839 ns/day, 0.651 hours/ns, 213.187 timesteps/s, 1.714 Matom-step/s
98.4% CPU use with 8 MPI tasks x 1 OpenMP threads

MPI task timing breakdown:
Section |  min time  |  avg time  |  max time  |%varavg| %total
---------------------------------------------------------------
Pair    | 6707.9     | 6932.3     | 7273.8     | 247.8 | 73.89
Bond    | 304.11     | 309.05     | 313.82     |  17.4 |  3.29
Neigh   | 583.41     | 583.57     | 583.72     |   0.4 |  6.22
Comm    | 1060.2     | 1402.7     | 1631.5     | 551.6 | 14.95
Output  | 6.2549     | 6.6745     | 7.0174     |   9.7 |  0.07
Modify  | 96.709     | 97.448     | 98.343     |   5.5 |  1.04
Other   |            | 49.69      |            |       |  0.53

Nlocal:           1005 ave        1022 max         982 min
Histogram: 1 0 1 0 1 1 1 1 0 2
Nghost:        8221.62 ave        8255 max        8199 min
Histogram: 3 1 1 0 0 0 0 1 0 2
Neighs:         342804 ave      361447 max      326857 min
Histogram: 1 0 3 0 1 0 0 2 0 1

Total # of neighbors = 2742434
Ave neighs/atom = 341.09876
Ave special neighs/atom = 5.9701493
Neighbor list builds = 59635
Dangerous builds = 0

# --- Cleanup ---
unfix npt_fix

undump dump_npt

# --- Write Output ---
write_dump all custom npt_cool_last.dump id type mol x y z xu yu zu vx vy vz modify sort id
write_data /home/arz2/PolyJarvis/data/cis-PBD4/lammps/equil/npt_cool/npt_cool_out.data
System init for write_data ...
Generated 3 of 3 mixed pair_coeff terms from arithmetic mixing rule

print "STAGE COMPLETE: NPT T=400.0->300.0K P=1.0->1.0atm steps=2000000"
STAGE COMPLETE: NPT T=400.0->300.0K P=1.0->1.0atm steps=2000000
quit
rithmetic mixing rule
STAGE COMPLETE: NPT T=400.0->300.0K P=1.0->1.0atm steps=2000000
