units real
atom_style full
boundary p p p

# --- Force Field Styles ---
pair_style lj/class2/coul/long 9.5 9.5
kspace_style pppm 1e-6
dielectric 1.000000
bond_style class2
angle_style class2
dihedral_style class2
improper_style class2
special_bonds lj/coul 0 0 1
pair_modify mix sixthpower tail yes
neighbor 2.0 bin
neigh_modify delay 0 every 1 check yes
neigh_modify one 4000
package gpu 1 neigh no

read_data /home/arz2/PolyJarvis/data/PEEK1/lammps/equil/minimize/minimize_out.data
Reading data file ...
  orthogonal box = (0 0 0) to (44.324856 44.324856 44.324856)
  1 by 1 by 3 MPI processor grid
  reading atoms ...
  4096 atoms
  reading velocities ...
  4096 velocities
  scanning bonds ...
  3 = max bonds/atom
  scanning angles ...
  3 = max angles/atom
  scanning dihedrals ...
  9 = max dihedrals/atom
  scanning impropers ...
  1 = max impropers/atom
  orthogonal box = (0 0 0) to (44.324856 44.324856 44.324856)
  1 by 1 by 3 MPI processor grid
  reading bonds ...
  4448 bonds
  reading angles ...
  7080 angles
  reading dihedrals ...
  10544 dihedrals
  reading impropers ...
  2280 impropers
Finding 1-2 1-3 1-4 neighbors ...
  special bond factors lj:    0        0        1       
  special bond factors coul:  0        0        1       
     3 = max # of 1-2 neighbors
     6 = max # of 1-3 neighbors
     9 = max # of special neighbors
  special bonds CPU = 0.000 seconds
  read_data CPU = 0.078 seconds
include /home/arz2/PolyJarvis/data/PEEK1/lammps/equil/emc_build.params
# LAMMPS parameters created by EMC v9.4.4, build Jul 31 2025 20:33:44

# Variables

variable	seed		index	-1
variable	ntotal		index	4096
variable	fshape		index	1
variable	output		index	emc_build
variable	field		index	pcff/pcff
variable	location1	index	/home/arz2/emc/field/
variable	nav		index	0.6022141179
variable	temperature	index	300
variable	radius		index	5
variable	nrelax		index	100
variable	weight_nonbond	index	0.0001
variable	weight_bond	index	0.0001
variable	weight_focus	index	1
variable	cutoff		index	9.5
variable	charge_cutoff	index	9.5
variable	kappa		index	4
variable	density1	index	0.66
variable	lprevious	index	0
variable	lphase		index	44.3248558022
variable	f_poly		index	8
variable	chem_repeat	index	*Oc1ccc(Oc2ccc(C(=O)c3ccc(cc3)*)cc2)cc1
variable	chem_cap	index	*[H]
variable	lg_repeat	index	34
variable	lg_cap		index	1
variable	norm_poly	index	100
variable	l_poly		index	512
variable	mg_repeat	index	260.29514
variable	mg_cap		index	0
variable	m_poly		index	3904.4271
variable	n_poly		index	8
variable	mtotal		index	34612.81032
variable	nphase1		index	4096
variable	mphase1		index	34612.81032
variable	vphase1		index	87084.7269122
variable	lbox		index	44.3248558022
variable	lphase1		index	44.3248558022
variable	lxx		index	44.3248558022
variable	lyy		index	44.3248558022
variable	lzz		index	44.3248558022
variable	lzy		index	0
variable	lzx		index	0
variable	lyx		index	0
variable	vtotal		index	87084.7269122
variable	nl_poly		index	8

# Types

variable	type_c_0	index	1
variable	type_cp		index	2
variable	type_hc		index	3
variable	type_ho		index	4
variable	type_o_1	index	5
variable	type_oc		index	6
variable	type_oh		index	7

variable	type_bond_c_0_cp index	1
variable	type_bond_c_0_o_1 index	2
variable	type_bond_cp_cp	index	3
variable	type_bond_cp_hc	index	4
variable	type_bond_cp_oc	index	5
variable	type_bond_cp_oh	index	6
variable	type_bond_ho_oh	index	7

variable	type_angle_c_0_cp_cp index	1
variable	type_angle_cp_c_0_cp index	2
variable	type_angle_cp_c_0_o_1 index	3
variable	type_angle_cp_cp_cp index	4
variable	type_angle_cp_cp_hc index	5
variable	type_angle_cp_cp_oc index	6
variable	type_angle_cp_cp_oh index	7
variable	type_angle_cp_oc_cp index	8
variable	type_angle_cp_oh_ho index	9

# Clusters

variable	n0_poly		index	1
variable	n1_poly		index	8
variable	nl_poly		index	8

# Flags

variable	flag_charged	index	1

# Masses

mass		1    12.01115  # c_0
mass		2    12.01115  # cp
mass		3     1.00797  # hc
mass		4     1.00797  # ho
mass		5    15.99940  # o_1
mass		6    15.99940  # oc
mass		7    15.99940  # oh

# Potentials

pair_modify	mix sixthpower tail yes
special_bonds	lj/coul 0 0 1

# Pair Coeffs

pair_coeff	 1  1    0.12000    3.30800  # c_0,c_0
pair_coeff	 2  2    0.06400    4.01000  # cp,cp
pair_coeff	 3  3    0.02000    2.99500  # hc,hc
pair_coeff	 4  4    0.01300    1.09800  # ho,ho
pair_coeff	 5  5    0.26700    3.30000  # o_1,o_1
pair_coeff	 6  6    0.24000    3.53500  # oc,oc
pair_coeff	 7  7    0.24000    3.53500  # oh,oh

# Bond Coeffs

bond_coeff	1    1.48900  339.35740 -655.72360  670.23620  # c_0,cp
bond_coeff	2    1.21600  823.79480 -1878.79400 2303.53110  # c_0,o_1
bond_coeff	3    1.41700  470.83610 -627.61790 1327.63450  # cp,cp
bond_coeff	4    1.09820  372.82510 -803.45260  894.31730  # cp,hc
bond_coeff	5    1.37680  428.87980 -738.23510 1114.96550  # cp,oc
bond_coeff	6    1.37680  428.87980 -738.23510 1114.96550  # cp,oh
bond_coeff	7    0.96500  532.50620 -1282.90500 2004.76580  # ho,oh

# Angle Coeffs

angle_coeff	1  108.40000   43.95940   -8.39240   -9.33790  # c_0,cp,cp
angle_coeff	2  110.58840   34.62140   -7.09390   -7.40320  # cp,c_0,cp
angle_coeff	3  119.30000   65.10160  -17.97660    0.00000  # cp,c_0,o_1
angle_coeff	4  118.90000   61.02260  -34.99310    0.00000  # cp,cp,cp
angle_coeff	5  117.94000   35.15580  -12.46820    0.00000  # cp,cp,hc
angle_coeff	6  123.42000   73.67810  -21.67870    0.00000  # cp,cp,oc
angle_coeff	7  123.42000   73.67810  -21.67870    0.00000  # cp,cp,oh
angle_coeff	8  109.50000   60.00000    0.00000    0.00000  # cp,oc,cp
angle_coeff	9  108.19000   53.12500   -8.50160    0.00000  # cp,oh,ho

# BondBond Coeffs

angle_coeff	1 bb    0.00000    1.48900    1.41700  # c_0,cp,cp
angle_coeff	2 bb    0.00000    1.48900    1.48900  # cp,c_0,cp
angle_coeff	3 bb    0.00000    1.48900    1.21600  # cp,c_0,o_1
angle_coeff	4 bb   68.28560    1.41700    1.41700  # cp,cp,cp
angle_coeff	5 bb    1.07950    1.41700    1.09820  # cp,cp,hc
angle_coeff	6 bb   48.47540    1.41700    1.37680  # cp,cp,oc
angle_coeff	7 bb   48.47540    1.41700    1.37680  # cp,cp,oh
angle_coeff	8 bb    0.00000    1.37680    1.37680  # cp,oc,cp
angle_coeff	9 bb   20.65770    1.37680    0.96500  # cp,oh,ho

# BondAngle Coeffs

angle_coeff	1 ba    0.00000    0.00000    1.48900    1.41700  # c_0,cp,cp
angle_coeff	2 ba    0.00000    0.00000    1.48900    1.48900  # cp,c_0,cp
angle_coeff	3 ba    0.00000    0.00000    1.48900    1.21600  # cp,c_0,o_1
angle_coeff	4 ba   28.87080   28.87080    1.41700    1.41700  # cp,cp,cp
angle_coeff	5 ba   20.00330   24.21830    1.41700    1.09820  # cp,cp,hc
angle_coeff	6 ba   58.47900  107.68060    1.41700    1.37680  # cp,cp,oc
angle_coeff	7 ba   58.47900  107.68060    1.41700    1.37680  # cp,cp,oh
angle_coeff	8 ba    0.00000    0.00000    1.37680    1.37680  # cp,oc,cp
angle_coeff	9 ba   53.86140   23.92240    1.37680    0.96500  # cp,oh,ho

# Dihedral Coeffs

dihedral_coeff	 1    0.00000    0.00000    4.62820    0.00000    0.00000    0.00000  # c_0,cp,cp,cp
dihedral_coeff	 2    0.00000    0.00000    2.16700    0.00000    0.00000    0.00000  # c_0,cp,cp,hc
dihedral_coeff	 3    0.00000    0.00000    2.50000    0.00000    0.00000    0.00000  # cp,c_0,cp,cp
dihedral_coeff	 4    0.00000    0.00000    0.90630    0.00000    0.00000    0.00000  # cp,cp,c_0,o_1
dihedral_coeff	 5    8.36670    0.00000    1.19320    0.00000    0.00000    0.00000  # cp,cp,cp,cp
dihedral_coeff	 6    0.00000    0.00000    3.96610    0.00000    0.00000    0.00000  # cp,cp,cp,hc
dihedral_coeff	 7    0.00000    0.00000    4.84980    0.00000    0.00000    0.00000  # cp,cp,cp,oc
dihedral_coeff	 8    0.00000    0.00000    4.84980    0.00000    0.00000    0.00000  # cp,cp,cp,oh
dihedral_coeff	 9    0.00000    0.00000    1.80000    0.00000    0.00000    0.00000  # cp,cp,oc,cp
dihedral_coeff	10   -0.69000    0.00000    0.50970    0.00000    0.00950    0.00000  # cp,cp,oh,ho
dihedral_coeff	11    0.00000    0.00000    1.87690    0.00000    0.00000    0.00000  # hc,cp,cp,hc
dihedral_coeff	12    0.00000    0.00000    1.72340    0.00000    0.00000    0.00000  # hc,cp,cp,oc
dihedral_coeff	13    0.00000    0.00000    1.72340    0.00000    0.00000    0.00000  # hc,cp,cp,oh

# MiddleBondTorsion Coeffs

dihedral_coeff	 1 mbt    0.00000    0.00000    0.00000    1.41700  # c_0,cp,cp,cp
dihedral_coeff	 2 mbt    0.00000    0.00000    0.00000    1.41700  # c_0,cp,cp,hc
dihedral_coeff	 3 mbt    0.00000    0.00000    0.00000    1.48900  # cp,c_0,cp,cp
dihedral_coeff	 4 mbt    0.00000    0.00000    0.00000    1.48900  # cp,cp,c_0,o_1
dihedral_coeff	 5 mbt   27.59890   -2.31200    0.00000    1.41700  # cp,cp,cp,cp
dihedral_coeff	 6 mbt    0.00000   -1.15210    0.00000    1.41700  # cp,cp,cp,hc
dihedral_coeff	 7 mbt    0.00000    4.82550    0.00000    1.41700  # cp,cp,cp,oc
dihedral_coeff	 8 mbt    0.00000    4.82550    0.00000    1.41700  # cp,cp,cp,oh
dihedral_coeff	 9 mbt    0.00000    0.00000    0.00000    1.37680  # cp,cp,oc,cp
dihedral_coeff	10 mbt    1.15800    3.26970    3.51320    1.37680  # cp,cp,oh,ho
dihedral_coeff	11 mbt    0.00000    4.82280    0.00000    1.41700  # hc,cp,cp,hc
dihedral_coeff	12 mbt    0.00000    5.54320    0.00000    1.41700  # hc,cp,cp,oc
dihedral_coeff	13 mbt    0.00000    5.54320    0.00000    1.41700  # hc,cp,cp,oh

# EndBondTorsion Coeffs

dihedral_coeff	 1 ebt    0.00000    0.00000    0.00000    0.00000    0.00000    0.00000    1.48900    1.41700  # c_0,cp,cp,cp
dihedral_coeff	 2 ebt    0.00000    0.00000    0.00000    0.00000    0.00000    0.00000    1.48900    1.09820  # c_0,cp,cp,hc
dihedral_coeff	 3 ebt    0.00000    0.00000    0.00000    0.00000    0.00000    0.00000    1.48900    1.41700  # cp,c_0,cp,cp
dihedral_coeff	 4 ebt    0.00000    0.00000    0.00000    0.00000    0.00000    0.00000    1.41700    1.21600  # cp,cp,c_0,o_1
dihedral_coeff	 5 ebt   -0.11850    6.32040    0.00000   -0.11850    6.32040    0.00000    1.41700    1.41700  # cp,cp,cp,cp
dihedral_coeff	 6 ebt    0.00000   -6.89580    0.00000    0.00000   -0.46690    0.00000    1.41700    1.09820  # cp,cp,cp,hc
dihedral_coeff	 7 ebt    0.00000    0.26550    0.00000    0.00000    4.89050    0.00000    1.41700    1.37680  # cp,cp,cp,oc
dihedral_coeff	 8 ebt    0.00000    0.26550    0.00000    0.00000    4.89050    0.00000    1.41700    1.37680  # cp,cp,cp,oh
dihedral_coeff	 9 ebt    0.00000    0.00000    0.00000    0.00000    0.00000    0.00000    1.41700    1.37680  # cp,cp,oc,cp
dihedral_coeff	10 ebt    0.90000   -1.34560    1.19000    3.41320    0.58730   -0.13230    1.41700    0.96500  # cp,cp,oh,ho
dihedral_coeff	11 ebt    0.00000   -0.68900    0.00000    0.00000   -0.68900    0.00000    1.09820    1.09820  # hc,cp,cp,hc
dihedral_coeff	12 ebt    0.00000   -1.58670    0.00000    0.00000    4.26410    0.00000    1.09820    1.37680  # hc,cp,cp,oc
dihedral_coeff	13 ebt    0.00000   -1.58670    0.00000    0.00000    4.26410    0.00000    1.09820    1.37680  # hc,cp,cp,oh

# AngleTorsion Coeffs

dihedral_coeff	 1 at    0.00000    0.00000    0.00000    0.00000    0.00000    0.00000  108.40000  118.90000  # c_0,cp,cp,cp
dihedral_coeff	 2 at    0.00000    0.00000    0.00000    0.00000    0.00000    0.00000  108.40000  117.94000  # c_0,cp,cp,hc
dihedral_coeff	 3 at    0.00000    0.00000    0.00000    0.00000    0.00000    0.00000  110.58840  108.40000  # cp,c_0,cp,cp
dihedral_coeff	 4 at    0.00000    0.00000    0.00000    0.00000    0.00000    0.00000  108.40000  119.30000  # cp,cp,c_0,o_1
dihedral_coeff	 5 at    1.97670    1.02390    0.00000    1.97670    1.02390    0.00000  118.90000  118.90000  # cp,cp,cp,cp
dihedral_coeff	 6 at    0.00000    2.50140    0.00000    0.00000    2.71470    0.00000  118.90000  117.94000  # cp,cp,cp,hc
dihedral_coeff	 7 at    0.00000   10.01550    0.00000    0.00000    1.74040    0.00000  118.90000  123.42000  # cp,cp,cp,oc
dihedral_coeff	 8 at    0.00000   10.01550    0.00000    0.00000    1.74040    0.00000  118.90000  123.42000  # cp,cp,cp,oh
dihedral_coeff	 9 at    0.00000    0.00000    0.00000    0.00000    0.00000    0.00000  123.42000  109.50000  # cp,cp,oc,cp
dihedral_coeff	10 at   -5.13600   -1.01220    0.00000    4.68520    0.02300   -0.59800  123.42000  108.19000  # cp,cp,oh,ho
dihedral_coeff	11 at    0.00000    2.45010    0.00000    0.00000    2.45010    0.00000  117.94000  117.94000  # hc,cp,cp,hc
dihedral_coeff	12 at    0.00000    1.87290    0.00000    0.00000    2.57060    0.00000  117.94000  123.42000  # hc,cp,cp,oc
dihedral_coeff	13 at    0.00000    1.87290    0.00000    0.00000    2.57060    0.00000  117.94000  123.42000  # hc,cp,cp,oh

# AngleAngleTorsion Coeffs

dihedral_coeff	 1 aat    0.00000  108.40000  118.90000  # c_0,cp,cp,cp
dihedral_coeff	 2 aat    0.00000  108.40000  117.94000  # c_0,cp,cp,hc
dihedral_coeff	 3 aat    0.00000  110.58840  108.40000  # cp,c_0,cp,cp
dihedral_coeff	 4 aat    0.00000  108.40000  119.30000  # cp,cp,c_0,o_1
dihedral_coeff	 5 aat    0.00000  118.90000  118.90000  # cp,cp,cp,cp
dihedral_coeff	 6 aat   -4.81410  118.90000  117.94000  # cp,cp,cp,hc
dihedral_coeff	 7 aat  -21.02470  118.90000  123.42000  # cp,cp,cp,oc
dihedral_coeff	 8 aat  -21.02470  118.90000  123.42000  # cp,cp,cp,oh
dihedral_coeff	 9 aat    0.00000  123.42000  109.50000  # cp,cp,oc,cp
dihedral_coeff	10 aat   -4.60720  123.42000  108.19000  # cp,cp,oh,ho
dihedral_coeff	11 aat    0.35980  117.94000  117.94000  # hc,cp,cp,hc
dihedral_coeff	12 aat    4.22960  117.94000  123.42000  # hc,cp,cp,oc
dihedral_coeff	13 aat    4.22960  117.94000  123.42000  # hc,cp,cp,oh

# BondBond13 Coeffs

dihedral_coeff	 1 bb13    0.00000    1.48900    1.41700  # c_0,cp,cp,cp
dihedral_coeff	 2 bb13    0.00000    1.48900    1.09820  # c_0,cp,cp,hc
dihedral_coeff	 3 bb13    0.00000    1.48900    1.41700  # cp,c_0,cp,cp
dihedral_coeff	 4 bb13    0.00000    1.41700    1.21600  # cp,cp,c_0,o_1
dihedral_coeff	 5 bb13   53.00000    1.41700    1.41700  # cp,cp,cp,cp
dihedral_coeff	 6 bb13   -6.27410    1.41700    1.09820  # cp,cp,cp,hc
dihedral_coeff	 7 bb13   -2.24360    1.41700    1.37680  # cp,cp,cp,oc
dihedral_coeff	 8 bb13   -2.24360    1.41700    1.37680  # cp,cp,cp,oh
dihedral_coeff	 9 bb13    0.00000    1.41700    1.37680  # cp,cp,oc,cp
dihedral_coeff	10 bb13    1.15900    1.41700    0.96500  # cp,cp,oh,ho
dihedral_coeff	11 bb13   -1.70770    1.09820    1.09820  # hc,cp,cp,hc
dihedral_coeff	12 bb13    2.05170    1.09820    1.37680  # hc,cp,cp,oc
dihedral_coeff	13 bb13    2.05170    1.09820    1.37680  # hc,cp,cp,oh

# Improper Coeffs

improper_coeff	1   38.79490    0.00000  # c_0,cp,cp,o_1
improper_coeff	2    0.00000    0.00000  # cp,c_0,cp,cp
improper_coeff	3    4.89120    0.00000  # cp,cp,cp,hc
improper_coeff	4   13.04210    0.00000  # cp,cp,cp,oc
improper_coeff	5   13.04210    0.00000  # cp,cp,cp,oh

# AngleAngle Coeffs

improper_coeff	1 aa    0.00000    0.00000    0.00000  110.58840  119.30000  119.30000  # c_0,cp,cp,o_1
improper_coeff	2 aa    0.00000    0.00000    0.00000  108.40000  108.40000  118.90000  # cp,c_0,cp,cp
improper_coeff	3 aa    0.00000    0.00000    0.00000  118.90000  117.94000  117.94000  # cp,cp,cp,hc
improper_coeff	4 aa    0.00000    0.00000    0.00000  118.90000  123.42000  123.42000  # cp,cp,cp,oc
improper_coeff	5 aa    0.00000    0.00000    0.00000  118.90000  123.42000  123.42000  # cp,cp,cp,oh


# --- Thermo Output ---
thermo_style custom step time temp press enthalpy etotal ke pe ebond eangle edihed eimp evdwl ecoul elong etail vol lx ly lz density pxx pyy pzz
thermo_modify flush yes
thermo 1000

# --- Trajectory ---
dump dump_nvt all custom 1000 nvt_softheat.dump id type mol x y z ix iy iz vx vy vz

# --- Restart Checkpointing ---
restart 10000 nvt_1.rst nvt_2.rst

# --- Initial Velocities (optional) ---
velocity all create 300.0 387399 mom yes rot yes dist gaussian

# --- SHAKE Constraints ---
# Constrains H-X bonds to allow 2fs timestep
# SHAKE disabled

# --- NVT Thermostat (Nose-Hoover) ---
# T_damp = 50.0 fs  (coupling timescale for heat exchange)
# Ramp: 300.0 K -> 850.0 K over 300000 steps
timestep 0.5
fix nvt_fix all nvt temp 300.0 850.0 50.0

run 300000

CITE-CITE-CITE-CITE-CITE-CITE-CITE-CITE-CITE-CITE-CITE-CITE-CITE

Your simulation uses code contributions which should be cited:

- GPU package (short-range, long-range and three-body potentials): doi:10.1016/j.cpc.2010.12.021, doi:10.1016/j.cpc.2011.10.012, doi:10.1016/j.cpc.2013.08.002, doi:10.1016/j.commatsci.2014.10.068, doi:10.1016/j.cpc.2016.10.020, doi:10.3233/APC200086

@Article{Brown11,
 author = {W. M. Brown and P. Wang and S. J. Plimpton and A. N. Tharrington},
 title = {Implementing Molecular Dynamics on Hybrid High Performance Computers---Short Range Forces},
 journal = {Comput.\ Phys.\ Commun.},
 year =    2011,
 volume =  182,
 pages =   {898--911},
 doi =     {10.1016/j.cpc.2010.12.021}
}

@Article{Brown12,
 author = {W. M. Brown and A. Kohlmeyer and S. J. Plimpton and A. N. Tharrington},
 title = {Implementing Molecular Dynamics on Hybrid High Performance Computers - Particle-Particle Particle-Mesh},
 journal = {Comput.\ Phys.\ Commun.},
 year =    2012,
 volume =  183,
 doi =     {10.1016/j.cpc.2011.10.012},
 pages =   {449--459}
}

@Article{Brown13,
 author = {W. M. Brown and Y. Masako},
 title = {Implementing Molecular Dynamics on Hybrid High Performance Computers---Three-Body Potentials},
 journal = {Comput.\ Phys.\ Commun.},
 year =    2013,
 volume =  184,
 pages =   {2785--2793},
 doi =     {10.1016/j.cpc.2013.08.002},
}

@Article{Trung15,
 author = {T. D. Nguyen and S. J. Plimpton},
 title = {Accelerating Dissipative Particle Dynamics Simulations for Soft Matter Systems},
 journal = {Comput.\ Mater.\ Sci.},
 year =    2015,
 doi =     {10.1016/j.commatsci.2014.10.068},
 volume =  100,
 pages =   {173--180}
}

@Article{Trung17,
 author = {T. D. Nguyen},
 title = {{GPU}-Accelerated {T}ersoff Potentials for Massively Parallel
    Molecular Dynamics Simulations},
 journal = {Comput.\ Phys.\ Commun.},
 year =    2017,
 doi =     {10.1016/j.cpc.2016.10.020},
 volume =  212,
 pages =   {113--122}
}

@inproceedings{Nikolskiy19,
 author = {V. Nikolskiy and V. Stegailov},
 title = {{GPU} Acceleration of Four-Site Water Models in {LAMMPS}},
 booktitle = {Proceedings of the International Conference on Parallel
    Computing (ParCo 2019), Prague, Czech Republic},
 doi =     {10.3233/APC200086},
 year =    2019
}

CITE-CITE-CITE-CITE-CITE-CITE-CITE-CITE-CITE-CITE-CITE-CITE-CITE

PPPM initialization ...
  using 12-bit tables for long-range coulomb
  G vector (1/distance) = 0.30180103
  grid = 32 32 32
  stencil order = 5
  estimated absolute RMS force accuracy = 0.00037991268
  estimated relative force accuracy = 1.1440958e-06
  using double precision KISS FFT
  3d grid and FFT values/proc = 25857 11264
Generated 21 of 21 mixed pair_coeff terms from sixthpower/sixthpower mixing rule
Neighbor list info ...
  update: every = 1 steps, delay = 0 steps, check = yes
  max neighbors/atom: 4000, page size: 100000
  master list distance cutoff = 11.5
  ghost atom cutoff = 11.5
  binsize = 5.75, bins = 8 8 8
  1 neighbor lists, perpetual/occasional/extra = 1 0 0
  (1) pair lj/class2/coul/long/gpu, perpetual
      attributes: full, newton on
      pair build: full/bin
      stencil: full/bin/3d
      bin: standard
Per MPI rank memory allocation (min/avg/max) = 16.03 | 16.78 | 17.35 Mbytes
   Step          Time           Temp          Press         Enthalpy        TotEng         KinEng         PotEng         E_bond        E_angle        E_dihed        E_impro         E_vdwl         E_coul         E_long         E_tail         Volume           Lx             Ly             Lz          Density          Pxx            Pyy            Pzz      
         0   0              300            942.66184      11397.278      10200.058      3661.9251      6538.1333      562.13854      1952.1211      1274.1455      14.778491      286.31682      7320.8461     -4872.2133     -202.96775      87084.727      44.324856      44.324856      44.324856      0.65999999     1016.0663      844.26551      967.65367    
      1000   500            306.28921      468.01925      14675.556      14081.152      3738.6939      10342.458      1844.1827      2784.2517      2494.6085      203.76854      523.52996      7358.8496     -4866.7328     -202.96775      87084.727      44.324856      44.324856      44.324856      0.65999999    -310.49677      1097.8318      616.72271    
      2000   1000           314.64975     -1188.3017      12590.92       14100.112      3840.7462      10259.366      1838.0404      2787.3147      2347.7314      194.10826      610.52039      7348.8014     -4867.1505     -202.96775      87084.727      44.324856      44.324856      44.324856      0.65999999    -1563.2761     -1308.2714     -693.35757    
      3000   1500           299.87201     -1700.9235      11894.25       14054.493      3660.3628      10394.13       1843.5325      2790.0288      2414.1674      209.07253      670.64376      7337.4696     -4870.7846     -202.96775      87084.727      44.324856      44.324856      44.324856      0.65999999    -2332.7029     -1175.3923     -1594.6752    
      4000   2000           308.53732     -1114.691       12651.77       14067.473      3766.1352      10301.338      1846.0462      2798.7338      2367.6904      202.22153      605.00342      7348.6463     -4867.0036     -202.96775      87084.727      44.324856      44.324856      44.324856      0.65999999    -1441.5816     -1661.9696     -240.52174    
      5000   2500           310.81818     -619.9056       13392.764      14180.07       3793.9764      10386.094      1933.0579      2831.3633      2394.4232      202.17291      543.34711      7350.089      -4868.3597     -202.96775      87084.727      44.324856      44.324856      44.324856      0.65999999    -591.53267     -251.12826     -1017.0559    
      6000   3000           301.20435     -416.57206      13587.272      14116.336      3676.6259      10439.71       1918.3163      2847.3809      2416.8384      204.51992      557.41774      7361.087      -4865.85       -202.96775      87084.727      44.324856      44.324856      44.324856      0.65999999    -636.97652     -982.30222      369.56256    
      7000   3500           315.44749      421.53439      14774.68       14239.314      3850.4836      10388.83       1916.6021      2806.8799      2420.9906      208.78643      557.96867      7350.0531     -4872.4508     -202.96775      87084.727      44.324856      44.324856      44.324856      0.65999999     65.374443      550.44166      648.78707    
      8000   4000           316.84223      76.989675      14435.954      14338.174      3867.5085      10470.665      1946.5142      2827.7452      2446.0588      218.44744      554.8548       7350.1686     -4873.1238     -202.96775      87084.727      44.324856      44.324856      44.324856      0.65999999     138.76592     -486.90168      579.10478    
      9000   4500           315.86147     -223.07063      14033.717      14317.026      3855.5369      10461.489      1922.7409      2801.3292      2463.7574      218.77017      566.21761      7361.4602     -4872.7861     -202.96775      87084.727      44.324856      44.324856      44.324856      0.65999999     191.3404       363.73176     -1224.2841    
     10000   5000           313.00107     -462.47647      13601.679      14189.043      3820.6216      10368.421      1890.823       2795.5596      2465.0867      219.44801      527.24895      7347.6331     -4877.3781     -202.96775      87084.727      44.324856      44.324856      44.324856      0.65999999    -1886.2137     -19.521239      518.30551    
     11000   5500           318.08519     -48.657235      14226.349      14288.146      3882.6806      10405.465      1950.8074      2804.1105      2433.4599      209.3667       534.58646      7349.0979     -4875.9639     -202.96775      87084.727      44.324856      44.324856      44.324856      0.65999999    -456.29236     -14.280294      324.60095    
     12000   6000           321.96693     -596.95571      13630.693      14388.851      3930.0626      10458.789      1983.3483      2812.2986      2413.9061      227.4207       532.0645       7366.066      -4876.3155     -202.96775      87084.727      44.324856      44.324856      44.324856      0.65999999    -242.32216     -882.05797     -666.487      
     13000   6500           322.22911     -268.52797      14098.876      14439.918      3933.263       10506.655      1994.5437      2825.0437      2490.7789      225.13266      487.67724      7358.9052     -4875.4267     -202.96775      87084.727      44.324856      44.324856      44.324856      0.65999999    -1838.6866      661.70814      371.3946     
     14000   7000           322.20647     -1607.7991      12406.126      14448.097      3932.9866      10515.111      1918.5741      2825.763       2547.8306      212.80691      517.63077      7363.324      -4870.8187     -202.96775      87084.727      44.324856      44.324856      44.324856      0.65999999    -1020.1911     -1961.2869     -1841.9192    
     15000   7500           328.3886      -1035.5586      13138.725      14453.927      4008.4483      10445.479      1946.1368      2772.7732      2525.2885      212.81426      504.90843      7357.0891     -4873.5317     -202.96775      87084.727      44.324856      44.324856      44.324856      0.65999999    -2174.241      -968.60178      36.166971    
     16000   8000           329.07097     -910.34623      13342.147      14498.324      4016.7776      10481.547      1964.432       2801.055       2547.0942      217.55706      467.09227      7356.2184     -4871.9022     -202.96775      87084.727      44.324856      44.324856      44.324856      0.65999999    -1018.3327     -994.11067     -718.59535    
     17000   8500           331.74157      265.07989      14891.582      14554.92       4049.3759      10505.544      1978.9852      2836.3506      2462.6798      208.28549      528.22926      7363.5658     -4872.5524     -202.96775      87084.727      44.324856      44.324856      44.324856      0.65999999    -373.93137     -265.63374      1434.8048    
     18000   9000           335.39442     -1134.0336      13183.335      14623.605      4093.9642      10529.641      2005.5606      2834.3584      2572.0574      218.69791      422.47081      7350.404      -4873.9082     -202.96775      87084.727      44.324856      44.324856      44.324856      0.65999999    -1064.4007     -582.70227     -1754.998     
     19000   9500           330.09527     -1023.917       13408.794      14709.211      4029.2805      10679.931      2029.659       2819.4933      2690.4021      221.70488      440.78337      7353.9443     -4876.0563     -202.96775      87084.727      44.324856      44.324856      44.324856      0.65999999    -1743.6932     -90.187165     -1237.8707    
     20000   10000          334.95775     -90.644737      14515.147      14630.269      4088.6341      10541.635      1997.7252      2831.3563      2541.4907      222.11952      466.15399      7356.206      -4873.4167     -202.96775      87084.727      44.324856      44.324856      44.324856      0.65999999     225.25408      489.66169     -986.84999    
     21000   10500          334.25874     -1062.3195      13327.137      14676.327      4080.1016      10596.225      2073.9359      2802.6231      2622.9551      219.93609      387.15428      7365.4175     -4875.797      -202.96775      87084.727      44.324856      44.324856      44.324856      0.65999999    -2121.8016     -74.42988      -990.72703    
     22000   11000          341.49304     -1245.2623      13123.034      14704.569      4168.4065      10536.162      1937.4358      2869.1455      2609.6988      241.13006      401.12579      7352.2431     -4874.6168     -202.96775      87084.727      44.324856      44.324856      44.324856      0.65999999    -1681.0418     -1652.0557     -402.68936    
     23000   11500          341.5976      -1445.1096      13082.977      14918.326      4169.6828      10748.643      2052.0724      2876.1741      2709.558       235.12443      400.00093      7349.835      -4874.1214     -202.96775      87084.727      44.324856      44.324856      44.324856      0.65999999    -1689.3733     -1100.0036     -1545.9519    
     24000   12000          345.16624     -2201.5985      12070.347      14866.469      4213.2431      10653.226      2016.4546      2861.1144      2634.8568      235.31281      432.07491      7345.6232     -4872.211      -202.96775      87084.727      44.324856      44.324856      44.324856      0.65999999    -1428.713      -1349.2686     -3826.814     
     25000   12500          342.90824     -2107.5612      12104.501      14781.191      4185.681       10595.51       1978.8388      2833.8382      2667.4213      229.77516      407.1301       7351.3632     -4872.8564     -202.96775      87084.727      44.324856      44.324856      44.324856      0.65999999    -2440.0659     -2068.7041     -1813.9136    
     26000   13000          340.24533     -1674.6435      12653.682      14780.549      4153.1765      10627.372      2059.2368      2866.9266      2609.6988      222.30317      399.83123      7345.8255     -4876.4496     -202.96775      87084.727      44.324856      44.324856      44.324856      0.65999999    -1267.6833     -1558.5442     -2197.703     
     27000   13500          355.66854     -1507.424       13108.225      15022.716      4341.4385      10681.277      2037.7135      2847.6081      2655.7754      233.57331      442.0121       7342.4301     -4877.8352     -202.96775      87084.727      44.324856      44.324856      44.324856      0.65999999    -982.49579     -1395.1926     -2144.5835    
     28000   14000          357.53954     -250.51365      14729.435      15047.598      4364.2767      10683.321      2050.4892      2945.4858      2516.7017      228.44619      472.09897      7345.1101     -4875.0112     -202.96775      87084.727      44.324856      44.324856      44.324856      0.65999999    -744.50949      291.71295     -298.74442    
     29000   14500          351.17074     -1348.8601      13280.517      14993.625      4286.5365      10707.089      2080.7711      2886.6587      2624.5143      234.19933      421.24615      7335.9947     -4876.2958     -202.96775      87084.727      44.324856      44.324856      44.324856      0.65999999    -1445.4606     -1752.8297     -848.29003    
     30000   15000          356.69033     -823.59513      14056.898      15102.898      4353.9109      10748.987      2120.2995      2836.5547      2615.843       227.4614       477.25508      7348.8555     -4877.2819     -202.96775      87084.727      44.324856      44.324856      44.324856      0.65999999    -252.65747     -1469.0313     -749.09666    
     31000   15500          356.89236     -802.48367      14030.44       15049.627      4356.3771      10693.25       2028.6378      2831.0577      2668.3406      223.58452      463.13783      7355.0606     -4876.5687     -202.96775      87084.727      44.324856      44.324856      44.324856      0.65999999    -1094.0177     -441.8764      -871.55691    
     32000   16000          361.34598     -516.10388      14513.188      15168.662      4410.7398      10757.922      2092.0331      2856.8078      2649.3691      216.50069      481.60176      7339.4744     -4877.865      -202.96775      87084.727      44.324856      44.324856      44.324856      0.65999999     3.0589435     -1144.2205     -407.15008    
     33000   16500          362.1774      -455.22656      14623.914      15202.07       4420.8885      10781.182      2077.1861      2929.3359      2624.0394      222.69461      472.5742       7333.203      -4877.8513     -202.96775      87084.727      44.324856      44.324856      44.324856      0.65999999    -557.38529      539.42084     -1347.7152    
     34000   17000          358.63884     -372.5013       14750.045      15223.137      4377.6952      10845.442      2072.636       2951.9213      2658.7522      232.97635      467.16945      7342.7071     -4880.7207     -202.96775      87084.727      44.324856      44.324856      44.324856      0.65999999    -519.29997     -283.14396     -315.05999    
     35000   17500          358.73201     -173.65825      15024.016      15244.57       4378.8325      10865.737      2089.2054      2913.3739      2690.9923      246.62006      461.83436      7344.2203     -4880.5093     -202.96775      87084.727      44.324856      44.324856      44.324856      0.65999999     877.54663      210.76102     -1609.2824    
     36000   18000          360.61606     -759.19491      14358.26       15322.469      4401.83        10920.639      2120.1698      2926.4057      2731.8195      249.58136      432.11343      7338.8165     -4878.2678     -202.96775      87084.727      44.324856      44.324856      44.324856      0.65999999    -1034.4334     -465.83357     -777.31776    
     37000   18500          364.83322     -1410.0613      13629.394      15420.23       4453.3065      10966.924      2138.8242      2948.4826      2731.6586      244.27863      435.71522      7343.3989     -4875.4344     -202.96775      87084.727      44.324856      44.324856      44.324856      0.65999999    -1838.4353      0.45720242    -2392.2057    
     38000   19000          367.48411      7.3347144      15561.869      15552.553      4485.6644      11066.889      2197.5237      2981.1747      2660.5047      255.623        508.19839      7339.9296     -4876.0654     -202.96775      87084.727      44.324856      44.324856      44.324856      0.65999999    -253.83205      607.73804     -331.90185    
     39000   19500          370.7795      -1331.4647      13830.244      15521.259      4525.8892      10995.37       2234.6242      2975.1743      2687.3724      246.32008      399.16311      7328.5281     -4875.8122     -202.96775      87084.727      44.324856      44.324856      44.324856      0.65999999    -335.86465     -2980.9624     -677.56719    
     40000   20000          368.64301     -874.07455      14287.345      15397.455      4499.8103      10897.645      2172.5057      2969.4417      2583.0765      250.24088      453.10403      7344.8914     -4875.6152     -202.96775      87084.727      44.324856      44.324856      44.324856      0.65999999    -656.58149     -109.03549     -1856.6067    
     41000   20500          377.71644     -728.01939      14758.157      15682.772      4610.5645      11072.208      2215.9637      2953.8545      2709.6314      251.72779      468.33697      7345.3789     -4872.6856     -202.96775      87084.727      44.324856      44.324856      44.324856      0.65999999    -871.73382     -1405.4637      93.1393      
     42000   21000          369.73423     -713.88747      14637.209      15543.876      4513.1303      11030.746      2159.9659      3003.8038      2703.6746      250.90088      450.27784      7338.9459     -4876.8234     -202.96775      87084.727      44.324856      44.324856      44.324856      0.65999999    -204.14523     -814.94918     -1122.568     
     43000   21500          369.87238     -313.7247       15145.401      15543.844      4514.8165      11029.028      2162.3796      2998.5521      2680.5068      257.78406      461.07341      7346.2789     -4877.5471     -202.96775      87084.727      44.324856      44.324856      44.324856      0.65999999     1155.7605     -1638.0617     -458.87294    
     44000   22000          378.44194     -74.907008      15560.972      15656.107      4619.4201      11036.686      2158.7079      2996.5937      2707.7417      255.59754      452.97638      7344.7542     -4879.6849     -202.96775      87084.727      44.324856      44.324856      44.324856      0.65999999    -423.28189     -482.36028      680.92115    
     45000   22500          387.58646     -183.80521      15601.643      15835.084      4731.042       11104.042      2240.0743      3051.9681      2651.081       251.93165      455.19646      7331.4044     -4877.6143     -202.96775      87084.727      44.324856      44.324856      44.324856      0.65999999     1159.8567     -608.43552     -1102.8368    
     46000   23000          383.24932     -402.87704      15218.404      15730.074      4678.101       11051.973      2244.8021      3012.6986      2664.681       250.96176      413.3389       7344.8283     -4879.3372     -202.96775      87084.727      44.324856      44.324856      44.324856      0.65999999    -152.70133      118.42891     -1174.3587    
     47000   23500          388.31056     -1014.2143      14527.943      15816.037      4739.8806      11076.156      2222.5581      3005.5378      2713.0452      252.56681      425.15248      7333.1078     -4875.8117     -202.96775      87084.727      44.324856      44.324856      44.324856      0.65999999    -1707.3387      165.95298     -1501.2571    
     48000   24000          383.56997     -201.30235      15642.308      15897.97       4682.0151      11215.955      2330.6199      2991.6138      2712.9595      281.84705      441.30261      7337.0923     -4879.4803     -202.96775      87084.727      44.324856      44.324856      44.324856      0.65999999    -305.67949      23.270024     -321.49758    
     49000   24500          385.71571     -738.88172      14860.361      15798.772      4708.2068      11090.565      2313.6433      2995.1174      2649.3852      252.1031       419.4597       7338.6147     -4877.7586     -202.96775      87084.727      44.324856      44.324856      44.324856      0.65999999    -900.90398     -416.05172     -899.68945    
     50000   25000          396.69762     -1335.0084      14172.925      15868.441      4842.2567      11026.184      2156.1975      3020.7167      2703.8576      260.63925      432.87447      7331.1644     -4879.2661     -202.96775      87084.727      44.324856      44.324856      44.324856      0.65999999    -2299.0068     -621.74465     -1084.2736    
     51000   25500          394.18446     -1505.5166      14094.276      16006.345      4811.58        11194.765      2238.7749      3022.2484      2770.4906      270.42538      440.59286      7328.669      -4876.4365     -202.96775      87084.727      44.324856      44.324856      44.324856      0.65999999    -1059.3048     -1725.7388     -1731.5061    
     52000   26000          392.57188      445.59464      16589.455      16023.531      4791.8961      11231.635      2239.8746      3066.0743      2715.6918      255.37934      485.96278      7345.5208     -4876.8688     -202.96775      87084.727      44.324856      44.324856      44.324856      0.65999999     805.53384      613.04482     -81.794737    
     53000   26500          392.81554     -291.27828      15628.589      15998.524      4794.8704      11203.654      2254.5486      3107.4276      2688.4669      256.27218      430.01897      7344.9034     -4877.9836     -202.96775      87084.727      44.324856      44.324856      44.324856      0.65999999    -602.4377      -486.13153      214.7344     
     54000   27000          398.38693     -770.28555      15081.954      16060.248      4862.877       11197.371      2260.2951      3014.0466      2749.9289      264.82668      449.5208       7340.0109     -4881.2578     -202.96775      87084.727      44.324856      44.324856      44.324856      0.65999999    -1227.9594     -630.73993     -452.1573     
     55000   27500          403.81174     -881.77656      15128.978      16248.871      4929.0946      11319.776      2309.2836      3001.776       2749.801       272.02909      540.75902      7327.1659     -4881.0384     -202.96775      87084.727      44.324856      44.324856      44.324856      0.65999999    -374.27613     -1640.5051     -630.54846    
     56000   28000          406.22249     -69.014408      16146.22       16233.871      4958.5212      11275.35       2270.0226      3016.3575      2790.7338      282.1026       471.93581      7324.9056     -4880.7081     -202.96775      87084.727      44.324856      44.324856      44.324856      0.65999999    -935.12738      310.31442      417.76974    
     57000   28500          398.11253     -287.93399      15821.14       16186.828      4859.5276      11327.3        2292.6774      3072.5701      2799.033       268.73319      426.4157       7344.0006     -4876.1298     -202.96775      87084.727      44.324856      44.324856      44.324856      0.65999999    -1112.022      -155.963        404.18308    
     58000   29000          398.29821     -989.96646      14915.023      16172.322      4861.7941      11310.528      2321.7228      3017.9742      2774.9353      268.86737      475.61143      7332.0731     -4880.6565     -202.96775      87084.727      44.324856      44.324856      44.324856      0.65999999    -1819.3779     -1435.9051      285.38358    
     59000   29500          404.56453     -2118.8708      13588.323      16279.377      4938.2834      11341.094      2272.8023      3013.8452      2865.4722      268.212        464.65626      7338.1107     -4882.0049     -202.96775      87084.727      44.324856      44.324856      44.324856      0.65999999    -961.20873     -2655.561      -2739.8428    
     60000   30000          409.38456     -582.59545      15649.817      16389.737      4997.1187      11392.619      2301.4297      3071.2894      2823.0604      263.12029      480.29963      7335.2397     -4881.8206     -202.96775      87084.727      44.324856      44.324856      44.324856      0.65999999    -173.05157     -840.24028     -734.49449    
     61000   30500          412.87502     -640.46674      15622.488      16435.907      5039.7247      11396.182      2412.8281      3134.4685      2659.1322      263.87662      465.71301      7342.0621     -4881.8982     -202.96775      87084.727      44.324856      44.324856      44.324856      0.65999999    -2125.8254      1080.4248     -875.99961    
     62000   31000          415.62406     -1227.1726      14938.373      16496.933      5073.2807      11423.652      2402.821       3053.9431      2818.9144      265.56123      429.03029      7339.366      -4885.9838     -202.96775      87084.727      44.324856      44.324856      44.324856      0.65999999    -1209.0306     -99.891217     -2372.596     
     63000   31500          418.61787     -84.537893      16375.423      16482.79       5109.8244      11372.965      2425.1454      3080.1768      2740.9649      261.39196      404.69481      7343.0513     -4882.46       -202.96775      87084.727      44.324856      44.324856      44.324856      0.65999999     255.70653      630.75481     -1140.075     
     64000   32000          417.6169      -1354.7796      14845.332      16565.958      5097.606       11468.352      2412.5493      3059.7205      2816.8903      281.1467       431.60725      7346.6916     -4880.2535     -202.96775      87084.727      44.324856      44.324856      44.324856      0.65999999    -1241.5833     -1668.1417     -1154.6137    
     65000   32500          417.63433     -924.80035      15536.953      16711.488      5097.8189      11613.669      2456.9591      3100.6567      2868.4176      277.5955       449.03331      7341.4714     -4880.465      -202.96775      87084.727      44.324856      44.324856      44.324856      0.65999999    -1157.283      -1299.2442     -317.87384    
     66000   33000          419.01129     -264.47112      16256.36       16592.25       5114.6266      11477.623      2376.5997      3099.7384      2832.2715      276.1284       427.82169      7347.9294     -4882.8661     -202.96775      87084.727      44.324856      44.324856      44.324856      0.65999999    -302.03362     -80.407373     -410.97237    
     67000   33500          427.1656      -1326.3371      15085.271      16769.774      5214.1615      11555.613      2362.2859      3158.642       2852.7909      271.79727      427.95862      7359.9485     -4877.8103     -202.96775      87084.727      44.324856      44.324856      44.324856      0.65999999    -1305.1842     -721.05104     -1952.7761    
     68000   34000          424.31089     -1126.819       15386.286      16817.393      5179.3158      11638.077      2415.3694      3107.4317      2853.2894      281.00994      519.03818      7342.1386     -4880.1997     -202.96775      87084.727      44.324856      44.324856      44.324856      0.65999999    -691.23511     -1146.3534     -1542.8685    
     69000   34500          421.3525      -1111.3971      15265.438      16676.958      5143.2044      11533.754      2457.9856      3156.7014      2740.9478      283.55429      426.62696      7349.63       -4881.6923     -202.96775      87084.727      44.324856      44.324856      44.324856      0.65999999    -215.36567     -2647.8853     -470.94041    
     70000   35000          430.47738     -572.85017      16092.395      16819.938      5254.5864      11565.352      2495.6442      3130.2025      2712.9351      286.44221      461.94563      7358.5293     -4880.347      -202.96775      87084.727      44.324856      44.324856      44.324856      0.65999999    -1080.225      -46.693305     -591.63218    
     71000   35500          427.05644     -325.41105      16408.715      16822          5212.8291      11609.171      2458.0713      3083.9022      2830.7406      286.51399      458.94357      7368.6982     -4877.6989     -202.96775      87084.727      44.324856      44.324856      44.324856      0.65999999    -239.21875     -877.50886      140.49446    
     72000   36000          434.28155     -844.28124      15841.397      16913.67       5301.0217      11612.648      2407.722       3166.4563      2820.6765      286.07532      461.08707      7348.489      -4877.8583     -202.96775      87084.727      44.324856      44.324856      44.324856      0.65999999    -824.50671     -764.32282     -944.01419    
     73000   36500          438.58198     -1194.1523      15532.244      17048.867      5353.5147      11695.352      2536.7624      3093.3331      2851.7785      279.0173       451.53317      7360.0312     -4877.1034     -202.96775      87084.727      44.324856      44.324856      44.324856      0.65999999     74.917704     -370.4925      -3286.882     
     74000   37000          434.40204     -933.06031      15848.657      17033.682      5302.4925      11731.189      2479.6919      3142.1227      2909.0199      277.73634      444.63276      7357.9106     -4879.9248     -202.96775      87084.727      44.324856      44.324856      44.324856      0.65999999    -683.73076     -1436.6422     -678.80799    
     75000   37500          439.5469      -878.83504      15820.075      16936.232      5365.2929      11570.939      2446.0752      3139.0521      2804.7721      287.83211      418.87823      7353.246      -4878.9166     -202.96775      87084.727      44.324856      44.324856      44.324856      0.65999999    -489.95715     -1601.6307     -544.91726    
     76000   38000          443.57249     -1178.4556      15762.869      17259.556      5414.4309      11845.126      2430.853       3118.3594      3069.2079      307.72296      450.13754      7345.0475     -4876.2027     -202.96775      87084.727      44.324856      44.324856      44.324856      0.65999999    -1189.8392     -2064.2891     -281.23842    
     77000   38500          442.53324     -970.60627      15939.165      17171.875      5401.7454      11770.13       2509.1357      3018.843       2975.715       284.85216      505.3577       7354.073      -4877.8469     -202.96775      87084.727      44.324856      44.324856      44.324856      0.65999999    -2266.2291     -1027.4121      381.82235    
     78000   39000          440.04411     -1122.3134      15852.791      17278.175      5371.362       11906.813      2495.4217      3123.7895      3065.2677      299.01223      449.26279      7352.701      -4878.6418     -202.96775      87084.727      44.324856      44.324856      44.324856      0.65999999    -1084.2888     -1817.0748     -465.57656    
     79000   39500          438.10657     -1103.6922      15761.421      17163.156      5347.7115      11815.444      2542.6397      3100.2086      2986.8908      296.23497      425.74932      7345.787      -4882.0663     -202.96775      87084.727      44.324856      44.324856      44.324856      0.65999999    -556.4982      -1699.4348     -1055.1437    
     80000   40000          453.01089     -1465.2866      15535.933      17396.907      5529.6399      11867.268      2550.2398      3172.0276      2962.7594      294.00557      413.71147      7352.0943     -4877.5706     -202.96775      87084.727      44.324856      44.324856      44.324856      0.65999999    -1880.2072     -1280.7912     -1234.8614    
     81000   40500          446.25143     -850.49506      16089.83       17169.994      5447.1311      11722.863      2452.8267      3087.8785      2970.6054      299.77795      435.7081       7355.0933     -4879.0265     -202.96775      87084.727      44.324856      44.324856      44.324856      0.65999999    -364.49129     -959.88261     -1227.1113    
     82000   41000          446.46105     -1220.078       15834.479      17384.028      5449.6898      11934.339      2480.6344      3175.0803      2978.3166      296.29602      519.60747      7363.0258     -4878.6219     -202.96775      87084.727      44.324856      44.324856      44.324856      0.65999999    -1581.5964     -869.44903     -1209.1884    
     83000   41500          450.42722     -2226.1327      14588.812      17416.093      5498.1025      11917.991      2462.7536      3195.9276      3083.5229      304.88125      409.38365      7341.0962     -4879.5745     -202.96775      87084.727      44.324856      44.324856      44.324856      0.65999999    -2291.9215     -1941.7353     -2444.7413    
     84000   42000          441.64754     -756.25474      16518.524      17478.999      5390.9341      12088.065      2568.7303      3189.2441      3039.9942      333.4997       474.68179      7363.7243     -4881.8094     -202.96775      87084.727      44.324856      44.324856      44.324856      0.65999999     181.93321     -2263.3555     -187.3419     
     85000   42500          453.87056     -495.73145      16907.829      17537.429      5540.1334      11997.295      2521.7216      3202.2859      3010.43        292.62945      494.24208      7354.5601     -4878.5738     -202.96775      87084.727      44.324856      44.324856      44.324856      0.65999999    -658.87477     -780.05101     -48.268587    
     86000   43000          462.90052     -560.89159      17145.102      17857.458      5650.3569      12207.101      2634.8173      3375.8622      2988.8984      316.88264      418.23359      7351.2262     -4878.8194     -202.96775      87084.727      44.324856      44.324856      44.324856      0.65999999    -245.42074     -1849.2458      411.99181    
     87000   43500          458.37387      153.53207      17787.657      17592.665      5595.1026      11997.563      2597.0371      3266.6652      2886.3047      304.99652      462.32887      7359.2753     -4879.0449     -202.96775      87084.727      44.324856      44.324856      44.324856      0.65999999    -720.2804       1429.5911     -248.7145     
     88000   44000          462.58078      566.28675      18473.532      17754.324      5646.454       12107.87       2577.2258      3243.6145      2944.7591      320.80721      539.84058      7358.1836     -4876.5604     -202.96775      87084.727      44.324856      44.324856      44.324856      0.65999999     327.52078      1014.861       356.47845    
     89000   44500          470.93789      275.30077      18095.634      17745.99       5748.4643      11997.526      2574.1292      3201.4981      2952.115       307.92355      492.14854      7348.2053     -4878.4936     -202.96775      87084.727      44.324856      44.324856      44.324856      0.65999999    -291.55208      646.34683      471.10756    
     90000   45000          463.99401     -140.01156      17462.278      17640.099      5663.7045      11976.394      2532.0146      3286.2259      2857.0182      288.18242      544.76449      7349.4233     -4881.2348     -202.96775      87084.727      44.324856      44.324856      44.324856      0.65999999     791.01772     -1438.5023      227.44985    
     91000   45500          461.61122     -683.22098      16878.427      17746.146      5634.6191      12111.527      2574.7757      3230.3922      3044.3205      313.21555      482.07239      7345.9901     -4879.2392     -202.96775      87084.727      44.324856      44.324856      44.324856      0.65999999    -445.77983     -18.776724     -1585.1064    
     92000   46000          471.37228     -285.90106      17643.572      18006.679      5753.7666      12252.912      2552.3418      3318.4232      3026.678       316.74712      559.87984      7357.2269     -4878.385      -202.96775      87084.727      44.324856      44.324856      44.324856      0.65999999    -31.355472      1639.0231     -2465.3708    
     93000   46500          462.04887     -1357.1768      16004.645      17728.316      5639.9612      12088.355      2569.3078      3321.9555      2962.5023      308.12229      460.20127      7346.5762     -4880.3104     -202.96775      87084.727      44.324856      44.324856      44.324856      0.65999999    -2420.5153     -1913.7703      262.75512    
     94000   47000          475.07833     -100.32711      17828.603      17956.022      5799.0042      12157.018      2649.497       3173.2431      3022.1184      316.61897      520.11677      7354.3911     -4878.9674     -202.96775      87084.727      44.324856      44.324856      44.324856      0.65999999     64.691444     -333.26405     -32.408728    
     95000   47500          466.87645      1010.2733      19146.252      17863.163      5698.8887      12164.274      2709.3204      3236.902       2944.9853      301.79068      490.02466      7360.1839     -4878.9327     -202.96775      87084.727      44.324856      44.324856      44.324856      0.65999999     1567.3943      756.2027       707.22277    
     96000   48000          479.0351      -428.36054      17534.051      18078.086      5847.3022      12230.784      2670.7776      3284.2635      2996.5254      300.70154      488.74368      7370.6943     -4880.9221     -202.96775      87084.727      44.324856      44.324856      44.324856      0.65999999     101.8414      -836.10656     -550.81646    
     97000   48500          488.98139     -821.73043      17109.09       18152.722      5968.7108      12184.011      2631.3189      3308.8955      2984.7394      321.14239      461.55439      7352.8663     -4876.5058     -202.96775      87084.727      44.324856      44.324856      44.324856      0.65999999    -960.52882      175.01972     -1679.6822    
     98000   49000          481.36148     -828.63801      17119.173      18171.578      5875.699       12295.879      2648.5672      3253.741       3124.3452      312.35926      489.33468      7346.5474     -4879.016      -202.96775      87084.727      44.324856      44.324856      44.324856      0.65999999    -669.17121     -1331.1357     -485.60715    
     99000   49500          491.58453     -1124.2188      16886.515      18314.319      6000.4858      12313.833      2684.095       3258.1699      3129.0106      318.85187      450.2464       7352.6738     -4879.2143     -202.96775      87084.727      44.324856      44.324856      44.324856      0.65999999    -856.42023     -1308.2659     -1207.9701    
    100000   50000          477.68079     -1683.0151      15875.602      18013.101      5830.7709      12182.33       2597.3762      3205.1302      3134.6919      306.31835      468.01636      7346.5468     -4875.7494     -202.96775      87084.727      44.324856      44.324856      44.324856      0.65999999    -613.31918     -1267.9873     -3167.7389    
    101000   50500          483.97585     -561.75802      17594.051      18307.507      5907.6111      12399.896      2683.8418      3328.9204      3110.5542      324.56188      477.0817       7352.9754     -4878.0395     -202.96775      87084.727      44.324856      44.324856      44.324856      0.65999999     63.411472     -763.60301     -985.08251    
    102000   51000          489.41087     -794.22515      17359.707      18368.406      5973.9533      12394.453      2686.818       3274.8589      3167.8426      329.44388      459.87771      7354.93       -4879.3186     -202.96775      87084.727      44.324856      44.324856      44.324856      0.65999999    -2025.1215      126.57793     -484.13186    
    103000   51500          485.36037     -821.82732      17311.008      18354.763      5924.5112      12430.252      2681.297       3268.3684      3159.253       337.28695      521.96158      7344.5303     -4882.4452     -202.96775      87084.727      44.324856      44.324856      44.324856      0.65999999     255.64239     -1686.1724     -1034.952     
    104000   52000          492.7618      -1779.6598      16173.38       18433.621      6014.8561      12418.765      2723.3139      3227.8457      3262.8222      322.36951      434.50156      7331.9085     -4883.9961     -202.96775      87084.727      44.324856      44.324856      44.324856      0.65999999    -1774.7043     -1237.5729     -2326.7021    
    105000   52500          483.69501     -125.25533      18172.683      18331.762      5904.1831      12427.579      2686.5791      3322.5119      3154.2953      327.58116      470.69395      7350.361      -4884.4434     -202.96775      87084.727      44.324856      44.324856      44.324856      0.65999999    -1204.144       402.70054      425.67748    
    106000   53000          492.79872     -668.54392      17602.704      18451.782      6015.3068      12436.475      2707.873       3285.3912      3164.5812      309.32474      513.14195      7342.414      -4886.2508     -202.96775      87084.727      44.324856      44.324856      44.324856      0.65999999    -247.24402     -2095.8307      337.44298    
    107000   53500          484.25824      792.95275      19324.422      18317.339      5911.0581      12406.281      2725.4221      3355.6355      3067.0916      306.63872      481.68345      7346.6881     -4876.8787     -202.96775      87084.727      44.324856      44.324856      44.324856      0.65999999     1599.385       918.92983     -139.45662    
    108000   54000          494.94711      338.59521      18885.893      18455.863      6041.5309      12414.332      2712.9178      3396.533       3027.2867      322.2289       481.66674      7352.0282     -4878.3288     -202.96775      87084.727      44.324856      44.324856      44.324856      0.65999999    -226.12638      880.92274      360.98927    
    109000   54500          500.94032     -171.79843      18411.067      18629.258      6114.6865      12514.572      2744.9826      3311.2762      3201.5774      318.29767      476.86705      7344.2314     -4882.6607     -202.96775      87084.727      44.324856      44.324856      44.324856      0.65999999    -966.87525      542.07126     -90.591298    
    110000   55000          508.96883     -463.01371      18092.194      18680.241      6212.6859      12467.555      2748.6268      3270.1905      3122.2231      337.08684      511.96426      7352.5471     -4875.0838     -202.96775      87084.727      44.324856      44.324856      44.324856      0.65999999    -1238.7132      963.38446     -1113.7124    
    111000   55500          492.34625     -1782.9322      16211.292      18475.69       6009.7837      12465.906      2683.2775      3374.3278      3166.4013      318.33834      442.41199      7356.3711     -4875.2217     -202.96775      87084.727      44.324856      44.324856      44.324856      0.65999999    -2162.823      -2071.7305     -1114.2432    
    112000   56000          504.5343      -1209.9905      17065.029      18601.767      6158.5562      12443.211      2733.5281      3306.8517      3155.3874      319.34691      468.21122      7340.5705     -4880.6852     -202.96775      87084.727      44.324856      44.324856      44.324856      0.65999999    -2457.5204     -721.46881     -450.98223    
    113000   56500          505.04481     -175.81798      18535.957      18759.253      6164.7876      12594.465      2694.1507      3353.9466      3238.7845      333.75529      505.00415      7350.1374     -4881.3132     -202.96775      87084.727      44.324856      44.324856      44.324856      0.65999999    -4.0557828     -148.24712     -375.15103    
    114000   57000          513.40711     -1328.6519      17080.395      18767.838      6266.8613      12500.977      2673.1107      3327.6489      3213.3518      337.64691      461.3476       7362.8823     -4875.0112     -202.96775      87084.727      44.324856      44.324856      44.324856      0.65999999    -1553.9314     -1764.0318     -667.99251    
    115000   57500          508.41219     -325.56535      18553.451      18966.933      6205.8913      12761.041      2864.2612      3429.9019      3180.4355      348.87702      457.30535      7359.3106     -4879.0504     -202.96775      87084.727      44.324856      44.324856      44.324856      0.65999999    -696.67868      1607.8173     -1887.8346    
    116000   58000          512.45521     -699.03052      18018.498      18906.296      6255.242       12651.054      2846.4476      3247.8332      3354.3171      337.04837      391.4363       7355.2826     -4881.3113     -202.96775      87084.727      44.324856      44.324856      44.324856      0.65999999    -872.45882     -428.3868      -796.24594    
    117000   58500          518.14647     -676.42475      18114.153      18973.24       6324.712       12648.528      2736.0653      3403.3015      3234.2293      337.93314      483.55407      7339.5588     -4886.1139     -202.96775      87084.727      44.324856      44.324856      44.324856      0.65999999    -1050.8294     -561.50291     -416.94195    
    118000   59000          524.76693     -217.4458       18819.159      19095.324      6405.5241      12689.8        2760.5961      3328.3899      3315.8928      354.26983      477.04769      7336.006      -4882.4026     -202.96775      87084.727      44.324856      44.324856      44.324856      0.65999999     242.00563     -742.59569     -151.74732    
    119000   59500          520.47108     -338.83824      18624.803      19055.142      6353.0872      12702.055      2777.504       3434.6062      3222.4077      338.66249      442.15895      7361.4967     -4874.7815     -202.96775      87084.727      44.324856      44.324856      44.324856      0.65999999    -740.90588      661.43926     -937.04811    
    120000   60000          514.64496     -950.47892      17914.956      19122.104      6281.971       12840.133      2847.9421      3394.0292      3300.6671      346.53218      489.82606      7337.6162     -4876.48       -202.96775      87084.727      44.324856      44.324856      44.324856      0.65999999    -538.66967     -873.37795     -1439.3891    
    121000   60500          532.72473     -451.72846      18653.654      19227.368      6502.6603      12724.708      2759.2869      3493.8487      3111.722       334.28365      548.7295       7352.5384     -4875.7015     -202.96775      87084.727      44.324856      44.324856      44.324856      0.65999999     281.39832     -1750.382       113.7983     
    122000   61000          529.19447     -473.26276      18774.485      19375.548      6459.5685      12915.98       2775.0945      3496.4914      3281.0146      347.82578      541.90546      7350.5277     -4876.8797     -202.96775      87084.727      44.324856      44.324856      44.324856      0.65999999    -616.33692     -156.65339     -646.79796    
    123000   61500          526.11265     -404.86083      18701.134      19215.324      6421.9505      12793.374      2793.9624      3391.7927      3245.6833      337.50434      557.2803       7347.8554     -4880.7045     -202.96775      87084.727      44.324856      44.324856      44.324856      0.65999999    -1226.1809      494.13759     -482.53913    
    124000   62000          520.01781     -510.65379      18519.222      19167.774      6347.5543      12820.219      2792.2209      3398.1793      3301.3909      320.59272      538.67738      7344.6656     -4875.5074     -202.96775      87084.727      44.324856      44.324856      44.324856      0.65999999     913.9052      -341.15247     -2104.7141    
    125000   62500          545.37102      1394.9214      21369.974      19598.366      6657.0262      12941.34       2851.8275      3417.7879      3213.1864      346.57343      635.41471      7352.3583     -4875.8082     -202.96775      87084.727      44.324856      44.324856      44.324856      0.65999999     970.14036      2461.0339      753.58999    
    126000   63000          535.29239      325.16373      19872.091      19459.119      6534.0022      12925.117      2816.886       3439.5351      3289.7728      359.27533      548.38588      7349.3648     -4878.1029     -202.96775      87084.727      44.324856      44.324856      44.324856      0.65999999     378.8057       313.23353      283.45198    
    127000   63500          527.70508      772.28936      20266.22       19285.381      6441.3883      12843.992      2859.2485      3420.0291      3257.4235      341.83751      495.02236      7349.6946     -4879.2633     -202.96775      87084.727      44.324856      44.324856      44.324856      0.65999999     189.50714      1409.849       717.51192    
    128000   64000          538.66061     -226.25651      19369.274      19656.629      6575.1161      13081.513      3009.9309      3405.4543      3339.3991      357.95458      485.87386      7362.9365     -4880.0364     -202.96775      87084.727      44.324856      44.324856      44.324856      0.65999999     1041.7971     -1192.946      -527.62066    
    129000   64500          530.65057     -151.67992      19252.217      19444.857      6477.3422      12967.514      2915.1882      3330.9725      3396.9897      341.48975      504.04976      7353.9801     -4875.1556     -202.96775      87084.727      44.324856      44.324856      44.324856      0.65999999    -640.83984     -517.96299      703.76307    
    130000   65000          524.47386      878.05027      20573.405      19458.244      6401.9467      13056.298      2961.5451      3398.2649      3327.7405      357.82649      547.52099      7339.8487     -4876.4491     -202.96775      87084.727      44.324856      44.324856      44.324856      0.65999999     2152.2854      365.15599      116.70937    
    131000   65500          537.10688     -1002.4777      18429.202      19702.39       6556.1506      13146.24       2960.3282      3424.8344      3402.1028      388.14695      493.94451      7354.2899     -4877.407      -202.96775      87084.727      44.324856      44.324856      44.324856      0.65999999     197.1989      -1510.8074     -1693.8248    
    132000   66000          536.46745     -478.70438      19025.713      19633.687      6548.3454      13085.342      2972.7623      3392.7619      3364.3508      373.32132      507.48759      7353.5194     -4878.8616     -202.96775      87084.727      44.324856      44.324856      44.324856      0.65999999    -1194.722      -719.3654       477.97424    
    133000   66500          535.45331     -285.8602       19244.69       19607.744      6535.9664      13071.777      2924.6962      3479.8382      3324.593       373.3148       505.85595      7342.4503     -4878.971      -202.96775      87084.727      44.324856      44.324856      44.324856      0.65999999    -298.02882      359.41392     -918.96569    
    134000   67000          534.00098      427.59331      20104.809      19561.748      6518.2387      13043.509      2902.554       3489.1999      3328.4316      354.67552      497.46379      7347.8769     -4876.6928     -202.96775      87084.727      44.324856      44.324856      44.324856      0.65999999     141.08186     -62.96255       1204.6606    
    135000   67500          541.63986     -1540.4726      17653.026      19609.49       6611.4821      12998.008      2858.7044      3517.5973      3350.6536      367.50629      429.25132      7349.9844     -4875.6891     -202.96775      87084.727      44.324856      44.324856      44.324856      0.65999999    -563.65789     -905.88256     -3151.8774    
    136000   68000          541.61803     -1030.9978      18437.747      19747.157      6611.2156      13135.941      2890.4364      3421.6627      3399.9898      369.94389      566.75985      7366.6351     -4879.4863     -202.96775      87084.727      44.324856      44.324856      44.324856      0.65999999    -1858.16       -375.22299     -859.6104     
    137000   68500          560.63547     -1289.6821      18218.442      19856.392      6843.3505      13013.041      2951.1193      3452.003       3340.6158      356.54293      435.4538       7357.3788     -4880.0723     -202.96775      87084.727      44.324856      44.324856      44.324856      0.65999999    -748.68659     -2342.215      -778.14461    
    138000   69000          555.7325      -973.20294      18628.921      19864.929      6783.5027      13081.427      2955.4777      3409.1264      3393.6511      384.12056      474.26872      7343.3007     -4878.5184     -202.96775      87084.727      44.324856      44.324856      44.324856      0.65999999    -1333.2062     -366.05543     -1220.3472    
    139000   69500          540.61064     -891.56926      18644.999      19777.329      6598.919       13178.41       2960.3073      3543.4206      3361.5274      358.36783      468.84673      7363.4493     -4877.5094     -202.96775      87084.727      44.324856      44.324856      44.324856      0.65999999    -749.52304     -6.4921358     -1918.6926    
    140000   70000          557.7592      -548.54981      19329.039      20025.72       6808.2415      13217.478      3000.1043      3499.2012      3350.2001      370.54393      516.34649      7358.6392     -4877.5572     -202.96775      87084.727      44.324856      44.324856      44.324856      0.65999999    -355.41573     -961.88821     -328.34549    
    141000   70500          561.0984      -687.4547       19141.932      20015.028      6849.0012      13166.027      3030.3702      3396.389       3450.6389      354.94193      451.57953      7360.4456     -4878.3384     -202.96775      87084.727      44.324856      44.324856      44.324856      0.65999999    -661.70317     -177.06167     -1223.5993    
    142000   71000          568.18029     -359.26424      19771.901      20228.181      6935.4456      13292.736      3052.8498      3459.0846      3370.1188      364.69163      566.8965       7358.174      -4879.0796     -202.96775      87084.727      44.324856      44.324856      44.324856      0.65999999    -1144.6155     -453.69255      520.51537    
    143000   71500          547.21399     -752.76056      19050.997      20007.034      6679.5222      13327.512      3167.4367      3477.0087      3324.1999      368.48803      511.2216       7356.3176     -4877.1609     -202.96775      87084.727      44.324856      44.324856      44.324856      0.65999999    -1930.2719     -154.4285      -173.58132    
    144000   72000          565.22785     -826.667        19281.86       20331.761      6899.4069      13432.354      3123.568       3567.6605      3379.4906      375.44591      534.80725      7333.0945     -4881.7123     -202.96775      87084.727      44.324856      44.324856      44.324856      0.65999999    -1540.3475     -970.91034      31.256803    
    145000   72500          565.96524     -184.43971      19896.895      20131.141      6908.4079      13222.733      3052.026       3564.989       3251.9593      349.07048      535.68292      7347.5685     -4878.5632     -202.96775      87084.727      44.324856      44.324856      44.324856      0.65999999     132.71097     -1272.8501      586.81998    
    146000   73000          578.84222     -1803.6653      18193.734      20484.464      7065.5895      13418.874      2983.58        3554.8786      3514.4763      380.12055      506.28819      7358.8193     -4879.2885     -202.96775      87084.727      44.324856      44.324856      44.324856      0.65999999    -805.94897     -2958.7877     -1646.2593    
    147000   73500          561.30027     -265.65846      19836.899      20174.297      6851.4652      13322.831      3054.7826      3425.897       3436.5822      360.86971      560.27144      7363.1622     -4878.7338     -202.96775      87084.727      44.324856      44.324856      44.324856      0.65999999     365.47915     -556.0578      -606.39671    
    148000   74000          572.73886     -1174.5441      18945.502      20437.222      6991.0894      13446.132      3119.3834      3476.0965      3502.8031      376.83108      497.73923      7351.6409     -4878.3617     -202.96775      87084.727      44.324856      44.324856      44.324856      0.65999999    -2121.5683     -1119.6137     -282.45046    
    149000   74500          563.89277     -1256.5478      18716.462      20312.33       6883.1104      13429.219      3046.1659      3453.6833      3576.399       377.9474       516.60179      7341.7726     -4883.3506     -202.96775      87084.727      44.324856      44.324856      44.324856      0.65999999    -771.78417     -220.35969     -2777.4994    
    150000   75000          595.02845     -859.30489      19762.784      20854.136      7263.1654      13590.971      3134.0972      3584.1695      3542.7759      379.7152       488.48789      7338.664      -4876.9388     -202.96775      87084.727      44.324856      44.324856      44.324856      0.65999999    -1082.9395     -401.61634     -1093.3588    
    151000   75500          577.96903     -151.40169      20237.223      20429.509      7054.9311      13374.578      3056.3554      3500.6949      3409.7643      383.7921       535.16313      7366.1524     -4877.3441     -202.96775      87084.727      44.324856      44.324856      44.324856      0.65999999     192.67679     -981.41751      334.53563    
    152000   76000          579.54488     -1207.6789      19005.053      20538.856      7074.1666      13464.689      3060.6963      3541.309       3452.3699      387.4634       537.25854      7361.3396     -4875.7478     -202.96775      87084.727      44.324856      44.324856      44.324856      0.65999999    -1368.5422     -467.02309     -1787.4713    
    153000   76500          581.54003     -672.90854      19778.18       20632.802      7098.5202      13534.281      3031.3859      3525.8205      3552.0481      412.32419      527.64702      7363.0831     -4878.0273     -202.96775      87084.727      44.324856      44.324856      44.324856      0.65999999    -890.12727     -1663.3766      534.7782     
    154000   77000          579.16942     -1568.8217      18865.822      20858.29       7069.5836      13788.707      3176.4704      3637.5637      3519.2144      427.3923       542.38978      7359.6066     -4873.9305     -202.96775      87084.727      44.324856      44.324856      44.324856      0.65999999    -1310.4758     -2570.8068     -825.18254    
    155000   77500          584.89192     -908.01435      19551.372      20704.588      7139.4348      13565.153      3031.4756      3532.6427      3567.4531      398.34176      568.69851      7339.196      -4872.6542     -202.96775      87084.727      44.324856      44.324856      44.324856      0.65999999    -421.7909      -1421.2758     -880.97634    
    156000   78000          590.40073      343.99043      21245.954      20809.072      7206.6776      13602.394      3151.619       3611.7836      3354.1698      403.34806      605.49263      7355.0529     -4879.0715     -202.96775      87084.727      44.324856      44.324856      44.324856      0.65999999     691.41625     -70.390049      410.94509    
    157000   78500          597.1857      -562.73523      20234.942      20949.639      7289.4978      13660.141      3037.5253      3628.9846      3575.3602      396.32097      535.67137      7366.5603     -4880.2819     -202.96775      87084.727      44.324856      44.324856      44.324856      0.65999999    -1014.4223     -1031.1461      357.36268    
    158000   79000          580.02049     -137.25388      20677.903      20852.221      7079.972       13772.249      3148.7044      3674.0031      3528.7189      408.27289      511.03907      7373.6908     -4872.1799     -202.96775      87084.727      44.324856      44.324856      44.324856      0.65999999    -211.45736      567.56704     -767.87133    
    159000   79500          601.6092      -490.27519      20484.373      21107.042      7343.4929      13763.55       3130.5333      3588.4428      3553.2295      411.91828      576.35745      7371.5934     -4868.5252     -202.96775      87084.727      44.324856      44.324856      44.324856      0.65999999    -1078.3235      237.12269     -629.62471    
    160000   80000          579.73651     -1487.3838      18680.02       20569.059      7076.5057      13492.553      3129.9576      3568.2686      3383.4015      385.26809      532.99975      7365.6464     -4872.9889     -202.96775      87084.727      44.324856      44.324856      44.324856      0.65999999    -2781.5125     -186.08703     -1494.552     
    161000   80500          598.46337     -851.09322      20107.505      21188.428      7305.0936      13883.335      3222.5958      3576.6778      3568.7272      417.78627      592.24211      7375.0984     -4869.7927     -202.96775      87084.727      44.324856      44.324856      44.324856      0.65999999    -6.1013589      31.679465     -2578.8578    
    162000   81000          598.87471     -1145.4636      19594.07       21048.856      7310.1145      13738.741      3076.4984      3610.9811      3601.196       401.33755      540.81927      7379.289      -4871.3798     -202.96775      87084.727      44.324856      44.324856      44.324856      0.65999999    -292.07043     -2447.3095     -697.01076    
    163000   81500          588.17402      400.86413      21447.479      20938.365      7179.4975      13758.868      3103.6406      3707.3814      3495.4382      378.74576      573.05323      7373.685      -4873.0763     -202.96775      87084.727      44.324856      44.324856      44.324856      0.65999999     703.08109     -900.65724      1400.1685    
    164000   82000          595.56753     -91.754618      20975.878      21092.41       7269.7457      13822.664      3171.3415      3653.3851      3491.2345      391.09253      608.66117      7373.7391     -4866.7896     -202.96775      87084.727      44.324856      44.324856      44.324856      0.65999999    -213.91169      871.10467     -932.45683    
    165000   82500          622.57517      662.62661      22243.336      21401.773      7599.4122      13802.361      3230.3514      3636.2901      3447.3058      378.39412      612.6649       7368.0168     -4870.6624     -202.96775      87084.727      44.324856      44.324856      44.324856      0.65999999    -292.77342      798.97437      1481.6789    
    166000   83000          609.57181      1059.6848      22627.135      21281.291      7440.6878      13840.603      3329.4016      3612.7023      3484.1621      387.57926      532.71643      7364.9453     -4870.9037     -202.96775      87084.727      44.324856      44.324856      44.324856      0.65999999     1459.1469      526.31943      1193.5882    
    167000   83500          604.20078      771.74457      22310.07       21329.922      7375.1267      13954.796      3152.5656      3595.9186      3683.6549      414.36248      626.1642       7351.4249     -4869.2948     -202.96775      87084.727      44.324856      44.324856      44.324856      0.65999999     726.84416      1703.7869     -115.39735    
[...]
    261000   130500         779.34991      473.15318      26494.769      25893.845      9513.0701      16380.775      3972.6789      4090.7601      4248.0446      542.33295      1009.3548      7379.5579     -4861.9548     -202.96775      87084.727      44.324856      44.324856      44.324856      0.65999999     752.84753      384.133        282.47901    
    262000   131000         804.83065      425.52303      26920.802      26380.37       9824.0987      16556.272      4101.5575      4012.7855      4368.2601      542.44745      1021.4818      7376.1634     -4866.4242     -202.96775      87084.727      44.324856      44.324856      44.324856      0.65999999     1090.0086      2360.6883     -2174.1278    
    263000   131500         773.71677     -1849.6803      23612.689      25961.86       9444.3097      16517.55       4011.5254      4136.4969      4432.4432      506.70688      914.35777      7382.5338     -4866.5138     -202.96775      87084.727      44.324856      44.324856      44.324856      0.65999999    -2574.7173     -1261.9784     -1712.3452    
    264000   132000         783.71501     -1317.853       24394.198      26067.926      9566.3523      16501.573      4089.571       4106.1807      4329.0066      490.79566      982.70576      7369.9378     -4866.6244     -202.96775      87084.727      44.324856      44.324856      44.324856      0.65999999    -2356.9199     -1268.9568     -327.68241    
    265000   132500         778.53711     -1131.1797      24505.712      25942.357      9503.1487      16439.208      4114.2275      4064.6546      4290.5089      510.48812      928.40829      7392.6712     -4861.7508     -202.96775      87084.727      44.324856      44.324856      44.324856      0.65999999    -1538.9393     -1878.1141      23.514375    
    266000   133000         791.39558      2342.7839      29232.762      26257.329      9660.1046      16597.225      4135.5293      4213.0858      4204.6037      533.61087      982.17166      7391.9076     -4863.6843     -202.96775      87084.727      44.324856      44.324856      44.324856      0.65999999     1565.5611      2906.3704      2556.4202    
    267000   133500         782.31721      3.1936609      26176.967      26172.911      9549.2903      16623.621      4076.9437      4275.3623      4296.4599      497.3159       972.98972      7372.1554     -4867.6058     -202.96775      87084.727      44.324856      44.324856      44.324856      0.65999999    -175.74959     -690.35953      875.6901     
    268000   134000         796.00218     -146.21105      25925.364      26111.058      9716.3346      16394.723      3939.7224      4264.9404      4213.5286      490.43768      942.49286      7399.3476     -4855.7464     -202.96775      87084.727      44.324856      44.324856      44.324856      0.65999999     1200.7127     -996.6094      -642.7364     
    269000   134500         817.17741     -1599.8423      24483.994      26515.86       9974.8083      16541.051      3949.7893      4176.5779      4469.6931      541.36615      879.64631      7387.4186     -4863.4399     -202.96775      87084.727      44.324856      44.324856      44.324856      0.65999999     251.2511      -3961.2697     -1089.5083    
    270000   135000         795.67847      1027.0737      27701.237      26396.811      9712.3834      16684.428      4041.5418      4207.6386      4458.304       531.67587      909.16618      7398.3511     -4862.2498     -202.96775      87084.727      44.324856      44.324856      44.324856      0.65999999     330.19036      2380.9187      370.11215    
    271000   135500         813.10973      213.37908      26741.01       26470.009      9925.1566      16544.853      3983.1204      4188.5663      4427.7377      547.33083      877.2476       7384.7864     -4863.9366     -202.96775      87084.727      44.324856      44.324856      44.324856      0.65999999    -578.52444      432.71064      785.95104    
    272000   136000         794.98981     -948.26031      24942.312      26146.642      9703.9773      16442.665      4008.7825      4238.0988      4219.6384      512.7089       937.37865      7387.3064     -4861.2488     -202.96775      87084.727      44.324856      44.324856      44.324856      0.65999999    -654.39583     -1895.5092     -294.87588    
    273000   136500         806.57157     -1865.1439      24223.344      26592.154      9845.3491      16746.805      4128.5681      4217.2113      4468.0442      517.10268      901.16361      7379.48       -4864.765      -202.96775      87084.727      44.324856      44.324856      44.324856      0.65999999    -2142.9961     -1208.8463     -2243.5892    
    274000   137000         802.21353     -2053.3114      23786.839      26394.629      9792.153       16602.476      3999.9034      4183.0792      4449.4335      504.95732      952.68459      7378.0124     -4865.5942     -202.96775      87084.727      44.324856      44.324856      44.324856      0.65999999    -1602.3735     -2797.9264     -1759.6344    
    275000   137500         810.00641     -199.14232      26414.072      26666.991      9887.2761      16779.715      4031.7548      4263.854       4495.6977      524.40556      948.6788       7379.8945     -4864.5708     -202.96775      87084.727      44.324856      44.324856      44.324856      0.65999999     1882.8725     -925.82345     -1554.476     
    276000   138000         789.52785     -487.51965      25871.255      26490.425      9637.3063      16853.119      4109.0036      4213.6005      4509.7967      566.85328      916.75235      7400.5825     -4863.4702     -202.96775      87084.727      44.324856      44.324856      44.324856      0.65999999    -707.85063      618.48429     -1373.1926    
    277000   138500         805.86729      155.96246      26874.985      26676.906      9836.7524      16840.154      4078.8022      4311.1313      4442.3384      518.54834      960.1568       7393.1872     -4864.0107     -202.96775      87084.727      44.324856      44.324856      44.324856      0.65999999     722.95305     -2131.3759      1876.3102    
    278000   139000         810.71456     -7.2831184      26746.871      26756.121      9895.9201      16860.201      4197.709       4103.5893      4519.9763      549.01122      955.66503      7398.2709     -4864.0208     -202.96775      87084.727      44.324856      44.324856      44.324856      0.65999999    -29.339095      1377.1475     -1369.6578    
    279000   139500         808.65437     -281.72713      26102.24       26460.045      9870.7725      16589.272      4050.0312      4215.4509      4336.1021      526.59883      919.50765      7404.0545     -4862.4731     -202.96775      87084.727      44.324856      44.324856      44.324856      0.65999999    -619.02769     -1613.9712      1387.8175    
    280000   140000         822.89578      917.92275      28055.852      26890.052      10044.609      16845.443      4188.5747      4212.661       4360.8313      537.02521      1032.2611      7376.3495     -4862.2595     -202.96775      87084.727      44.324856      44.324856      44.324856      0.65999999     1433.6857     -861.97709      2182.0596    
    281000   140500         805.55369     -589.72004      25980.785      26729.754      9832.9243      16896.83       4128.5136      4138.229       4545.5301      568.97356      992.89922      7388.6039     -4865.9195     -202.96775      87084.727      44.324856      44.324856      44.324856      0.65999999    -50.565593     -1468.5907     -250.00382    
    282000   141000         800.90818     -572.99393      26348.051      27075.777      9776.2193      17299.557      4248.4856      4340.4786      4574.0181      564.45731      1053.165       7379.0202     -4860.0674     -202.96775      87084.727      44.324856      44.324856      44.324856      0.65999999    -1037.8253     -306.42016     -374.73637    
    283000   141500         832.8794      -729.71628      26059.945      26986.715      10166.473      16820.241      4213.8253      4196.48        4348.5732      552.74815      985.86925      7384.8546     -4862.1091     -202.96775      87084.727      44.324856      44.324856      44.324856      0.65999999    -754.56328     -1032.4615     -402.12406    
    284000   142000         824.72895     -1081.2796      25815.296      27188.566      10066.986      17121.581      4314.0765      4107.3611      4706.0968      543.81199      940.81814      7380.407      -4870.9909     -202.96775      87084.727      44.324856      44.324856      44.324856      0.65999999    -1692.5787     -196.26782     -1354.9925    
    285000   142500         803.05866      491.35112      27536.392      26912.355      9802.469       17109.886      4338.0416      4332.3507      4422.9714      532.1138       966.51132      7379.3538     -4861.4562     -202.96775      87084.727      44.324856      44.324856      44.324856      0.65999999     1694.5895     -1028.3382      807.80206    
    286000   143000         838.87101      372.70478      27896.78       27423.429      10239.609      17183.82       4153.2086      4354.8517      4522.4048      563.59694      1076.2394      7380.6955     -4867.1774     -202.96775      87084.727      44.324856      44.324856      44.324856      0.65999999     63.626577      1650.9151     -596.42735    
    287000   143500         805.95155     -1883.2627      24456.443      26848.264      9837.7809      17010.483      4104.3082      4417.3462      4446.3102      535.48972      1011.2626      7360.6213     -4864.8547     -202.96775      87084.727      44.324856      44.324856      44.324856      0.65999999    -83.933927     -2309.0965     -3256.7577    
    288000   144000         834.22434     -1236.8977      25727.73       27298.641      10182.89       17115.751      4163.2646      4269.2442      4626.6326      532.76842      999.07298      7389.8558     -4865.0874     -202.96775      87084.727      44.324856      44.324856      44.324856      0.65999999    -1953.9748     -2000.7659      244.04761    
    289000   144500         829.46504     -765.99948      26144.235      27117.086      10124.796      16992.29       4238.9007      4351.2822      4382.7097      563.94894      951.05476      7368.3738     -4863.9805     -202.96775      87084.727      44.324856      44.324856      44.324856      0.65999999    -1591.852      -425.69944     -280.44703    
    290000   145000         814.61046     -1641.1099      25043.204      27127.482      9943.4751      17184.006      4082.256       4416.1553      4604.3363      566.81182      999.45862      7375.7885     -4860.8001     -202.96775      87084.727      44.324856      44.324856      44.324856      0.65999999    -3457.3001     -230.2598      -1235.77      
    291000   145500         832.58331     -510.44337      26687.625      27335.91       10162.859      17173.051      4181.1279      4191.4386      4689.7391      581.66472      1011.9063      7384.003      -4866.8292     -202.96775      87084.727      44.324856      44.324856      44.324856      0.65999999    -1242.3601     -251.13353     -37.836537    
    292000   146000         843.89463     -34.641398      27505.291      27549.287      10300.93       17248.357      4245.3675      4282.9875      4570.7925      567.67524      1047.0589      7395.2061     -4860.7309     -202.96775      87084.727      44.324856      44.324856      44.324856      0.65999999    -523.00365      139.25089      279.82857    
    293000   146500         809.33002     -450.63187      26684.054      27256.375      9879.0199      17377.355      4246.7897      4305.385       4741.8992      562.89776      984.2581       7398.905      -4862.7797     -202.96775      87084.727      44.324856      44.324856      44.324856      0.65999999    -1392.8138      195.43668     -154.51852    
    294000   147000         826.15033     -1014.6835      26247.252      27535.942      10084.336      17451.606      4172.2841      4388.9719      4753.786       583.73773      1038.7182      7377.2761     -4863.1679     -202.96775      87084.727      44.324856      44.324856      44.324856      0.65999999    -507.47096     -1176.997      -1359.5827    
    295000   147500         836.15715     -1193.1643      25973.443      27488.811      10206.483      17282.328      4297.6817      4183.6535      4671.7737      574.1216       1039.8659      7379.5027     -4864.271      -202.96775      87084.727      44.324856      44.324856      44.324856      0.65999999    -922.60732     -2552.2588     -104.62664    
    296000   148000         826.65928      669.53893      28266.617      27416.275      10090.548      17325.727      4187.1195      4343.0685      4602.0919      571.39455      1089.058       7395.9969     -4863.0023     -202.96775      87084.727      44.324856      44.324856      44.324856      0.65999999     70.452248      1347.3397      590.82487    
    297000   148500         854.39647      310.36864      27991.453      27597.272      10429.12       17168.152      4218.1854      4330.6672      4485.4586      551.57952      1054.4172      7389.7379     -4861.8934     -202.96775      87084.727      44.324856      44.324856      44.324856      0.65999999     317.92422     -1152.3874      1765.5691    
    298000   149000         844.55538     -661.5656       26884.567      27724.783      10308.995      17415.788      4361.663       4231.4849      4736.3089      550.85081      1007.2477      7395.3202     -4867.0877     -202.96775      87084.727      44.324856      44.324856      44.324856      0.65999999    -2364.9587      903.47241     -523.21051    
    299000   149500         858.10609     -184.05423      27588.229      27821.985      10474.401      17347.584      4216.6041      4323.0433      4668.9521      563.36855      1040.153       7395.3838     -4859.9207     -202.96775      87084.727      44.324856      44.324856      44.324856      0.65999999    -1267.8315      57.581578      658.08724    
    300000   150000         844.54921     -435.98994      27042.373      27596.098      10308.92       17287.178      4270.0715      4421.2523      4507.2288      531.79813      1014.611       7404.1011     -4861.8845     -202.96775      87084.727      44.324856      44.324856      44.324856      0.65999999    -1132.033      -619.35201      443.41521    
Loop time of 1863.82 on 3 procs for 300000 steps with 4096 atoms

Performance: 6.953 ns/day, 3.452 hours/ns, 160.960 timesteps/s, 659.292 katom-step/s
96.0% CPU use with 3 MPI tasks x 1 OpenMP threads

MPI task timing breakdown:
Section |  min time  |  avg time  |  max time  |%varavg| %total
---------------------------------------------------------------
Pair    | 175.7      | 239.39     | 288.48     | 305.0 | 12.84
Bond    | 382.15     | 580.1      | 714.84     | 593.7 | 31.12
Kspace  | 688.02     | 824.08     | 1024.4     | 503.9 | 44.21
Neigh   | 60.777     | 100.67     | 131.14     | 293.9 |  5.40
Comm    | 32.54      | 35.778     | 38.092     |  39.4 |  1.92
Output  | 1.2354     | 1.259      | 1.2788     |   1.6 |  0.07
Modify  | 52.012     | 75.894     | 108.82     | 276.2 |  4.07
Other   |            | 6.637      |            |       |  0.36

Nlocal:        1365.33 ave        1710 max        1044 min
Histogram: 1 0 0 0 1 0 0 0 0 1
Nghost:        6551.33 ave        6571 max        6522 min
Histogram: 1 0 0 0 0 0 0 1 0 1
Neighs:              0 ave           0 max           0 min
Histogram: 3 0 0 0 0 0 0 0 0 0
FullNghs:       442407 ave      611154 max      302639 min
Histogram: 1 0 0 1 0 0 0 0 0 1

Total # of neighbors = 1327222
Ave neighs/atom = 324.02881
Ave special neighs/atom = 5.6289062
Neighbor list builds = 8349
Dangerous builds = 0

# --- Cleanup ---
unfix nvt_fix

undump dump_nvt

# --- Write Output ---
write_dump all custom nvt_softheat_last.dump id type mol x y z xu yu zu vx vy vz modify sort id
write_data /home/arz2/PolyJarvis/data/PEEK1/lammps/equil/nvt_softheat/nvt_softheat_out.data
System init for write_data ...
PPPM initialization ...
  using 12-bit tables for long-range coulomb
  G vector (1/distance) = 0.30180103
  grid = 32 32 32
  stencil order = 5
  estimated absolute RMS force accuracy = 0.00037991268
  estimated relative force accuracy = 1.1440958e-06
  using double precision KISS FFT
  3d grid and FFT values/proc = 25857 11264
Generated 21 of 21 mixed pair_coeff terms from sixthpower/sixthpower mixing rule

print "STAGE COMPLETE: NVT T=300.0->850.0K steps=300000"
STAGE COMPLETE: NVT T=300.0->850.0K steps=300000
quit
   | 6.637      |            |       |  0.36

Nlocal:        1365.33 ave        1710 max        1044 min
Histogram: 1 0 0 0 1 0 0 0 0 1
Nghost:        6551.33 ave        6571 max        6522 min
Histogram: 1 0 0 0 0 0 0 1 0 1
Neighs:              0 ave           0 max           0 min
Histogram: 3 0 0 0 0 0 0 0 0 0
FullNghs:       442407 ave      611154 max      302639 min
Histogram: 1 0 0 1 0 0 0 0 0 1

Total # of neighbors = 1327222
Ave neighs/atom = 324.02881
Ave special neighs/atom = 5.6289062
Neighbor list builds = 8349
Dangerous builds = 0
System init for write_data ...
PPPM initialization ...
  using 12-bit tables for long-range coulomb
  G vector (1/distance) = 0.30180103
  grid = 32 32 32
  stencil order = 5
  estimated absolute RMS force accuracy = 0.00037991268
  estimated relative force accuracy = 1.1440958e-06
  using double precision KISS FFT
  3d grid and FFT values/proc = 25857 11264


---------------------------------------------------------------------
    Device Time Info (average) for kspace: 
---------------------------------------------------------------------
CPU Poisson:     804.3030 s.
CPU Data Cast:   1.0980 s.
CPU Idle Time:   9.4496 s.
Max Mem / Proc:  6.22 MB.
---------------------------------------------------------------------


--------------------------------------------------------------------------
- Using acceleration for pppm:
-  with 3 proc(s) per device.
-  with 1 thread(s) per proc.
-  Horizontal vector operations: ENABLED
-  Shared memory system: No
--------------------------------------------------------------------------
Device 0: Quadro RTX 6000, 72 CUs, 22/24 GB, 1.8 GHZ (Mixed Precision)
--------------------------------------------------------------------------

Initializing Device and compiling on process 0...Done.
Initializing Device 0 on core 0...Done.
Initializing Device 0 on core 1...Done.
Initializing Device 0 on core 2...Done.



---------------------------------------------------------------------
      Device Time Info (average): 
---------------------------------------------------------------------
CPU Cast/Pack:   2.7407 s.
CPU Driver_Time: 4.9509 s.
CPU Idle_Time:   1.0147 s.
Average split:   1.0000.
Max Mem / Proc:  5.16 MB.
Prefetch mode:   None.
Vector width:    32.
Lanes / atom:    8.
Pair block:      256.
Neigh block:     128.
Neigh mode:      Host.
---------------------------------------------------------------------


--------------------------------------------------------------------------
- Using acceleration for lj/class2/coul/long:
-  with 3 proc(s) per device.
-  with 1 thread(s) per proc.
-  Horizontal vector operations: ENABLED
-  Shared memory system: No
--------------------------------------------------------------------------
Device 0: Quadro RTX 6000, 72 CUs, 22/24 GB, 1.8 GHZ (Mixed Precision)
--------------------------------------------------------------------------

Initializing Device and compiling on process 0...Done.
Initializing Device 0 on core 0...Done.
Initializing Device 0 on core 1...Done.
Initializing Device 0 on core 2...Done.

Generated 21 of 21 mixed pair_coeff terms from sixthpower/sixthpower mixing rule
STAGE COMPLETE: NVT T=300.0->850.0K steps=300000
