LAMMPS data file via write_data, version 22 Jul 2025, timestep = 500000, units = real

3620 atoms
4 atom types
3610 bonds
6 bond types
7200 angles
11 angle types
10710 dihedrals
13 dihedral types
4800 impropers
11 improper types

5.590768430587158 42.794726599409145 xlo xhi
5.590768430587158 42.794726599409145 ylo yhi
5.590768430587158 42.794726599409145 zlo zhi

Masses

1 12.01115
2 12.01115
3 35.453
4 1.00797

Pair Coeffs # lj/class2/coul/long/gpu

1 0.054 4.01
2 0.054 4.01
3 0.2247 3.92
4 0.02 2.995

Bond Coeffs # class2

1 1.53 299.67 -501.77 679.81
2 1.53 299.67 -501.77 679.81
3 1.79 194.319 0 0
4 1.101 345 -691.89 844.6
5 1.79 194.319 0 0
6 1.101 345 -691.89 844.6

Angle Coeffs # class2

1 112.67 39.516 -7.443 -9.5583
2 107 61.1745 0 0
3 110.77 41.453 -10.604 5.129
4 112.67 39.516 -7.443 -9.5583
5 107 61.1745 0 0
6 110.77 41.453 -10.604 5.129
7 112.67 39.516 -7.443 -9.5583
8 110.77 41.453 -10.604 5.129
9 107.997 51.0987 0 0
10 107.997 51.0987 0 0
11 107.66 39.641 -12.921 -2.4318

BondBond Coeffs

1 0 1.53 1.53
2 0 1.53 1.79
3 3.3872 1.53 1.101
4 0 1.53 1.53
5 0 1.53 1.79
6 3.3872 1.53 1.101
7 0 1.53 1.53
8 3.3872 1.53 1.101
9 0 1.79 1.101
10 0 1.79 1.101
11 5.3316 1.101 1.101

BondAngle Coeffs

1 8.016 8.016 1.53 1.53
2 0 0 1.53 1.79
3 20.754 11.421 1.53 1.101
4 8.016 8.016 1.53 1.53
5 0 0 1.53 1.79
6 20.754 11.421 1.53 1.101
7 8.016 8.016 1.53 1.53
8 20.754 11.421 1.53 1.101
9 0 0 1.79 1.101
10 0 0 1.79 1.101
11 18.103 18.103 1.101 1.101

Dihedral Coeffs # class2

1 0 0 0.0514 0 -0.143 0
2 0 0 0 0 0.15 0
3 0 0 0.0316 0 -0.1681 0
4 0 0 0.0514 0 -0.143 0
5 0 0 0.0316 0 -0.1681 0
6 0 0 0 0 0.15 0
7 0 0 0.0316 0 -0.1681 0
8 0 0 0 0 0.15 0
9 0 0 0.0316 0 -0.1681 0
10 0 0 0 0 -0.1 0
11 0 0 0 0 -0.1 0
12 -0.1432 0 0.0617 0 -0.1083 0
13 -0.1432 0 0.0617 0 -0.1083 0

AngleAngleTorsion Coeffs

1 -22.045 112.67 112.67
2 0 112.67 107
3 -16.164 112.67 110.77
4 -22.045 112.67 112.67
5 -16.164 112.67 110.77
6 0 112.67 107
7 -16.164 112.67 110.77
8 0 112.67 107
9 -16.164 112.67 110.77
10 0 107 110.77
11 0 107 110.77
12 -12.564 110.77 110.77
13 -12.564 110.77 110.77

EndBondTorsion Coeffs

1 -0.0732 0 0 -0.0732 0 0 1.53 1.53
2 0 0 0 0 0 0 1.53 1.79
3 0.2486 0.2422 -0.0925 0.0814 0.0591 0.2219 1.53 1.101
4 -0.0732 0 0 -0.0732 0 0 1.53 1.53
5 0.2486 0.2422 -0.0925 0.0814 0.0591 0.2219 1.53 1.101
6 0 0 0 0 0 0 1.53 1.79
7 0.2486 0.2422 -0.0925 0.0814 0.0591 0.2219 1.53 1.101
8 0 0 0 0 0 0 1.53 1.79
9 0.2486 0.2422 -0.0925 0.0814 0.0591 0.2219 1.53 1.101
10 0 0 0 0 0 0 1.79 1.101
11 0 0 0 0 0 0 1.79 1.101
12 0.213 0.312 0.0777 0.213 0.312 0.0777 1.101 1.101
13 0.213 0.312 0.0777 0.213 0.312 0.0777 1.101 1.101

MiddleBondTorsion Coeffs

1 -17.787 -7.1877 0 1.53
2 0 0 0 1.53
3 -14.879 -3.6581 -0.3138 1.53
4 -17.787 -7.1877 0 1.53
5 -14.879 -3.6581 -0.3138 1.53
6 0 0 0 1.53
7 -14.879 -3.6581 -0.3138 1.53
8 0 0 0 1.53
9 -14.879 -3.6581 -0.3138 1.53
10 0 0 0 1.53
11 0 0 0 1.53
12 -14.261 -0.5322 -0.4864 1.53
13 -14.261 -0.5322 -0.4864 1.53

BondBond13 Coeffs

1 0 1.53 1.53
2 0 1.53 1.79
3 0 1.53 1.101
4 0 1.53 1.53
5 0 1.53 1.101
6 0 1.53 1.79
7 0 1.53 1.101
8 0 1.53 1.79
9 0 1.53 1.101
10 0 1.79 1.101
11 0 1.79 1.101
12 0 1.101 1.101
13 0 1.101 1.101

AngleTorsion Coeffs

1 0.3886 -0.3139 0.1389 0.3886 -0.3139 0.1389 112.67 112.67
2 0 0 0 0 0 0 112.67 107
3 -0.2454 0 -0.1136 0.3113 0.4516 -0.1988 112.67 110.77
4 0.3886 -0.3139 0.1389 0.3886 -0.3139 0.1389 112.67 112.67
5 -0.2454 0 -0.1136 0.3113 0.4516 -0.1988 112.67 110.77
6 0 0 0 0 0 0 112.67 107
7 -0.2454 0 -0.1136 0.3113 0.4516 -0.1988 112.67 110.77
8 0 0 0 0 0 0 112.67 107
9 -0.2454 0 -0.1136 0.3113 0.4516 -0.1988 112.67 110.77
10 0 0 0 0 0 0 107 110.77
11 0 0 0 0 0 0 107 110.77
12 -0.8085 0.5569 -0.2466 -0.8085 0.5569 -0.2466 110.77 110.77
13 -0.8085 0.5569 -0.2466 -0.8085 0.5569 -0.2466 110.77 110.77

Improper Coeffs # class2

1 0 0
2 0 0
3 0 0
4 0 0
5 0 0
6 0 0
7 0 0
8 0 0
9 0 0
10 0 0
11 0 0

AngleAngle Coeffs

1 0 0 0 107 110.77 107.997
2 0.1184 -1.3199 -1.3199 110.77 112.67 110.77
3 0 0 0 110.77 107 107.997
4 0.2738 -0.4825 0.2738 110.77 110.77 107.66
5 -1.3199 -1.3199 0.1184 112.67 110.77 110.77
6 0.2738 -0.4825 0.2738 110.77 110.77 107.66
7 0 0 0 107.997 107.997 107.66
8 -0.3157 -0.3157 -0.3157 107.66 107.66 107.66
9 0 0 0 112.67 107 107
10 -1.3199 -1.3199 0.1184 112.67 110.77 110.77
11 0 0 0 107 110.77 107.997

Atoms # full

312 1 3 -0.184 9.285141363525257 7.8737713769586755 42.099738303462814 0 1 0
310 1 2 0.131 7.874082409636333 8.79687220554145 41.626443324055444 0 1 0
307 1 1 -0.106 8.089565999775932 10.308065640319935 41.79193292054347 0 1 0
2143 6 4 0.053 6.874754617271569 8.004991288731745 9.897035944000649 0 0 0
314 1 4 0.053 6.964848946186877 7.013306189052494 42.63406431399112 0 1 0
313 1 1 -0.106 6.688926841080412 8.038959296194326 42.31197374536474 0 1 0
315 1 4 0.053 6.405016670668314 8.43722275287178 6.043445502296141 0 1 1
305 1 4 0.053 9.89775926903275 10.403121199446744 5.867926474822305 0 1 1
306 1 3 -0.184 7.896969914450827 9.952258073343042 7.2456422560940315 0 1 1
2917 9 4 0.053 10.310010161121811 10.604228022583161 9.054075477564698 0 0 1
304 1 2 0.131 8.812797031084619 10.6978284910885 5.90544934379125 0 1 1
2145 6 4 0.053 41.82874747126445 7.701026739974207 8.458305181712 -1 0 0
2144 6 2 0.131 41.972349444378 8.030389739051449 9.511930293399466 -1 0 0
2146 6 3 -0.184 41.95536893646593 9.866392859205156 9.681174278133195 -1 0 0
2141 6 1 -0.106 5.965716428464327 7.430085030088624 10.224944220701948 0 0 0
2915 9 1 -0.106 11.14683704000166 10.896109937072668 9.562838628223474 0 0 1
2916 9 4 0.053 11.063268799016555 10.541014314171981 10.593152761403605 0 0 1
2914 9 3 -0.184 12.040311327135175 10.801520978619578 7.1429922162811845 0 0 1
2911 9 4 0.053 13.27911735129329 8.398406834994898 8.186898365353594 0 0 1
2909 9 1 -0.106 12.467316422207528 8.630897149800006 8.886386143071544 0 0 1
2910 9 4 0.053 11.477108508455391 8.182886149647508 8.517925639968873 0 0 1
2912 9 2 0.131 12.336984621330263 10.2356570887315 8.914942699629513 0 0 1
2913 9 4 0.053 13.193378740220629 10.781047820042772 9.203707925091452 0 0 1
2901 9 4 0.053 14.82745111581764 9.75735084724463 9.794356928967169 0 0 1
1224 4 3 -0.184 15.534726879977567 7.647443493594286 6.35078190385562 0 1 1
1230 4 3 -0.184 18.252666728365757 9.696718483527004 7.2397301402878975 0 1 1
2906 9 2 0.131 12.863194602711271 7.838235208716573 10.236428704975378 0 0 1
1896 6 4 0.053 21.749620972012885 9.348022616524679 5.947374629282762 0 0 0
1897 6 4 0.053 21.05925601595714 10.098935720076948 7.368774299502899 0 0 0
1895 6 1 -0.106 21.925781869858763 10.13382823457129 6.6297093878930164 0 0 0
1902 6 4 0.053 22.19356779601044 8.648252240154513 8.827417898009237 0 0 0
2103 6 4 0.053 18.966452500256665 6.256225333050239 7.645794692245923 0 0 0
2097 6 4 0.053 21.257479199001352 5.662489015054523 6.740522095098707 0 0 0
1911 6 4 0.053 22.840884974182522 6.2747846920402965 9.235308360292994 0 0 0
1903 6 4 0.053 23.287993586974487 7.797002358883534 7.702624170487294 0 0 0
1898 6 2 0.131 23.226791297694945 10.032215655474067 7.466996363154777 0 0 0
1899 6 4 0.053 23.439589908339013 11.028238463242548 7.96528778323362 0 0 0
1900 6 3 -0.184 24.578480397603904 9.764603198715118 6.386113316626483 0 0 0
1901 6 1 -0.106 23.22388384316836 8.718931229405335 8.297972140741347 0 0 0
1904 6 2 0.131 24.288845317306833 8.55031526301746 9.40645476814873 0 0 0
1905 6 4 0.053 25.312088586690184 8.402158786612782 8.969714802885182 0 0 0
1661 5 4 0.053 28.090675569720588 9.210881534796986 6.651317940367793 -1 1 1
1655 5 4 0.053 28.91011702099336 7.577789394239396 7.856126429955351 -1 1 1
1659 5 1 -0.106 28.87181298073797 9.958973413596723 6.946855327080577 -1 1 1
1907 6 1 -0.106 24.08666392581768 7.433134629199281 10.371718138077751 0 0 0
1910 6 2 0.131 23.72388774718055 5.954427609723796 9.759152049772453 0 0 0
1912 6 3 -0.184 24.87940536696777 42.70552386399636 8.391129408410084 0 -1 0
1660 5 4 0.053 29.763342639470103 9.545389507694312 6.4521274988816035 -1 1 1
1657 5 4 0.053 28.416400825546223 9.643937811349584 9.02809372076411 -1 1 1
1654 5 4 0.053 30.581028497737076 7.717708741085055 8.040668126765153 -1 1 1
1647 5 1 -0.106 29.929892913962 6.036143189717134 9.999457953485624 -1 1 1
1656 5 2 0.131 29.32883248087267 9.596513782584058 8.402124465617884 -1 1 1
1653 5 1 -0.106 29.654935506851608 8.08979516404544 8.506672741943115 -1 1 1
1650 5 2 0.131 29.635518553860873 7.559250337865834 9.923757746033077 -1 1 1
1651 5 4 0.053 30.393451052194962 8.064834153619568 10.475866653320445 -1 1 1
1658 5 3 -0.184 30.46463559803653 10.682867175280716 9.296720399918382 -1 1 1
1645 5 4 0.053 30.593935476672996 42.60312322887651 7.958680701797163 -1 0 1
1648 5 4 0.053 30.43582932509389 5.908637518170081 10.982912316997137 -1 1 1
1649 5 4 0.053 29.018328675436166 42.581014015282946 9.817909383190376 -1 0 1
1644 5 2 0.131 30.862587425657193 42.583949840992645 9.029073222940905 -1 0 1
1652 5 3 -0.184 28.011229641762505 7.591123107846675 10.789914681031533 -1 1 1
1646 5 3 -0.184 32.42769161182186 6.231048711168652 9.109067994023754 -1 1 1
362 1 4 0.053 33.57158581328843 11.615639211820227 9.392352903871874 -1 1 1
360 1 3 -0.184 33.60952246532413 9.315777742110487 10.200694724145265 -1 1 1
359 1 4 0.053 34.90275144950489 11.232882183009968 10.545815630922219 -1 1 1
358 1 1 0.078 34.369677958438785 10.847294359000422 9.59901762709993 -1 1 1
2157 6 4 0.053 37.04296826145638 7.233264271503942 7.555421186409214 -1 0 0
2151 6 4 0.053 38.483334405265666 7.602305155432633 10.187866864436913 -1 0 0
2156 6 2 0.131 37.45602577219793 6.321672198685936 7.910786801178324 -1 0 0
2158 6 3 -0.184 36.37399065511581 5.960743806282155 9.182191977407335 -1 0 0
2152 6 3 -0.184 39.18939663604321 9.066228515747094 8.421928337185113 -1 0 0
2150 6 2 0.131 39.29521571290327 7.538861347344424 9.37076588198249 -1 0 0
2147 6 1 -0.106 40.63885005505854 7.444223520125484 10.163249565276175 -1 0 0
321 1 4 0.053 41.5926757740386 7.3236498199154045 5.855747672290667 -1 1 1
324 1 3 -0.184 41.62331355681934 10.007472996032185 6.533487343116684 -1 1 1
332 1 4 0.053 39.35464163898216 11.490904834695872 5.855486378194287 -1 1 1
322 1 2 0.131 40.55441897030617 9.166218051268096 42.51240299232512 -1 1 0
319 1 1 -0.106 41.2921459741205 7.826518096989345 42.07681594304199 -1 1 0
323 1 4 0.053 39.64025788541517 8.920544882437571 5.881399797501246 -1 1 1
302 1 4 0.053 9.431806636481536 12.170263046850355 7.377434507922108 0 1 1
2928 9 4 0.053 7.029644992549705 13.512263012838085 10.437437865541849 0 0 1
2927 9 1 -0.106 7.568930674560145 14.424765182789928 10.502712586387988 0 0 1
2922 9 4 0.053 8.917490480853143 11.876601327581078 10.1564468466811 0 0 1
300 1 3 -0.184 10.42176479316911 14.284229050818775 6.49569261913356 0 1 1
2930 9 2 0.131 6.805730152350548 15.540286159773066 9.817794198272056 0 0 1
2933 9 1 -0.106 42.611681421065256 15.691071846551928 10.512633591263857 -1 0 1
2932 9 3 -0.184 6.475572896808846 14.806440411277801 8.255957366281294 0 0 1
2931 9 4 0.053 7.317699605542585 16.490096033829964 9.606905978961237 0 0 1
2924 9 2 0.131 9.047991873647225 14.092430819611657 9.89073437574041 0 0 1
2921 9 1 -0.106 9.620823444568837 12.787723048100064 10.261177403300888 0 0 1
301 1 1 -0.106 8.962125259665505 12.216904070413651 6.304257567074077 0 1 1
2925 9 4 0.053 8.885749144163755 14.144506480037906 8.793206629544084 0 0 1
2935 9 4 0.053 41.777635586964564 16.319028743760498 10.06816769627035 -1 0 1
1228 4 2 0.131 17.74679577302358 10.459139480439747 5.6649856033712025 0 1 1
2918 9 2 0.131 11.039539790678344 12.453654428908813 9.651489226925431 0 0 1
2919 9 4 0.053 11.253739509796791 13.002025275723984 8.74827832996302 0 0 1
3240 9 4 0.053 13.451739730353395 14.963771573900516 9.30956607067531 0 -1 1
3239 9 1 -0.106 14.13503504906758 14.960043184707734 8.392795844241075 0 -1 1
3246 9 4 0.053 15.48979405566501 14.895703449295096 10.87324315120684 0 -1 1
3247 9 4 0.053 16.2949028525151 15.956542251902244 9.664079360169039 0 -1 1
3242 9 2 0.131 15.452638838762715 14.272448893336948 8.802869186540986 0 -1 1
3245 9 1 -0.106 16.141666150019184 14.894540055624809 9.982605126418921 0 -1 1
3244 9 3 -0.184 15.14611711709885 12.526249187648201 9.168454316783093 0 -1 1
3241 9 4 0.053 13.60363928217926 14.267030387174707 7.699379458249746 0 -1 1
3243 9 4 0.053 16.208763837599314 14.305649693348938 7.940648104451166 0 -1 1
1233 4 4 0.053 17.496888772795206 12.436090265110991 6.385510457735595 0 1 1
3234 9 4 0.053 15.67187795660046 16.14832766334061 6.8683404500861105 0 -1 1
1232 4 4 0.053 16.025194868523997 11.619627446459306 6.577788074732643 0 1 1
3236 9 2 0.131 13.949480693069471 16.407831093891957 7.833553564487071 0 -1 1
3238 9 3 -0.184 12.170267051270937 16.44173888171305 7.35260450038197 0 -1 1
3233 9 1 -0.106 14.829583532136288 16.830776601756376 6.643756328478178 0 -1 1
3235 9 4 0.053 14.458538402676094 16.479044804019914 5.671530270638264 0 -1 1
1894 6 3 -0.184 21.017568203258538 11.224283709368871 41.559685865373794 0 0 -1
3249 9 4 0.053 18.02528718417978 13.800013062584844 9.401675238175185 0 -1 1
3248 9 2 0.131 17.661587527538202 14.446393157636212 10.199197806580383 0 -1 1
1892 6 2 0.131 21.742601550067906 11.54501809886996 5.94377366116727 0 0 0
1888 6 3 -0.184 20.38323178495442 14.38479703052295 42.19855907458927 0 0 -1
1890 6 4 0.053 19.969543908519547 12.356867482547841 6.642704080233537 0 0 0
1889 6 1 -0.106 20.99204044330579 12.567865559468906 6.783610829523998 0 0 0
1887 6 4 0.053 20.696721291886398 14.642081486638544 7.119359818933131 0 0 0
1886 6 2 0.131 21.329441178583775 13.987939296650337 6.441651314942051 0 0 0
1891 6 4 0.053 21.257533686161405 12.359611253292922 7.791948135200284 0 0 0
3255 9 4 0.053 20.21466626040116 14.532131450190457 11.416408616891346 0 -1 1
3250 9 3 -0.184 17.6667606784408 13.29155519538148 11.625671036769784 0 -1 1
1229 4 4 0.053 18.691934792628025 10.770191006539392 42.46023609973409 0 1 0
1893 6 4 0.053 22.79317323566702 11.818856801810714 5.7796540864979695 0 0 0
1881 6 4 0.053 22.038572282039173 16.4507816775142 5.979574968547065 0 0 0
1885 6 4 0.053 23.074262064850984 14.079591033495953 42.43493358252107 0 0 -1
1662 5 2 0.131 28.43850045362008 11.397313479442307 6.5239174722136175 -1 1 1
1878 6 4 0.053 22.888770519826622 16.62069477535752 8.22653086383141 0 0 0
1884 6 4 0.053 23.477894546636215 14.010244178680553 6.916981133759527 0 0 0
1879 6 4 0.053 24.55044893694585 16.180747489211864 7.760739309140538 0 0 0
1883 6 1 -0.106 22.78812085250505 14.458618224104965 6.223217711666779 0 0 0
1880 6 2 0.131 22.993660948256487 16.03404375960701 6.146543244288803 0 0 0
1664 5 3 -0.184 27.38909698002398 12.023177447422 7.833077356623013 -1 1 1
2327 7 4 0.053 30.30383476488277 12.647629995133183 11.139739774450732 0 0 1
2321 7 4 0.053 27.218191752568156 12.795280782721322 11.05390200151831 0 0 1
2322 7 3 -0.184 28.347094018708077 11.354559991044537 12.303685988617023 0 0 1
2323 7 1 -0.106 28.699387687517174 13.890573306375991 12.209319602248996 0 0 1
2320 7 2 0.131 27.53777218155576 12.901773000944427 12.02787397987652 0 0 1
2325 7 4 0.053 28.453656089096945 14.987678014420938 12.228305094466739 0 0 1
2316 7 3 -0.184 24.881231605260457 13.959647308019377 10.876217575383823 0 0 1
3330 10 3 -0.184 28.7102170749558 16.976852558388625 42.412559193086295 0 0 0
1666 5 4 0.053 28.862662493252888 13.444253634988522 6.0750231028876716 -1 1 1
1667 5 4 0.053 30.23616200185229 12.859218315640863 6.72704408716254 -1 1 1
1665 5 1 -0.106 29.45849870733142 12.56476630486112 6.028416506959918 -1 1 1
2989 9 4 0.053 33.913554409451436 16.257140519375184 8.78965918311565 -1 0 1
2983 9 4 0.053 35.18983913607377 15.448420975791128 10.678201960572572 -1 0 1
1673 5 4 0.053 31.79583086030697 11.659708050655833 42.63251685340967 -1 1 0
2334 7 3 -0.184 33.31771478088437 12.92209320885334 12.2477010245244 0 0 1
2987 9 1 -0.106 34.896150416755965 16.58148664051409 8.64765016850645 -1 0 1
2326 7 2 0.131 29.881301288765556 13.789684160083448 11.15241014007314 0 0 1
2331 7 4 0.053 31.86254583483158 14.789375854364105 10.695881275078216 0 0 1
2329 7 1 -0.106 31.205162332810257 14.592543286490223 11.592428856892507 0 0 1
356 1 4 0.053 34.80328896183988 10.140732951598098 7.540785215784664 -1 1 1
355 1 1 -0.106 35.30350903374889 10.661261612907088 8.471584648174058 -1 1 1
357 1 4 0.053 36.03522326819231 9.912179512321524 8.850717714975023 -1 1 1
351 1 4 0.053 37.65536219389742 11.466135125020863 9.609505457635594 -1 1 1
350 1 4 0.053 36.48940344471869 12.560549184819184 10.262887662667612 -1 1 1
2988 9 4 0.053 35.43918320393089 15.750387806045335 8.792572959393858 -1 0 1
353 1 4 0.053 36.71467014198393 11.621067906398306 7.184213486411997 -1 1 1
352 1 2 0.131 36.062284555317305 11.899985709453667 8.044915936414897 -1 1 1
349 1 1 -0.106 37.001462973052696 12.341212732700313 9.302091438856161 -1 1 1
343 1 1 -0.106 38.85672012857148 13.542019361899573 7.899835730812194 -1 1 1
344 1 4 0.053 39.83557792558531 13.79983743546509 8.269630868293872 -1 1 1
347 1 4 0.053 37.33298361935766 14.629961539798234 8.8700998161836 -1 1 1
346 1 2 0.131 37.87192339831316 13.618961356401655 8.99171575706611 -1 1 1
354 1 3 -0.184 34.92408721479482 13.0743009176912 7.5882161337389356 -1 1 1
348 1 3 -0.184 38.956110994337465 13.644106077309802 10.42093598069959 -1 1 1
341 1 4 0.053 37.47290423959162 14.527353277229068 6.321978800600211 -1 1 1
340 1 2 0.131 38.58836777139774 14.458625019036763 6.669039088065982 -1 1 1
345 1 4 0.053 39.01333036560699 12.453410828858985 7.595672964580765 -1 1 1
2990 9 2 0.131 35.13139914437306 17.133611152920608 7.274234364023279 -1 0 1
2991 9 4 0.053 35.32284180242229 16.357399684657715 6.5929613731284755 -1 0 1
342 1 3 -0.184 38.91981819140645 16.11507613148172 7.327596564633907 -1 1 1
2934 9 4 0.053 42.1554481454457 14.664700504765662 10.339625169971296 -1 0 1
338 1 4 0.053 40.485106333227236 13.754728202440608 6.078244616606411 -1 1 1
339 1 4 0.053 39.98931173297885 15.114342112952217 42.267255588307435 -1 1 0
335 1 4 0.053 39.894457340022626 13.059734488335305 40.88192630751129 -1 1 0
337 1 1 -0.106 39.5536344826061 14.15748100365815 42.72481241109563 -1 1 0
334 1 2 0.131 39.154630921748875 13.129406421631376 41.63055444883295 -1 1 0
2184 7 3 -0.184 42.760934831055394 17.92845091897016 6.917621337758504 0 0 1
2187 7 4 0.053 6.490407764844997 20.391887190133062 7.815118048708009 1 0 1
2185 7 1 -0.106 42.659029816387516 20.571088581696543 7.609765388772409 0 0 1
2182 7 2 0.131 42.279057374313524 19.571570750408853 6.418973670212846 0 0 1
2186 7 4 0.053 42.027830091868736 20.44364241498326 8.479043699210623 0 0 1
2944 9 3 -0.184 5.6399957573394905 19.052293044022818 10.46509210312216 0 0 1
3214 9 3 -0.184 10.125121389076075 19.88748755138718 7.2165190982854455 0 -1 1
3216 9 4 0.053 11.023526980518486 22.564863489160977 6.2607820980701145 0 -1 1
3210 9 4 0.053 9.485216619223873 22.012629784575218 8.822877359239435 0 -1 1
3209 9 1 -0.106 10.492857441634834 21.959298473250414 9.100390613737638 0 -1 1
3237 9 4 0.053 14.044087352879451 17.138777405691897 8.642220127358268 0 -1 1
3223 9 4 0.053 12.158635262736698 20.35408601784764 42.52659813887804 0 -1 0
3228 9 4 0.053 14.165982024967947 19.86288760195847 7.292862704590738 0 -1 1
3227 9 1 -0.106 14.879020032769578 19.633191946109562 6.490848623690846 0 -1 1
3229 9 4 0.053 15.570046184139205 20.502569775030704 6.712975671394683 0 -1 1
3230 9 2 0.131 15.538885462288977 18.205293295604868 6.578096083286903 0 -1 1
3232 9 3 -0.184 16.92355032533237 18.310628919526877 7.766935576910958 0 -1 1
3212 9 2 0.131 11.254093894652488 21.18187029339699 7.934423424291369 0 -1 1
3213 9 4 0.053 12.006933905092803 20.628896550931863 8.526982587851126 0 -1 1
3204 9 4 0.053 12.78924644097036 20.550433354177557 10.717115682272157 0 -1 1
3218 9 2 0.131 13.143335155651279 22.079944105029384 6.077056386359198 0 -1 1
3219 9 4 0.053 14.034186476552382 22.1181404452309 6.820945816924313 0 -1 1
3215 9 1 -0.106 11.875389915875353 22.209341536173 6.864738274146497 0 -1 1
3221 9 1 -0.106 13.09280045430226 20.951585675435318 42.3305470925618 0 -1 0
3224 9 2 0.131 14.33202833502259 20.00859517031404 42.302411306178016 0 -1 0
3226 9 3 -0.184 15.530272068171813 21.05805966321092 41.478495534415146 0 -1 0
3251 9 1 -0.106 18.659131385433284 15.580964790817795 10.451299182143579 0 -1 1
3253 9 4 0.053 18.53920197980586 16.401067321063785 9.700636867168342 0 -1 1
3254 9 1 0.078 20.075936844137075 15.060951216420671 10.448366785610583 0 -1 1
3258 9 4 0.053 20.38483855944974 14.456527182603281 9.69233321229827 0 -1 1
3256 9 3 -0.184 20.89030081040896 16.648900561269883 10.393421811112184 0 -1 1
1866 6 4 0.053 21.84902755818108 21.465946669329238 5.873316447216653 0 0 0
1857 6 4 0.053 19.909756138757025 22.888378934791174 6.650236321874241 0 0 0
1865 6 1 -0.106 21.608149324678504 20.561141330886425 42.45061863171587 0 0 -1
1864 6 3 -0.184 19.841513113052763 20.26773670297481 7.212206934774491 0 0 0
1869 6 4 0.053 22.75756573467392 18.79812491576458 42.12487472838721 0 0 -1
1867 6 4 0.053 21.663645289853697 20.789974316917032 41.37925660950671 0 0 -1
1868 6 2 0.131 22.796588204802056 19.654169508175674 42.75369757937507 0 0 -1
1872 6 4 0.053 21.97470196278888 18.605318229043945 7.318608042450741 0 0 0
3542 10 4 0.053 18.24404290269458 20.18493518968203 10.48638373298786 0 0 1
3252 9 4 0.053 18.583269300896074 16.15384775668207 11.417581463350354 0 -1 1
3541 10 1 -0.106 18.13953725724177 20.86309551001078 11.344927093200624 0 0 1
1859 6 1 -0.106 19.27234088507513 21.526499876915125 42.1751976787226 0 0 -1
1862 6 2 0.131 20.165051914312116 20.336507827599963 42.7593475382521 0 0 -1
1877 6 1 -0.106 23.610543703215562 16.650674304825582 7.4291482767883 0 0 0
1871 6 1 -0.106 22.86746755107044 19.160500478069224 7.042993548901109 0 0 0
1874 6 2 0.131 23.989103645843297 18.144605130596126 7.3422185562405975 0 0 0
1876 6 3 -0.184 24.51519380357338 18.509639513643297 8.945884475506842 0 0 0
1873 6 4 0.053 22.801793584154474 20.07592751797937 7.647895898290047 0 0 0
3315 10 4 0.053 26.827619841800736 22.79575346666262 9.116325698125081 0 0 1
3320 10 4 0.053 26.484131665877168 21.25728023223754 6.6039830797252534 0 0 1
1875 6 4 0.053 24.81818471456305 18.395763136946563 6.6856237051859395 0 0 0
3329 10 4 0.053 27.030211319288775 18.310222942529432 6.133733705583142 0 0 1
3321 10 4 0.053 27.647833065823054 20.991897653257006 7.703318477424729 0 0 1
3328 10 2 0.131 27.706011660061396 18.477707926773675 42.37242288582509 0 0 0
2981 9 1 -0.106 35.30838080135847 16.40797147232758 11.150393407165652 -1 0 1
2986 9 3 -0.184 33.501496622002975 18.296596571084194 10.431528552607183 -1 0 1
2328 7 3 -0.184 29.537551522841976 14.277326654847368 9.434159053245866 0 0 1
2993 9 1 -0.106 34.115243173156315 18.01246828188885 6.532553644741159 -1 0 1
3316 10 2 0.131 27.715608073391987 22.99322724181806 7.15784842121692 0 0 1
3319 10 1 -0.106 27.504007496685688 21.548465603152014 6.755991330611286 0 0 1
3318 10 3 -0.184 29.52886472317658 23.173376094870495 7.574422014646049 0 0 1
3325 10 1 -0.106 28.741043774552246 19.63085658213403 42.51967556346834 0 0 0
3322 10 2 0.131 28.24851814622165 21.13064218482701 42.682866778684556 0 0 0
3323 10 4 0.053 29.083306995751535 21.81602944283161 42.308973475410184 0 0 0
3327 10 4 0.053 29.222149616362152 19.445339832076982 6.22696125745825 0 0 1
2985 9 4 0.053 35.95111641529114 18.135683000873083 9.996297528351615 -1 0 1
2984 9 2 0.131 35.03190507037376 17.43500529080511 9.964859142513674 -1 0 1
2995 9 4 0.053 34.076889561785904 19.07198624445173 6.959140969577824 -1 0 1
2982 9 4 0.053 34.33072245645803 16.146581545308305 11.818944982018284 -1 0 1
2979 9 4 0.053 37.46114530016084 16.73889030672275 11.253930277886951 -1 0 1
2992 9 3 -0.184 36.62465318308416 18.129506372880883 7.3868001659858304 -1 0 1
3393 10 4 0.053 36.63960654966776 20.775203351446933 7.973426375710552 0 0 1
3386 10 4 0.053 34.40080071317131 21.474572214519846 8.650932000825616 0 0 1
3391 10 1 -0.106 36.74921195608525 21.705370701146958 8.633824596850555 0 0 1
3390 10 3 -0.184 35.98273172715366 23.022926243573536 6.490849126572803 0 0 1
3384 10 3 -0.184 32.42518320727722 22.593426274061688 10.19401619061818 0 0 1
3385 10 1 -0.106 34.332498164746056 22.54063533635355 8.34720063934853 0 0 1
2978 9 2 0.131 36.594987985879676 16.573242429679503 11.975833866186438 -1 0 1
3396 10 3 -0.184 39.07234930138199 20.540301243552438 9.294896562938225 0 0 1
2181 7 4 0.053 40.06359623408609 19.2927765809618 6.979413302742444 0 0 1
2179 7 1 -0.106 40.75077760309442 19.528409593149107 6.103624970513878 0 0 1
2180 7 4 0.053 40.43616287875247 20.474743096254098 5.672900386923679 0 0 1
2178 7 3 -0.184 38.56910887569667 18.68035534948089 41.94911393195413 0 0 0
2195 7 4 0.053 7.525975611053511 22.80656221516371 9.105462367127647 1 0 1
2194 7 2 0.131 6.7971101601177395 23.5914263395655 9.078220430466875 1 0 1
2191 7 1 -0.106 42.624242179505444 23.035268936554314 8.443856616997591 0 0 1
2201 7 4 0.053 7.7329654211076 26.19874473494952 10.221987393589679 1 0 1
2196 7 3 -0.184 7.435007253492768 24.7758327310551 7.821331511862303 1 0 1
2881 8 4 0.053 8.904369375573577 26.99897324260007 6.01964123823014 0 -1 1
2198 7 4 0.053 5.681989529205781 24.936896581856363 10.403647922986798 1 0 1
2197 7 1 -0.106 6.615604788306081 24.269093651780302 10.384469296739626 1 0 1
2872 8 4 0.053 6.519675274437113 27.461332318748685 7.810338213174402 0 -1 1
2882 8 3 -0.184 10.88992744005076 26.936269450620987 7.314521628749125 0 -1 1
2873 8 4 0.053 5.964387726340519 28.03868380166826 6.2517378815830345 0 -1 1
3211 9 4 0.053 10.75247639317207 23.039898590308972 9.23356773437758 0 -1 1
2188 7 2 0.131 42.54220439073153 21.97283446023578 7.201522450343459 0 0 1
2190 7 3 -0.184 6.834631037621188 22.199183905092216 6.146062103208488 1 0 1
2192 7 4 0.053 41.90006730171433 23.963133769280876 8.177607912013968 0 0 1
2880 8 2 0.131 9.585084301466464 27.74493077339012 6.392623794882396 0 -1 1
2199 7 4 0.053 6.522963005545778 23.461500808990802 11.117070688963821 1 0 1
2888 8 3 -0.184 11.159090758881913 26.66578043585445 40.72245697231426 0 -1 0
2886 8 2 0.131 11.630746267225305 27.94930526387122 41.8352177389731 0 -1 0
1854 6 4 0.053 17.99889575444049 24.046002996361327 41.60131860943862 0 0 -1
3217 9 4 0.053 12.144726681126409 23.156033631677747 7.4153150361523 0 -1 1
3202 9 3 -0.184 13.936557123434715 22.621928647889327 9.946877662327871 0 -1 1
1848 6 4 0.053 16.02907765234179 25.7555871963897 7.039336429408152 0 0 0
1847 6 1 -0.106 16.582858050850128 25.38201849007177 6.1319613179000605 0 0 0
1849 6 4 0.053 16.033648566691397 24.901409459757076 42.55211302784538 0 0 -1
2887 8 4 0.053 12.427138718359924 27.5994607128396 42.5887587793526 0 -1 0
3220 9 3 -0.184 13.426658875261676 23.467322263885837 42.104892255174875 0 -1 0
1856 6 2 0.131 19.639696706882184 22.885285368941837 42.79001103271956 0 0 -1
1853 6 1 -0.106 18.503830104568614 23.99987154813003 42.62260395992827 0 0 -1
1852 6 3 -0.184 16.551104918712106 22.86505628170518 7.140170297639758 0 0 0
1858 6 3 -0.184 21.14279763588135 23.645162625319173 42.126915528906764 0 0 -1
1850 6 2 0.131 17.55427559117826 24.309797782079 6.667467169831303 0 0 0
3534 10 3 -0.184 20.96458052063754 24.086531109488423 8.767367997830949 0 0 1
1851 6 4 0.053 18.165901236605677 24.796387036531012 7.468371645295436 0 0 0
3537 10 4 0.053 20.439347463295388 21.79812265939152 9.596911646705088 0 0 1
3532 10 2 0.131 19.702472387824315 23.61732872456279 10.05624730917657 0 0 1
3535 10 1 -0.106 20.320042789290518 22.303302710250147 10.594266573490495 0 0 1
3533 10 4 0.053 18.78779061262725 23.357030460985474 9.485682383054687 0 0 1
3527 10 4 0.053 18.200651448245985 25.947130198770232 9.760070633344217 0 0 1
3543 10 4 0.053 17.551321580830816 21.617175931604272 11.017464176779143 0 0 1
3311 10 4 0.053 25.299489214002822 23.28662053036027 7.087463471370762 0 0 1
3313 10 1 -0.106 26.973673127193265 23.602008431812877 8.288707298110253 0 0 1
3310 10 2 0.131 25.643529513613455 24.13921605672532 7.690289397161642 0 0 1
3308 10 4 0.053 26.070710326008165 24.756217666850205 5.751149555710226 0 0 1
3309 10 4 0.053 24.542951127795334 25.32249849065536 6.402374782324027 0 0 1
3307 10 1 -0.106 25.560294275241844 25.190911489425908 6.653887334370321 0 0 1
3304 10 2 0.131 26.32213730908217 26.560504085028363 7.04471336345135 0 0 1
3301 10 1 -0.106 27.102869081973356 27.100513890947575 5.844095799869605 0 0 1
3302 10 4 0.053 26.47741073125954 27.79426736491736 42.44490625614577 0 0 0
3312 10 3 -0.184 24.359305143886026 24.532239241116326 8.98972388924718 0 0 1
3306 10 3 -0.184 25.038091374334545 27.81878569728006 7.420695883815792 0 0 1
3314 10 4 0.053 27.512755655478667 24.296804854262312 8.906161380797597 0 0 1
3317 10 4 0.053 27.68807414799364 23.724227553222086 6.200725002818629 0 0 1
3298 10 2 0.131 28.43921376343967 27.69735913230616 6.344950696321529 0 0 1
3299 10 4 0.053 28.342214429890454 28.298985741082298 7.364516880007235 0 0 1
3305 10 4 0.053 26.68141113191246 26.548894863125533 8.06293837604275 0 0 1
3300 10 3 -0.184 29.40171487244743 26.26094964868251 6.674354553870042 0 0 1
3380 10 4 0.053 32.0352403827664 25.13165384982641 9.235406631313754 0 0 1
1386 4 3 -0.184 29.134705423902453 26.47777222219397 10.074448487359465 0 0 0
1389 4 4 0.053 29.095655091048695 24.773505732389346 11.888581569822867 0 0 0
3392 10 4 0.053 36.41832446707673 21.427073413986534 9.544011565151779 0 0 1
3394 10 2 0.131 38.201097915335424 22.060127750663256 8.987265526532967 0 0 1
3382 10 2 0.131 33.57308279865501 23.52067170316405 9.270774022268935 0 0 1
3383 10 4 0.053 34.234009846171794 23.849215898457313 10.010529609719484 0 0 1
3388 10 2 0.131 35.849885349376805 22.86958428724653 8.193641572704935 0 0 1
3395 10 4 0.053 38.63246963186927 22.579288403844146 8.103432840801473 0 0 1
3378 10 3 -0.184 34.454079848159175 26.383371821606453 10.12817488893249 0 0 1
3379 10 1 -0.106 32.91495852165849 24.75780413488223 8.647224581820499 0 0 1