units real
atom_style full
boundary p p p

# --- Force Field Styles ---
pair_style lj/class2/coul/long 9.5 9.5
kspace_style pppm 1e-6
dielectric 1.000000
bond_style class2
angle_style class2
dihedral_style class2
improper_style class2
special_bonds lj/coul 0 0 1
pair_modify mix sixthpower tail yes
neighbor 2.0 bin
neigh_modify delay 0 every 1 check yes
neigh_modify one 4000
# KOKKOS: package loaded via -pk kokkos on the command line

read_data /home/arz2/PolyJarvis/data/PEEK2/lammps/npt_production/npt_production_out.data
Reading data file ...
  orthogonal box = (4.4401811 4.4401811 4.4401811) to (57.021024 57.021024 57.021024)
  1 by 1 by 1 MPI processor grid
  reading atoms ...
  10900 atoms
  reading velocities ...
  10900 velocities
  scanning bonds ...
  3 = max bonds/atom
  scanning angles ...
  9 = max angles/atom
  scanning dihedrals ...
  18 = max dihedrals/atom
  scanning impropers ...
  4 = max impropers/atom
  orthogonal box = (4.4401811 4.4401811 4.4401811) to (57.021024 57.021024 57.021024)
  1 by 1 by 1 MPI processor grid
  reading bonds ...
  11850 bonds
  reading angles ...
  18880 angles
  reading dihedrals ...
  28140 dihedrals
  reading impropers ...
  6080 impropers
Finding 1-2 1-3 1-4 neighbors ...
  special bond factors lj:    0        0        1       
  special bond factors coul:  0        0        1       
     3 = max # of 1-2 neighbors
     6 = max # of 1-3 neighbors
     9 = max # of special neighbors
  special bonds CPU = 0.005 seconds
  read_data CPU = 0.308 seconds
include /home/arz2/PolyJarvis/data/PEEK2/lammps/cell/emc_build.params
# LAMMPS parameters created by EMC v9.4.4, build Jul 31 2025 20:33:44

# Variables

variable	seed		index	274348
variable	ntotal		index	10900
variable	fshape		index	1
variable	output		index	emc_build
variable	field		index	pcff/pcff
variable	location1	index	/home/arz2/emc/field/
variable	nav		index	0.6022141179
variable	temperature	index	300
variable	radius		index	5
variable	nrelax		index	100
variable	weight_nonbond	index	0.0001
variable	weight_bond	index	0.0001
variable	weight_focus	index	1
variable	cutoff		index	9.5
variable	charge_cutoff	index	9.5
variable	kappa		index	4
variable	density1	index	0.66
variable	lprevious	index	0
variable	lphase		index	61.4612049865
variable	f_poly		index	10
variable	chem_repeat	index	*Oc1ccc(Oc2ccc(C(=O)c3ccc(cc3)*)cc2)cc1
variable	chem_cap	index	*[H]
variable	lg_repeat	index	34
variable	lg_cap		index	1
variable	norm_poly	index	100
variable	l_poly		index	1090
variable	mg_repeat	index	260.29514
variable	mg_cap		index	0
variable	m_poly		index	8329.44448
variable	n_poly		index	10
variable	mtotal		index	92277.9802
variable	nphase1		index	10900
variable	mphase1		index	92277.9802
variable	vphase1		index	232168.455304
variable	lbox		index	61.4612049865
variable	lphase1		index	61.4612049865
variable	lxx		index	61.4612049865
variable	lyy		index	61.4612049865
variable	lzz		index	61.4612049865
variable	lzy		index	0
variable	lzx		index	0
variable	lyx		index	0
variable	vtotal		index	232168.455304
variable	nl_poly		index	10

# Types

variable	type_c_0	index	1
variable	type_cp		index	2
variable	type_hc		index	3
variable	type_ho		index	4
variable	type_o_1	index	5
variable	type_oc		index	6
variable	type_oh		index	7

variable	type_bond_c_0_cp index	1
variable	type_bond_c_0_o_1 index	2
variable	type_bond_cp_cp	index	3
variable	type_bond_cp_hc	index	4
variable	type_bond_cp_oc	index	5
variable	type_bond_cp_oh	index	6
variable	type_bond_ho_oh	index	7

variable	type_angle_c_0_cp_cp index	1
variable	type_angle_cp_c_0_cp index	2
variable	type_angle_cp_c_0_o_1 index	3
variable	type_angle_cp_cp_cp index	4
variable	type_angle_cp_cp_hc index	5
variable	type_angle_cp_cp_oc index	6
variable	type_angle_cp_cp_oh index	7
variable	type_angle_cp_oc_cp index	8
variable	type_angle_cp_oh_ho index	9

# Clusters

variable	n0_poly		index	1
variable	n1_poly		index	10
variable	nl_poly		index	10

# Flags

variable	flag_charged	index	1

# Masses

mass		1    12.01115  # c_0
mass		2    12.01115  # cp
mass		3     1.00797  # hc
mass		4     1.00797  # ho
mass		5    15.99940  # o_1
mass		6    15.99940  # oc
mass		7    15.99940  # oh

# Potentials

pair_modify	mix sixthpower tail yes
special_bonds	lj/coul 0 0 1

# Pair Coeffs

pair_coeff	 1  1    0.12000    3.30800  # c_0,c_0
pair_coeff	 2  2    0.06400    4.01000  # cp,cp
pair_coeff	 3  3    0.02000    2.99500  # hc,hc
pair_coeff	 4  4    0.01300    1.09800  # ho,ho
pair_coeff	 5  5    0.26700    3.30000  # o_1,o_1
pair_coeff	 6  6    0.24000    3.53500  # oc,oc
pair_coeff	 7  7    0.24000    3.53500  # oh,oh

# Bond Coeffs

bond_coeff	1    1.48900  339.35740 -655.72360  670.23620  # c_0,cp
bond_coeff	2    1.21600  823.79480 -1878.79400 2303.53110  # c_0,o_1
bond_coeff	3    1.41700  470.83610 -627.61790 1327.63450  # cp,cp
bond_coeff	4    1.09820  372.82510 -803.45260  894.31730  # cp,hc
bond_coeff	5    1.37680  428.87980 -738.23510 1114.96550  # cp,oc
bond_coeff	6    1.37680  428.87980 -738.23510 1114.96550  # cp,oh
bond_coeff	7    0.96500  532.50620 -1282.90500 2004.76580  # ho,oh

# Angle Coeffs

angle_coeff	1  108.40000   43.95940   -8.39240   -9.33790  # c_0,cp,cp
angle_coeff	2  110.58840   34.62140   -7.09390   -7.40320  # cp,c_0,cp
angle_coeff	3  119.30000   65.10160  -17.97660    0.00000  # cp,c_0,o_1
angle_coeff	4  118.90000   61.02260  -34.99310    0.00000  # cp,cp,cp
angle_coeff	5  117.94000   35.15580  -12.46820    0.00000  # cp,cp,hc
angle_coeff	6  123.42000   73.67810  -21.67870    0.00000  # cp,cp,oc
angle_coeff	7  123.42000   73.67810  -21.67870    0.00000  # cp,cp,oh
angle_coeff	8  109.50000   60.00000    0.00000    0.00000  # cp,oc,cp
angle_coeff	9  108.19000   53.12500   -8.50160    0.00000  # cp,oh,ho

# BondBond Coeffs

angle_coeff	1 bb    0.00000    1.48900    1.41700  # c_0,cp,cp
angle_coeff	2 bb    0.00000    1.48900    1.48900  # cp,c_0,cp
angle_coeff	3 bb    0.00000    1.48900    1.21600  # cp,c_0,o_1
angle_coeff	4 bb   68.28560    1.41700    1.41700  # cp,cp,cp
angle_coeff	5 bb    1.07950    1.41700    1.09820  # cp,cp,hc
angle_coeff	6 bb   48.47540    1.41700    1.37680  # cp,cp,oc
angle_coeff	7 bb   48.47540    1.41700    1.37680  # cp,cp,oh
angle_coeff	8 bb    0.00000    1.37680    1.37680  # cp,oc,cp
angle_coeff	9 bb   20.65770    1.37680    0.96500  # cp,oh,ho

# BondAngle Coeffs

angle_coeff	1 ba    0.00000    0.00000    1.48900    1.41700  # c_0,cp,cp
angle_coeff	2 ba    0.00000    0.00000    1.48900    1.48900  # cp,c_0,cp
angle_coeff	3 ba    0.00000    0.00000    1.48900    1.21600  # cp,c_0,o_1
angle_coeff	4 ba   28.87080   28.87080    1.41700    1.41700  # cp,cp,cp
angle_coeff	5 ba   20.00330   24.21830    1.41700    1.09820  # cp,cp,hc
angle_coeff	6 ba   58.47900  107.68060    1.41700    1.37680  # cp,cp,oc
angle_coeff	7 ba   58.47900  107.68060    1.41700    1.37680  # cp,cp,oh
angle_coeff	8 ba    0.00000    0.00000    1.37680    1.37680  # cp,oc,cp
angle_coeff	9 ba   53.86140   23.92240    1.37680    0.96500  # cp,oh,ho

# Dihedral Coeffs

dihedral_coeff	 1    0.00000    0.00000    4.62820    0.00000    0.00000    0.00000  # c_0,cp,cp,cp
dihedral_coeff	 2    0.00000    0.00000    2.16700    0.00000    0.00000    0.00000  # c_0,cp,cp,hc
dihedral_coeff	 3    0.00000    0.00000    2.50000    0.00000    0.00000    0.00000  # cp,c_0,cp,cp
dihedral_coeff	 4    0.00000    0.00000    0.90630    0.00000    0.00000    0.00000  # cp,cp,c_0,o_1
dihedral_coeff	 5    8.36670    0.00000    1.19320    0.00000    0.00000    0.00000  # cp,cp,cp,cp
dihedral_coeff	 6    0.00000    0.00000    3.96610    0.00000    0.00000    0.00000  # cp,cp,cp,hc
dihedral_coeff	 7    0.00000    0.00000    4.84980    0.00000    0.00000    0.00000  # cp,cp,cp,oc
dihedral_coeff	 8    0.00000    0.00000    4.84980    0.00000    0.00000    0.00000  # cp,cp,cp,oh
dihedral_coeff	 9    0.00000    0.00000    1.80000    0.00000    0.00000    0.00000  # cp,cp,oc,cp
dihedral_coeff	10   -0.69000    0.00000    0.50970    0.00000    0.00950    0.00000  # cp,cp,oh,ho
dihedral_coeff	11    0.00000    0.00000    1.87690    0.00000    0.00000    0.00000  # hc,cp,cp,hc
dihedral_coeff	12    0.00000    0.00000    1.72340    0.00000    0.00000    0.00000  # hc,cp,cp,oc
dihedral_coeff	13    0.00000    0.00000    1.72340    0.00000    0.00000    0.00000  # hc,cp,cp,oh

# MiddleBondTorsion Coeffs

dihedral_coeff	 1 mbt    0.00000    0.00000    0.00000    1.41700  # c_0,cp,cp,cp
dihedral_coeff	 2 mbt    0.00000    0.00000    0.00000    1.41700  # c_0,cp,cp,hc
dihedral_coeff	 3 mbt    0.00000    0.00000    0.00000    1.48900  # cp,c_0,cp,cp
dihedral_coeff	 4 mbt    0.00000    0.00000    0.00000    1.48900  # cp,cp,c_0,o_1
dihedral_coeff	 5 mbt   27.59890   -2.31200    0.00000    1.41700  # cp,cp,cp,cp
dihedral_coeff	 6 mbt    0.00000   -1.15210    0.00000    1.41700  # cp,cp,cp,hc
dihedral_coeff	 7 mbt    0.00000    4.82550    0.00000    1.41700  # cp,cp,cp,oc
dihedral_coeff	 8 mbt    0.00000    4.82550    0.00000    1.41700  # cp,cp,cp,oh
dihedral_coeff	 9 mbt    0.00000    0.00000    0.00000    1.37680  # cp,cp,oc,cp
dihedral_coeff	10 mbt    1.15800    3.26970    3.51320    1.37680  # cp,cp,oh,ho
dihedral_coeff	11 mbt    0.00000    4.82280    0.00000    1.41700  # hc,cp,cp,hc
dihedral_coeff	12 mbt    0.00000    5.54320    0.00000    1.41700  # hc,cp,cp,oc
dihedral_coeff	13 mbt    0.00000    5.54320    0.00000    1.41700  # hc,cp,cp,oh

# EndBondTorsion Coeffs

dihedral_coeff	 1 ebt    0.00000    0.00000    0.00000    0.00000    0.00000    0.00000    1.48900    1.41700  # c_0,cp,cp,cp
dihedral_coeff	 2 ebt    0.00000    0.00000    0.00000    0.00000    0.00000    0.00000    1.48900    1.09820  # c_0,cp,cp,hc
dihedral_coeff	 3 ebt    0.00000    0.00000    0.00000    0.00000    0.00000    0.00000    1.48900    1.41700  # cp,c_0,cp,cp
dihedral_coeff	 4 ebt    0.00000    0.00000    0.00000    0.00000    0.00000    0.00000    1.41700    1.21600  # cp,cp,c_0,o_1
dihedral_coeff	 5 ebt   -0.11850    6.32040    0.00000   -0.11850    6.32040    0.00000    1.41700    1.41700  # cp,cp,cp,cp
dihedral_coeff	 6 ebt    0.00000   -6.89580    0.00000    0.00000   -0.46690    0.00000    1.41700    1.09820  # cp,cp,cp,hc
dihedral_coeff	 7 ebt    0.00000    0.26550    0.00000    0.00000    4.89050    0.00000    1.41700    1.37680  # cp,cp,cp,oc
dihedral_coeff	 8 ebt    0.00000    0.26550    0.00000    0.00000    4.89050    0.00000    1.41700    1.37680  # cp,cp,cp,oh
dihedral_coeff	 9 ebt    0.00000    0.00000    0.00000    0.00000    0.00000    0.00000    1.41700    1.37680  # cp,cp,oc,cp
dihedral_coeff	10 ebt    0.90000   -1.34560    1.19000    3.41320    0.58730   -0.13230    1.41700    0.96500  # cp,cp,oh,ho
dihedral_coeff	11 ebt    0.00000   -0.68900    0.00000    0.00000   -0.68900    0.00000    1.09820    1.09820  # hc,cp,cp,hc
dihedral_coeff	12 ebt    0.00000   -1.58670    0.00000    0.00000    4.26410    0.00000    1.09820    1.37680  # hc,cp,cp,oc
dihedral_coeff	13 ebt    0.00000   -1.58670    0.00000    0.00000    4.26410    0.00000    1.09820    1.37680  # hc,cp,cp,oh

# AngleTorsion Coeffs

dihedral_coeff	 1 at    0.00000    0.00000    0.00000    0.00000    0.00000    0.00000  108.40000  118.90000  # c_0,cp,cp,cp
dihedral_coeff	 2 at    0.00000    0.00000    0.00000    0.00000    0.00000    0.00000  108.40000  117.94000  # c_0,cp,cp,hc
dihedral_coeff	 3 at    0.00000    0.00000    0.00000    0.00000    0.00000    0.00000  110.58840  108.40000  # cp,c_0,cp,cp
dihedral_coeff	 4 at    0.00000    0.00000    0.00000    0.00000    0.00000    0.00000  108.40000  119.30000  # cp,cp,c_0,o_1
dihedral_coeff	 5 at    1.97670    1.02390    0.00000    1.97670    1.02390    0.00000  118.90000  118.90000  # cp,cp,cp,cp
dihedral_coeff	 6 at    0.00000    2.50140    0.00000    0.00000    2.71470    0.00000  118.90000  117.94000  # cp,cp,cp,hc
dihedral_coeff	 7 at    0.00000   10.01550    0.00000    0.00000    1.74040    0.00000  118.90000  123.42000  # cp,cp,cp,oc
dihedral_coeff	 8 at    0.00000   10.01550    0.00000    0.00000    1.74040    0.00000  118.90000  123.42000  # cp,cp,cp,oh
dihedral_coeff	 9 at    0.00000    0.00000    0.00000    0.00000    0.00000    0.00000  123.42000  109.50000  # cp,cp,oc,cp
dihedral_coeff	10 at   -5.13600   -1.01220    0.00000    4.68520    0.02300   -0.59800  123.42000  108.19000  # cp,cp,oh,ho
dihedral_coeff	11 at    0.00000    2.45010    0.00000    0.00000    2.45010    0.00000  117.94000  117.94000  # hc,cp,cp,hc
dihedral_coeff	12 at    0.00000    1.87290    0.00000    0.00000    2.57060    0.00000  117.94000  123.42000  # hc,cp,cp,oc
dihedral_coeff	13 at    0.00000    1.87290    0.00000    0.00000    2.57060    0.00000  117.94000  123.42000  # hc,cp,cp,oh

# AngleAngleTorsion Coeffs

dihedral_coeff	 1 aat    0.00000  108.40000  118.90000  # c_0,cp,cp,cp
dihedral_coeff	 2 aat    0.00000  108.40000  117.94000  # c_0,cp,cp,hc
dihedral_coeff	 3 aat    0.00000  110.58840  108.40000  # cp,c_0,cp,cp
dihedral_coeff	 4 aat    0.00000  108.40000  119.30000  # cp,cp,c_0,o_1
dihedral_coeff	 5 aat    0.00000  118.90000  118.90000  # cp,cp,cp,cp
dihedral_coeff	 6 aat   -4.81410  118.90000  117.94000  # cp,cp,cp,hc
dihedral_coeff	 7 aat  -21.02470  118.90000  123.42000  # cp,cp,cp,oc
dihedral_coeff	 8 aat  -21.02470  118.90000  123.42000  # cp,cp,cp,oh
dihedral_coeff	 9 aat    0.00000  123.42000  109.50000  # cp,cp,oc,cp
dihedral_coeff	10 aat   -4.60720  123.42000  108.19000  # cp,cp,oh,ho
dihedral_coeff	11 aat    0.35980  117.94000  117.94000  # hc,cp,cp,hc
dihedral_coeff	12 aat    4.22960  117.94000  123.42000  # hc,cp,cp,oc
dihedral_coeff	13 aat    4.22960  117.94000  123.42000  # hc,cp,cp,oh

# BondBond13 Coeffs

dihedral_coeff	 1 bb13    0.00000    1.48900    1.41700  # c_0,cp,cp,cp
dihedral_coeff	 2 bb13    0.00000    1.48900    1.09820  # c_0,cp,cp,hc
dihedral_coeff	 3 bb13    0.00000    1.48900    1.41700  # cp,c_0,cp,cp
dihedral_coeff	 4 bb13    0.00000    1.41700    1.21600  # cp,cp,c_0,o_1
dihedral_coeff	 5 bb13   53.00000    1.41700    1.41700  # cp,cp,cp,cp
dihedral_coeff	 6 bb13   -6.27410    1.41700    1.09820  # cp,cp,cp,hc
dihedral_coeff	 7 bb13   -2.24360    1.41700    1.37680  # cp,cp,cp,oc
dihedral_coeff	 8 bb13   -2.24360    1.41700    1.37680  # cp,cp,cp,oh
dihedral_coeff	 9 bb13    0.00000    1.41700    1.37680  # cp,cp,oc,cp
dihedral_coeff	10 bb13    1.15900    1.41700    0.96500  # cp,cp,oh,ho
dihedral_coeff	11 bb13   -1.70770    1.09820    1.09820  # hc,cp,cp,hc
dihedral_coeff	12 bb13    2.05170    1.09820    1.37680  # hc,cp,cp,oc
dihedral_coeff	13 bb13    2.05170    1.09820    1.37680  # hc,cp,cp,oh

# Improper Coeffs

improper_coeff	1   38.79490    0.00000  # c_0,cp,cp,o_1
improper_coeff	2    0.00000    0.00000  # cp,c_0,cp,cp
improper_coeff	3    4.89120    0.00000  # cp,cp,cp,hc
improper_coeff	4   13.04210    0.00000  # cp,cp,cp,oc
improper_coeff	5   13.04210    0.00000  # cp,cp,cp,oh

# AngleAngle Coeffs

improper_coeff	1 aa    0.00000    0.00000    0.00000  110.58840  119.30000  119.30000  # c_0,cp,cp,o_1
improper_coeff	2 aa    0.00000    0.00000    0.00000  108.40000  108.40000  118.90000  # cp,c_0,cp,cp
improper_coeff	3 aa    0.00000    0.00000    0.00000  118.90000  117.94000  117.94000  # cp,cp,cp,hc
improper_coeff	4 aa    0.00000    0.00000    0.00000  118.90000  123.42000  123.42000  # cp,cp,cp,oc
improper_coeff	5 aa    0.00000    0.00000    0.00000  118.90000  123.42000  123.42000  # cp,cp,cp,oh


# --- Thermo Output ---
thermo_style custom step time temp press enthalpy etotal ke pe ebond eangle edihed eimp evdwl ecoul elong etail vol lx ly lz density pxx pyy pzz
thermo_modify flush yes
thermo 1000

# --- Trajectory ---
dump dump_npt all custom 1000 npt_cool300.dump id type mol x y z ix iy iz vx vy vz

# --- Restart Checkpointing ---
# No restart checkpointing

# --- Initial Velocities (optional) ---
# Velocities read from data file

# --- SHAKE Constraints ---
# SHAKE disabled

# --- NPT Thermostat + Barostat (Nose-Hoover) ---
# T_damp = 100.0 fs  (heat bath coupling)
# P_damp = 1000.0 fs  (pressure bath coupling, ~10x T_damp typical)
# Ramp: T=770.0->300.0K  P=1.0->1.0atm
timestep 1.0
fix npt_fix all npt temp 770.0 300.0 100.0 iso 1.0 1.0 1000.0

run 1000000
PPPM Kokkos initialization ...
  using 12-bit tables for long-range coulomb
  G vector (1/distance) = 0.3060503
  grid = 40 40 40
  stencil order = 5
  estimated absolute RMS force accuracy = 0.00037241485
  estimated relative force accuracy = 1.1215163e-06
  using double precision cuFFT
  3d grid and FFT values/proc = 103823 64000
Generated 21 of 21 mixed pair_coeff terms from sixthpower/sixthpower mixing rule
Neighbor list info ...
  update: every = 1 steps, delay = 0 steps, check = yes
  max neighbors/atom: 4000, page size: 100000
  master list distance cutoff = 11.5
  ghost atom cutoff = 11.5
  binsize = 11.5, bins = 5 5 5
  1 neighbor lists, perpetual/occasional/extra = 1 0 0
  (1) pair lj/class2/coul/long/kk, perpetual
      attributes: full, newton off, kokkos_device
      pair build: full/bin/kk/device
      stencil: full/bin/3d
      bin: kk/device
Per MPI rank memory allocation (min/avg/max) = 42.12 | 42.12 | 42.12 Mbytes
   Step          Time           Temp          Press         Enthalpy        TotEng         KinEng         PotEng         E_bond        E_angle        E_dihed        E_impro         E_vdwl         E_coul         E_long         E_tail         Volume           Lx             Ly             Lz          Density          Pxx            Pyy            Pzz      
         0   0              775.28447      1919.5792      70739.852      66670.132      25187.325      41482.807      10959.684      11144.987      10924.667      1374.1816      323.76218      19688.706     -12933.18      -864.02974      145372.62      52.580843      52.580843      52.580843      1.054058       2111.6157      2412.7134      1234.4084    
      1000   1000           769.99458      619.14644      68187.709      66856.017      25015.467      41840.55       10913.593      10933.097      11350.87       1387.8319      469.59931      19713.834     -12928.276     -851.68058      147480.49      52.833761      52.833761      52.833761      1.0389929      1898.5167     -973.53202      932.45465    
      2000   2000           766.388       -211.29919      66007.506      66456.903      24898.297      41558.605      10679.291      10984.364      11460.658      1385.9861      266.01852      19714.199     -12931.911     -861.30215      145832.99      52.636289      52.636289      52.636289      1.0507305     -893.8658      -110.76229      370.73052    
      3000   3000           782.21315      1136.0901      69886.876      67479.509      25412.422      42067.086      10990.74       11189.867      11349.138      1414.3036      359.76162      19694.382     -12931.107     -864.48545      145295.99      52.571602      52.571602      52.571602      1.0546139      2091.4003      594.39114      722.47889    
      4000   4000           766.31921     -742.48161      64804.042      66378.262      24896.062      41482.2        10725.665      11025.315      11256.514      1389.6972      287.64603      19715.655     -12918.292     -863.98728      145379.77      52.581704      52.581704      52.581704      1.0540062     -624.38655      41.690591     -1644.7489    
      5000   5000           767.83415      77.435901      66429.71       66263.144      24945.28       41317.864      10595.72       11132.482      11096.968      1323.0473      361.5163       19728.476     -12920.345     -851.61524      147491.81      52.835112      52.835112      52.835112      1.0389131      1776.0075     -788.13253     -755.56724    
      6000   6000           762.41721     -468.28955      65262.185      66265.835      24769.295      41496.54       10598.11       11054.067      11243.309      1368.9491      435.05369      19714.785     -12917.733     -854.71086      146957.62      52.771248      52.771248      52.771248      1.0426896      184.8693      -2015.361       425.62307    
      7000   7000           769.47778     -90.016165      66350.994      66541.811      24998.678      41543.133      10528.293      10878.683      11608.565      1382.2839      359.77786      19714.036     -12928.506     -864.15353      145351.8       52.578332      52.578332      52.578332      1.054209       267.5797      -1987.9688      1450.3406    
      8000   8000           768.21382     -888.10258      64752.231      66648.582      24957.615      41690.967      10666.837      11005.39       11534.451      1361.6406      368.75325      19683.778     -12929.882     -857.89015      146413         52.705978      52.705978      52.705978      1.0465681     -2262.798      -401.68084      0.17110874   
      9000   9000           759.98668      162.5759       66653.459      66304.335      24690.332      41614.003      10669.908      10980.115      11395.961      1357.7172      410.77268      19718.035     -12918.506     -853.02889      147247.38      52.805909      52.805909      52.805909      1.0406377     -987.66311      2005.4513     -530.06044    
     10000   10000          763.18102      722.89982      67374.051      65851.928      24794.11       41057.818      10324.331      11005.507      11375.848      1310.0918      246.75507      19712.112     -12916.826     -869.99259      144376.25      52.460439      52.460439      52.460439      1.0613323      1434.2803      450.369        284.05016    
     11000   11000          763.65051      987.79521      68404.995      66296.107      24809.362      41486.745      10721.454      10992.103      11284.068      1370.3639      325.61231      19717.763     -12924.619     -858.02651      146389.73      52.703186      52.703186      52.703186      1.0467345      2162.9087      1414.5751     -614.09818    
     12000   12000          763.25902      118.66218      66519.921      66265.642      24796.644      41468.998      10460.478      11012.619      11468.75       1384.3061      332.89748      19729.971     -12920.022     -854.84663      146934.27      52.768454      52.768454      52.768454      1.0428552      485.69697      246.82494     -376.53535    
     13000   13000          773.39972      490.26275      67364.114      66315.366      25126.093      41189.273      10534.288      10964.636      11291.882      1343.7852      285.69075      19699.608     -12930.617     -856.33809      146678.36      52.737801      52.737801      52.737801      1.0446747      643.47143     -204.73264      1032.0495    
     14000   14000          754.73118     -677.33179      64138.482      65574.365      24519.592      41054.772      10415.327      10956.538      11361.058      1325.647       199.43904      19723.431     -12926.668     -864.11119      145358.92      52.579191      52.579191      52.579191      1.0541574     -1001.3111     -202.16383     -828.52044    
     15000   15000          762.85304     -1002.9733      64055.961      66187.948      24783.454      41404.494      10736.954      10936.047      11390.889      1385.6777      132.91098      19741.798     -12919.782     -861.77123      145753.61      52.626737      52.626737      52.626737      1.0513028     -1424.3448     -1880.7907      296.2156     
     16000   16000          765.14331     -439.30822      65146.168      66083.478      24857.86       41225.618      10386.319      10953.779      11338.587      1362.2388      411.26621      19700.027     -12926.599     -858.56568      146297.8       52.692151      52.692151      52.692151      1.0473922     -1953.75       -204.01242      839.83779    
     17000   17000          766.50316      147.69431      66689.323      66374.387      24902.039      41472.348      10729.562      11003.04       11292.683      1338.7458      322.79825      19706.229     -12920.71      -859.06881      146212.12      52.681863      52.681863      52.681863      1.048006      -589.39773      1120.7772     -88.296557    
     18000   18000          759.94632      1596.9981      69356.937      65955.403      24689.021      41266.382      10676.076      10899.417      11139.993      1361.0371      409.57763      19700.378     -12920.096     -860.03639      146047.62      52.662099      52.662099      52.662099      1.0491864      493.69254      2359.3923      1937.9095    
     19000   19000          764.32815     -433.23448      65463.898      66400.018      24831.377      41568.64       10780.653      10855.351      11331.236      1389.0734      427.05966      19705.945     -12920.678     -847.77205      148160.43      52.91483       52.91483       52.91483       1.0342247      283.28031     -1421.3658     -161.61797    
     20000   20000          755.85419     -648.86489      64899.261      66279.894      24556.077      41723.818      10746.414      10973.25       11576.361      1366.6949      296.0559       19689.548     -12924.507     -860.92095      145897.56      52.644057      52.644057      52.644057      1.0502655     -1413.343      -1868.5811      1335.3294    
     21000   21000          754.17613      298.45715      66706.254      66063.973      24501.56       41562.413      10520.275      11067.339      11387.084      1345.8436      471.52166      19701.113     -12930.764     -851.22451      147559.51      52.843195      52.843195      52.843195      1.0384365      1759.1282      87.83102      -951.58771    
     22000   22000          770.27493     -219.19735      65914.601      66381.253      25024.575      41356.678      10539.652      10994.753      11358.074      1339.4471      317.92988      19729.951     -12923.129     -860.45719      145976.2       52.653513      52.653513      52.653513      1.0496997     -259.20223     -773.57415      375.18432    
     23000   23000          748.29849     -1323.251       63417.661      66282.849      24310.608      41972.241      10622.968      11194.364      11608.284      1429.3708      332.79611      19702.006     -12917.548     -846.01171      148468.71      52.951506      52.951506      52.951506      1.0320772     -1478.4923     -1337.2356     -1154.0252    
     24000   24000          771.20284     -581.57971      64839.281      66094.744      25054.721      41040.023      10273.084      10689.196      11609.919      1389.1333      306.404        19701.491     -12929.205     -848.57959      148019.43      52.89804       52.89804       52.89804       1.0352099     -684.45418     -1476.2888      416.00388    
     25000   25000          757.55423     -1214.3463      63404.546      66017.095      24611.307      41405.788      10465.67       11065.85       11468.719      1366.9294      284.70972      19678.728     -12924.817     -851.46201      147518.35      52.838281      52.838281      52.838281      1.0387262     -2168.9952     -60.855373     -1413.1884    
     26000   26000          759.28624     -783.62501      64246.756      65930.915      24667.576      41263.339      10364.099      10952.865      11413.83       1335.6442      427.36559      19695.745     -12926.21      -852.33909      147366.55      52.820151      52.820151      52.820151      1.0397962     -160.61455      160.73716     -2350.9976    
     27000   27000          750.59425      198.72523      66003.335      65581.2        24385.193      41196.007      10426.331      10903.978      11446.767      1385.7054      254.1587       19704.002     -12924.935     -862.36121      145653.9       52.614733      52.614733      52.614733      1.0520225      1909.5562     -213.93922     -1099.4413    
     28000   28000          757.26254      385.80104      66669.615      65840.96       24601.831      41239.129      10401.431      10819.407      11288.028      1379.6881      553.93236      19709.092     -12912.451     -852.85847      147276.8       52.809427      52.809427      52.809427      1.0404298     -54.215772      1021.6287      189.99022    
     29000   29000          760.15784     -1015.3961      64028.966      66235.561      24695.893      41539.668      10683.287      10839.069      11443.092      1335.037       433.51546      19724.456     -12918.788     -842.94657      149008.58      53.015609      53.015609      53.015609      1.028338      -340.0771      -586.21624     -2119.895     
     30000   30000          761.47742     -521.34237      65249.35       66366.685      24738.763      41627.922      10698.071      10899.769      11476.314      1353.2043      424.58365      19695.809     -12919.829     -854.72539      146955.12      52.770949      52.770949      52.770949      1.0427073     -57.81658       777.30055     -2283.5111    
     31000   31000          765.12978     -331.76513      65256.66       65971.944      24857.42       41114.523      10568.133      10881.18       11285.626      1310.6469      268.07002      19721.873     -12921.005     -849.6492       147833.09      52.875833      52.875833      52.875833      1.0365147      168.42926     -674.85974     -488.86489    
     32000   32000          750.58253     -1223.6834      63118.466      65718.641      24384.812      41333.829      10385.692      11137.134      11408.073      1323.4622      310.7087       19690.755     -12921.996     -862.09227      145699.33      52.620203      52.620203      52.620203      1.0516944     -2518.5945     -1105.6576     -46.79799     
     33000   33000          763.68534     -337.88062      65141.583      65865.105      24810.494      41054.612      10597.176      10978.791      11119.295      1326.6947      238.16412      19715.794     -12921.304     -855.45805      146829.26      52.755879      52.755879      52.755879      1.0436011     -420.50177     -2306.3537      1713.2136    
     34000   34000          754.33548     -1018.1841      63563.705      65751.104      24506.737      41244.368      10423.392      10969.99       11362.465      1378.6761      321.72003      19711.713     -12923.588     -852.67864      147307.87      52.813139      52.813139      52.813139      1.0402104      1246.4254     -4301.6903      0.71257139   
     35000   35000          749.76409     -18.950943      65021.025      65061.748      24358.222      40703.526      10330.523      10683.237      11250.674      1311.376       331.87115      19715.483     -12919.639     -852.45657      147346.24      52.817724      52.817724      52.817724      1.0399395      262.78286     -294.48362     -25.15207     
     36000   36000          748.38849     -1424.0689      62917.549      65975.474      24313.532      41661.942      10781.219      10688.511      11727.512      1360.2774      303.79724      19716.966     -12916.34      -853.08296      147238.05      52.804794      52.804794      52.804794      1.0407037     -2142.422      -1218.8338     -910.95091    
     37000   37000          747.73966      121.28704      65722.843      65460.844      24292.453      41168.391      10595.177      10802.557      11210.879      1324.9535      473.52398      19688.292     -12926.991     -848.01213      148118.48      52.909836      52.909836      52.909836      1.0345176      1017.3335     -1254.0152      600.54286    
     38000   38000          759.89701      993.91566      68091.612      65948.768      24687.419      41261.348      10564.582      10839.466      11295.833      1367.5212      454.83571      19669.649     -12930.538     -849.662        147830.87      52.875567      52.875567      52.875567      1.0365303      977.25807      1025.7635      978.72538    
     39000   39000          756.96226     -767.154        64000.346      65674.116      24592.075      41082.041      10326.513      10928.62       11236.857      1337.3375      483.14572      19693.959     -12924.392     -839.60298      149601.98      53.085892      53.085892      53.085892      1.024259      -1688.9009     -934.91399      322.35293    
     40000   40000          748.91167     -568.69343      64540.473      65760.476      24330.529      41429.947      10604.32       10720.512      11522.224      1398.4006      428.88234      19683.639     -12928.032     -853.89551      147097.94      52.788039      52.788039      52.788039      1.0416949     -925.85903     -458.09254     -322.12873    
     41000   41000          754.03114      1115.4944      67555.839      65163.9        24496.849      40667.05       10112.493      10842.207      11233.483      1329.9814      364.2377       19709.244     -12924.595     -854.28831      147030.3       52.779947      52.779947      52.779947      1.0421741      2816.1794      223.48403      306.81967    
     42000   42000          756.12441      1561.5194      69125.264      65733.24       24564.856      41168.385      10514.243      10907.795      11044.53       1350.9781      544.48924      19728.54      -12922.191     -843.28756      148948.33      53.008463      53.008463      53.008463      1.0287539      1141.9465      2024.4755      1518.1361    
     43000   43000          741.03098      839.66083      66740.763      64952.187      24074.502      40877.685      10335.639      10621.791      11406.23       1365.3109      373.44625      19702.452     -12927.183     -859.97087      146058.75      52.663436      52.663436      52.663436      1.0491065      169.92744      1402.9554      946.09969    
     44000   44000          747.3219       430.52901      66392.209      65458.024      24278.881      41179.143      10626.898      10842.74       11166.599      1317.2736      451.02102      19698.515     -12923.902     -844.22193      148783.47      52.988899      52.988899      52.988899      1.0298938     -1037.4878      1002.7473      1326.3276    
     45000   45000          756.11767      1174.6915      68173.186      65656.557      24564.637      41091.92       10425.313      10840.577      11235.28       1375.5882      429.95742      19705.529     -12920.324     -855.0505       146899.24      52.76426       52.76426       52.76426       1.0431039      1757.0109      649.09606      1117.9675    
     46000   46000          744.11193     -299.2044       64522.169      65160.732      24174.596      40986.136      10496.293      10692.491      11386.011      1354.3264      284.11546      19697.398     -12924.499     -858.32357      146339.07      52.697105      52.697105      52.697105      1.0470969     -109.03226     -478.13446     -310.44648    
     47000   47000          748.54173     -72.329231      65850.53       66008.092      24318.51       41689.582      10701.579      10948.642      11394.157      1358.6815      498.37767      19709.983     -12921.839     -840.91054      149369.36      53.058362      53.058362      53.058362      1.0258541      74.329591      236.45599     -527.77327    
     48000   48000          743.29727     -796.7452       63373.954      65091.504      24148.129      40943.375      10291.899      10852.447      11363.275      1271.1592      380.60455      19698.815     -12914.824     -849.76169      147813.52      52.8735        52.8735        52.8735        1.0366519     -1659.14        47.761459     -778.85702    
     49000   49000          758.19133     -1152.1101      63145.742      65600.147      24632.005      40968.141      10283.12       10891.911      11404.786      1389.158       249.22182      19675.721     -12925.777     -859.8745       146075.12      52.665404      52.665404      52.665404      1.0489889     -1202.5608     -2247.6195     -6.1499201    
     50000   50000          750.52087      200.95094      65825.045      65395.708      24382.809      41012.899      10510.249      10658.797      11411.342      1322.1513      316.80468      19712.395     -12918.839     -857.39042      146498.34      52.716216      52.716216      52.716216      1.0459585     -769.36658      1525.6857     -153.46631    
     51000   51000          743.0201       110.03306      65367.673      65131.47       24139.125      40992.346      10386.693      10950.738      11222.397      1314.816       325.60583      19710.78      -12918.685     -853.34619      147192.63      52.799364      52.799364      52.799364      1.0410248      3.4147198     -308.89009      635.57455    
     52000   52000          742.33194     -184.45237      64203.715      64596.825      24116.768      40480.058      10152.986      10870.331      11166.302      1309.6119      195.87582      19698.426     -12913.475     -859.52081      146135.23      52.672626      52.672626      52.672626      1.0485574      120.18624     -581.5003      -92.043045    
     53000   53000          753.96527      48.718645      65117.392      65012.939      24494.71       40518.23       10256.601      10842.74       11092.674      1344.1646      234.03549      19677.09      -12929.075     -854.40165      147010.8       52.777613      52.777613      52.777613      1.0423124      1223.6249     -1535.7405      458.27153    
     54000   54000          754.89091      984.05664      67618.654      65510.085      24524.782      40985.303      10527.97       10690.104      11281.214      1335.847       366.66359      19703.287     -12919.783     -854.90795      146923.74      52.767193      52.767193      52.767193      1.04293        545.07654      656.11474      1750.9786    
     55000   55000          748.78258      343.43522      65599.344      64866.234      24326.335      40539.898      10265.532      10658.004      11160.497      1327.8063      334.99686      19711.897     -12918.835     -858.14852      146368.92      52.700688      52.700688      52.700688      1.0468833     -1097.0442      481.70257      1645.6473    
     56000   56000          750.69244     -636.55005      63436.632      64785.373      24388.382      40396.991      9968.1595      10786.848      11316.23       1308.7872      216.914        19721.085     -12921.032     -864.55209      145284.79      52.570251      52.570251      52.570251      1.0546952      848.15118     -2090.7623     -667.03905    
     57000   57000          746.67821     -1095.771       62551.825      64888.081      24257.969      40630.112      10295.683      10796.498      11176.842      1334.0105      269.31843      19680.751     -12922.99      -859.18478      146192.38      52.679492      52.679492      52.679492      1.0481475     -875.11078     -687.23273     -1724.9694    
     58000   58000          752.95715      1081.1112      67480.611      65195.825      24461.958      40733.867      10496.136      10873.394      11069.961      1309.9327      199.37115      19705.69      -12920.619     -866.786        144910.36      52.52505       52.52505       52.52505       1.0574205      2151.9816      1219.2807     -127.92868    
     59000   59000          741.37938      5.7495918      64525.846      64513.576      24085.821      40427.755      10217.024      10942.57       10911.48       1299.6894      292.14526      19685.857     -12921.011     -858.3959       146326.74      52.695625      52.695625      52.695625      1.0471851     -838.95758      125.41037      730.79599    
     60000   60000          737.59484      766.71921      66533.034      64879.875      23962.87       40917.006      10383.631      10868.01       11097.934      1344.2851      426.30482      19717.292     -12920.452     -849.589        147843.57      52.877082      52.877082      52.877082      1.0364413      1516.0878      730.54768      53.522109    
     61000   61000          739.8979      -500.99136      63602.644      64680.066      24037.691      40642.375      10176.598      10677.581      11242.101      1353.2922      408.52539      19707.292     -12923.015     -851.7879       147461.91      52.831542      52.831542      52.831542      1.0391238     -658.58479     -918.60703      74.217753    
     62000   62000          742.6542      -500.47774      63700.2        64770.187      24127.237      40642.95       10376.365      10713.048      11202.58       1314.6906      271.02939      19694.523     -12929.287     -856.82735      146594.61      52.727761      52.727761      52.727761      1.0452716     -112.25773     -2210.199       821.02354    
     63000   63000          743.77331     -655.63774      63446.612      64845.283      24163.595      40681.688      10249.894      10807.391      11218.764      1341.868       282.39782      19701.962     -12920.589     -858.68879      146276.83      52.689633      52.689633      52.689633      1.0475424     -341.60587     -963.45842     -661.84892    
     64000   64000          731.47741     -1564.0789      61167.245      64538.333      23764.127      40774.206      10199.305      10795.106      11358.415      1319.677       312.60306      19714.142     -12925.042     -849.91547      147786.78      52.870311      52.870311      52.870311      1.0368396     -1244.827      -1461.9869     -1985.4227    
     65000   65000          732.88833     -440.20928      63895.946      64841.27       23809.965      41031.304      10465.062      10928.75       11197.005      1310.2132      331.17441      19716.273     -12917.172     -853.03283      147246.7       52.805828      52.805828      52.805828      1.0406425     -414.54565      547.36777     -1453.45      
     66000   66000          740.09054     -635.88651      63422.338      64782.642      24043.95       40738.692      10184.651      10953.651      11146.427      1319.8196      347.5537       19708.045     -12921.456     -856.30968      146683.23      52.738385      52.738385      52.738385      1.04464       -1483.0156     -204.80147     -219.8424     
     67000   67000          737.54708      93.325201      64654.37       64455.566      23961.318      40494.248      10203.906      10713.439      11258.573      1323.9753      237.00434      19686.371     -12929.021     -859.9252       146066.51      52.664369      52.664369      52.664369      1.0490507      490.71062     -584.25779      373.52277    
     68000   68000          731.12626     -420.38533      63699.471      64585.737      23752.719      40833.018      10276.075      10732.214      11421.805      1356.304       291.27925      19683.013     -12927.672     -868.90132      144557.58      52.482392      52.482392      52.482392      1.060001      -747.78915     -997.1935       483.82667    
     69000   69000          737.69604      891.08988      66403.05       64513.457      23966.157      40547.299      10268.647      10874.908      11005.188      1367.0359      291.56016      19668.293     -12928.332     -863.85393      145402.21      52.58441       52.58441       52.58441       1.0538435     -241.82718      373.51555      2541.5813    
     70000   70000          716.80302     -1117.4427      61386.771      63760.906      23287.388      40473.518      10397.382      10769.008      11005.949      1327.605       216.60779      19689.996     -12933.031     -862.19819      145681.44      52.618049      52.618049      52.618049      1.0518236     -2029.6434     -480.04216     -842.64243    
     71000   71000          737.01923     -655.71974      63106.578      64493.491      23944.169      40549.322      10261.492      10878.461      11008.052      1337.4958      264.67524      19721.41      -12922.264     -866.07629      145029.11      52.539394      52.539394      52.539394      1.0565547     -753.79061     -135.6355      -1077.7331    
     72000   72000          735.6252       98.037691      64440.334      64232.977      23898.88       40334.097      10202.048      10702.673      11029.997      1287.2969      353.588        19686.783     -12928.289     -866.08769      145027.2       52.539163      52.539163      52.539163      1.0565686      147.58003      537.65095     -391.1179     
     73000   73000          744.52964      142.6179       64656.996      64354.804      24188.166      40166.638      10213.705      10737.825      10919.611      1285.7123      206.89818      19723.903     -12921.016     -864.52799      145288.84      52.57074       52.57074       52.57074       1.0546658      636.43654      2301.2518     -2509.8346    
     74000   74000          737.57781     -1220.6044      62169.425      64759.643      23962.316      40797.327      10356.419      10963.111      11245.987      1328.1336      109.82294      19718.567     -12924.714     -863.22837      145507.58      52.597109      52.597109      52.597109      1.0530804     -328.68103     -1828.7778     -1504.3543    
     75000   75000          732.51011      47.036052      64107.08       64007.204      23797.678      40209.526      10247.674      10469.88       10998.518      1351.7078      375.99612      19691.662     -12925.912     -862.69516      145597.51      52.607943      52.607943      52.607943      1.0524299      787.97137      351.01336     -997.87657    
     76000   76000          743.62671     -717.46633      62993.018      64511.752      24158.832      40352.92       10161.338      10709.829      11222.69       1311.5197      156.44508      19713.021     -12921.923     -865.38037      145145.73      52.553474      52.553474      52.553474      1.0557057     -144.64268     -2246.1687      238.41237    
     77000   77000          730.71995      1021.8196      66252.368      64097.625      23739.519      40358.105      10344.879      10719.668      10865.497      1332.5217      297.69121      19722.612     -12924.764     -868.6921       144592.39      52.486605      52.486605      52.486605      1.0597458      1942.7609      1483.2971     -360.59922    
     78000   78000          730.54391     -597.06342      62477.542      63748.501      23733.8        40014.701      10022.561      10604.477      11119.375      1305.6052      198.00854      19700.383     -12935.71      -860.55032      145960.4       52.651613      52.651613      52.651613      1.0498133     -951.23787     -851.31792      11.365519    
     79000   79000          732.39927      764.45288      65831.845      64204.302      23794.077      40410.225      10247.569      10978.746      10797.962      1345.3241      263.05963      19698.771     -12921.206     -860.40999      145984.21      52.654476      52.654476      52.654476      1.0496422      544.36979      283.38376      1465.6051    
     80000   80000          734.68871      1465.5428      66933.077      63860.996      23868.456      39992.54       10111.471      10699.506      10854.404      1304.8815      241.27555      19708.18      -12927.177     -873.88248      143733.59      52.382485      52.382485      52.382485      1.0660777      2337.0026      532.24285      1527.3828    
     81000   81000          743.01848      181.97208      64563.337      64179.751      24139.072      40040.679      10237.286      10601.726      11025.837      1227.4026      178.45005      19703.289     -12933.313     -869.02051      144537.75      52.479992      52.479992      52.479992      1.0601464      497.12098     -733.60854      782.40379    
     82000   82000          731.76075      92.850118      64315.04       64119.023      23773.333      40345.691      10168.067      10874.652      10958.844      1358.7535      259.41112      19661.786     -12935.823     -867.71553      144755.13      52.506288      52.506288      52.506288      1.0585544      583.57885     -105.3046      -199.7239     
     83000   83000          736.78234      1799.4837      67701.641      63897.094      23936.473      39960.621      10237.795      10671.708      10750.432      1275.5927      250.08294      19701.594     -12926.583     -866.42742      144970.33      52.532295      52.532295      52.532295      1.056983       3773.7503      780.44149      844.25916    
     84000   84000          738.85988     -940.04493      61971.811      63957.094      24003.968      39953.126      10073.122      10696.851      11051.632      1292.8879      32.293876      19723.727     -12917.388     -867.38802      144809.78      52.512896      52.512896      52.512896      1.0581549     -581.28611     -1354.5392     -884.3095     
     85000   85000          734.2993      -746.50702      62152.01       63722.102      23855.805      39866.298      10189.46       10687.289      10804.774      1277.5748      141.54443      19696.197     -12930.542     -870.9556       144216.62      52.441097      52.441097      52.441097      1.0625071     -166.21547     -321.0497      -1752.2559    
     86000   86000          731.42937     -219.81271      63149.785      63610.443      23762.567      39847.877      10085.907      10726.648      10870.085      1286.8684      131.84891      19680.352     -12933.833     -874.09951      143697.91      52.378149      52.378149      52.378149      1.0663424     -1211.4929      1044.1096     -492.05487    
     87000   87000          726.07606     -1763.0637      60039.554      63789.026      23588.649      40200.377      10244.994      10593.044      11100.565      1290.1923      185.57611      19712.705     -12926.7       -861.36075      145823.07      52.635095      52.635095      52.635095      1.050802      -2196.9371     -1740.3626     -1351.8915    
     88000   88000          724.87773     -747.12685      61914.119      63495.165      23549.718      39945.447      10090.161      10581.496      10984.199      1298.2535      222.50759      19693.586     -12924.755     -865.6396       145102.27      52.548227      52.548227      52.548227      1.0560219     -999.19796     -1046.2279     -195.95468    
     89000   89000          717.67492      444.98846      64598.023      63652.374      23315.714      40336.66       10204.555      10662.836      11051.067      1295.6206      337.29302      19709.951     -12924.663     -861.99724      145715.4       52.622137      52.622137      52.622137      1.0515785      1629.7982     -784.78722      489.95442    
     90000   90000          726.28778     -584.56152      62514.563      63749.214      23595.528      40153.687      10161.388      10571.115      11081.374      1286.8989      263.25959      19718.363     -12928.712     -867.30781      144823.17      52.514514      52.514514      52.514514      1.058057       482.36665     -2223.8882     -12.163041    
     91000   91000          732.51665      243.90637      63976.248      63457.116      23797.89       39659.226      9872.2401      10573.264      10940.222      1267.3676      231.52006      19706.353     -12931.741     -860.66162      145941.53      52.649344      52.649344      52.649344      1.0499491      1397.4218     -346.21097     -319.49177    
     92000   92000          723.03395     -421.94185      62813.797      63706.406      23489.818      40216.588      9980.9417      10754.68       11160.146      1299.8105      254.55383      19695.139     -12928.683     -865.92177      145054.99      52.542519      52.542519      52.542519      1.0563662     -886.22027     -134.82121     -244.78407    
     93000   93000          724.14191     -573.15911      62035.023      63255.374      23525.813      39729.561      9904.5167      10550.72       10877.641      1305.7001      298.72755      19723.085     -12930.829     -860.35496      145993.55      52.655598      52.655598      52.655598      1.049575      -654.61361     -432.11347     -632.75024    
     94000   94000          728.28119      1332.4748      66434.949      63586.706      23660.289      39926.417      10111.618      10549.823      10886.347      1288.4366      315.7569       19701.62      -12927.184     -856.97686      146569.03      52.724695      52.724695      52.724695      1.045454       512.09052      1168.5624      2316.7714    
     95000   95000          725.84027     -1322.4946      60607.825      63411.469      23580.989      39830.48       10042.009      10529.308      11152.019      1301.9044      17.587178      19710.648     -12922.995     -864.08862      145362.72      52.579649      52.579649      52.579649      1.0541298      28.782089     -1364.2117     -2632.0542    
     96000   96000          722.85655     -1782.6381      59654.055      63479.978      23484.054      39995.924      10227.695      10609.867      10748.604      1297.5401      348.17972      19690.088     -12926.05      -853.52082      147162.52      52.795763      52.795763      52.795763      1.0412378      181.71802     -3187.4442     -2342.1881    
     97000   97000          718.34719     -327.96205      62546.923      63245.541      23337.555      39907.987      9913.1635      10407.442      11145.998      1328.3121      356.00642      19684.173     -12927.108     -859.94502      146063.14      52.663964      52.663964      52.663964      1.0490749     -144.59424     -588.07917     -251.21273    
     98000   98000          721.33716      811.89708      65343.895      63603.861      23434.693      40169.169      10147.515      10674.528      10885.6        1328.6054      372.84709      19690.82      -12930.746     -854.73304      146953.8       52.770792      52.770792      52.770792      1.0427167      1011.8659      1223.8819      199.94347    
     99000   99000          721.95223      625.42768      64696.958      63372.412      23454.675      39917.737      10231.143      10484.34       10797.495      1315.2949      315.24235      19695.247     -12921.025     -864.96275      145215.81      52.56193       52.56193       52.56193       1.0551962      2147.531      -512.43847      241.19049    
    100000   100000         722.06541      262.24015      64115.457      63560.64       23458.352      40102.288      10223.552      10648.614      10956.872      1305.0244      159.09465      19728.882     -12919.751     -865.83751      145069.1       52.544223      52.544223      52.544223      1.0562634     -477.01427      812.12943      451.60529    
    101000   101000         727.26064     -1489.1805      60593.367      63787.179      23627.134      40160.046      10008.033      10737.534      10989.945      1298.7967      368.20424      19691.174     -12933.64      -854.13232      147057.16      52.78316       52.78316       52.78316       1.0419838     -742.18879     -761.09388     -2964.259     
    102000   102000         723.81608      1190.1348      65889.191      63387.967      23515.227      39872.74       9958.1123      10696.778      10901.497      1335.6998      211.57637      19696.081     -12927.004     -871.62727      144105.49      52.427623      52.427623      52.427623      1.0633265     -373.95386      2504.8537      1439.5045    
    103000   103000         720.39702      383.9424       63991.579      63180.824      23404.15       39776.674      10040.014      10527.068      10854.013      1283.4925      303.66208      19708.536     -12940.111     -867.48799      144793.09      52.510878      52.510878      52.510878      1.0582768      220.04074      615.30583      316.48062    
    104000   104000         718.65372     -2378.9382      58091.802      63129.841      23347.513      39782.327      9971.8166      10642.627      10962.582      1264.1499      207.5259       19667.203     -12933.578     -864.98554      145211.99      52.561469      52.561469      52.561469      1.055224      -1359.2766     -3429.5961     -2347.9418    
    105000   105000         720.99036     -281.6164       62727.546      63324.407      23423.426      39900.981      10160.854      10539.414      10995.258      1255.4409      215.91508      19669.558     -12935.46      -864.31454      145324.72      52.575067      52.575067      52.575067      1.0544054     -381.92678     -1368.6671      905.74471    
    106000   106000         718.23931     -692.2753       61557.565      63030.248      23334.05       39696.198      9934           10573.133      11003.515      1305.4606      133.2819       19688.22      -12941.413     -861.10649      145866.13      52.640275      52.640275      52.640275      1.0504918      151.29835     -76.193971     -2151.9303    
    107000   107000         719.72505      1265.0627      65982.141      63314.773      23382.319      39932.454      10072.431      10766.165      10823.686      1291.1698      226.4946       19680.452     -12927.944     -868.79301      144575.6       52.484573      52.484573      52.484573      1.0598689      1685.5513      1463.0144      646.62234    
    108000   108000         722.78448     -719.65873      61611.657      63138.312      23481.713      39656.599      9863.4221      10500.846      10992.587      1246.6942      311.86975      19681.225     -12940.046     -863.52129      145458.22      52.591161      52.591161      52.591161      1.0534377     -1512.8035      503.84931     -1150.022     
    109000   109000         714.52287      1648.8834      66444.105      62957.861      23213.311      39744.55       9943.1653      10545.121      10894.837      1277.2779      299.19541      19713.623     -12928.669     -866.40186      144974.61      52.532812      52.532812      52.532812      1.0569518      1339.8516      1522.695       2084.1038    
    110000   110000         723.04853     -216.10814      62705.099      63159.165      23490.291      39668.873      9976.8127      10355.928      11194.566      1294.6243      110.29647      19670.228     -12933.583     -871.84496      144069.5       52.423259      52.423259      52.423259      1.063592      -1719.6929      1374.2509     -302.88246    
    111000   111000         718.99089      736.35747      64523.849      62968.548      23358.467      39610.081      10016.647      10773.203      10672.559      1245.1954      153.3536       19683.099     -12933.977     -867.28395      144827.16      52.514996      52.514996      52.514996      1.0580279      793.51455     -472.99865      1888.5565    
    112000   112000         717.83711      664.63223      64721.429      63319.672      23320.984      39998.688      10172.338      10586.102      10881.623      1302.3033      275.73445      19708.534     -12927.946     -868.55199      144615.72      52.489427      52.489427      52.489427      1.0595748      1052.0772      2079.3923     -1137.5728    
    113000   113000         713.06084      421.4763       63541.102      62661.551      23165.813      39495.738      10059.655      10657.26       10733.608      1282.7046      19.98934       19678.984     -12936.463     -877.80796      143090.83      52.304285      52.304285      52.304285      1.0708665      610.01323     -600.19988      1254.6155    
    114000   114000         719.86519     -968.2812       61083.611      63109.781      23386.871      39722.91       9914.8793      10749.272      11003.528      1236.6154      51.741805      19702.772     -12935.899     -875.41254      143482.38      52.351949      52.351949      52.351949      1.0679443     -2316.6539     -876.64728      288.45762    
    115000   115000         718.71984     -438.02825      62013.934      62944.378      23349.661      39594.716      10070.562      10538.964      10686.394      1265.1049      269.95993      19697.922     -12934.19      -862.38051      145650.64      52.61434       52.61434       52.61434       1.0520461     -1067.4604     -459.25941      212.6351     
    116000   116000         719.25354     -608.15462      61631.805      62912.037      23367          39545.037      9978.5976      10487.856      10973.952      1313.0324      59.542471      19666.095     -12934.039     -870.18692      144344.01      52.456534      52.456534      52.456534      1.0615693     -336.97752     -983.16732     -504.31903    
    117000   117000         712.55369     -457.73665      62053.377      63019.171      23149.336      39869.835      10218.884      10487.48       10878.445      1354.7094      168.149        19690.9       -12928.732     -868.19652      144674.93      52.49659       52.49659       52.49659       1.0591412     -210.69908     -781.57613     -380.93473    
    118000   118000         708.80598      144.73502      62814.997      62511.22       23027.582      39483.638      9919.8441      10765.238      10670.775      1265.4047      96.376189      19696.327     -12930.326     -872.78174      143914.87      52.404497      52.404497      52.404497      1.0647349      576.16584     -482.09565      340.13487    
    119000   119000         716.0686       2052.7597      67242.191      62953.689      23263.528      39690.16       10176.648      10589.484      10721.505      1273.9982      140.67863      19715.224     -12927.379     -876.83869      143249.01      52.32355       52.32355       52.32355       1.0696841      3689.1503      771.83393      1697.295     
    120000   120000         702.39605      514.17921      63320.227      62251.139      22819.336      39431.803      10046.338      10408.868      10966.072      1291.9086     -28.288574      19678.513     -12931.608     -881.0257       142568.23      52.240531      52.240531      52.240531      1.0747919     -943.39716      675.201        1810.7338    
    121000   121000         720.71864     -161.81583      62477.15       62818.189      23414.598      39403.591      9872.3903      10641.939      10768.691      1280.8373      121.98777      19650.698     -12932.952     -869.16925      144513.02      52.476999      52.476999      52.476999      1.0603279     -2246.2662      457.57938      1303.2393    
    122000   122000         708.16046     -1160.383       59461.194      61888.86       23006.61       38882.25       9724.7278      10496.718      10734.995      1207.592      -36.334976      19692.19      -12937.638     -875.58787      143453.64      52.348454      52.348454      52.348454      1.0681581     -2885.1414      275.28812     -871.29577    
    123000   123000         714.46086      899.38371      64563.039      62679.794      23211.296      39468.498      9788.3782      10581.676      10879.334      1287.2856      194.90393      19664.529     -12927.61      -874.83361      143577.33      52.363494      52.363494      52.363494      1.067238      -176.79631      1368.438       1506.5094    
    124000   124000         716.28241      1205.6564      65159.716      62634.064      23270.475      39363.589      9942.0646      10554.569      10715.072      1262.5398      136.84813      19680.297     -12927.802     -874.45464      143639.55      52.371058      52.371058      52.371058      1.0667757      719.69616      2010.2274      887.04572    
    125000   125000         708.61791     -813.18942      60456.538      62158.518      23021.471      39137.047      9879.4245      10391.798      10961.936      1254.9918     -105.00281      19687.911     -12934.012     -875.23443      143511.57      52.3555        52.3555        52.3555        1.067727      -1517.1786     -1898.4873      976.09767    
    126000   126000         706.12299     -751.25836      61198.693      62776.177      22940.417      39835.76       10216.565      10734.38       10781.268      1311.4404      78.292359      19658.728     -12944.913     -872.39172      143979.21      52.412305      52.412305      52.412305      1.0642591     -2114.2871     -354.5281       215.04015    
    127000   127000         713.64285      235.73245      62902.629      62404.795      23184.721      39220.074      9928.3516      10399.156      10801.537      1259.6156      76.867259      19685.788     -12931.241     -867.40645      144806.7       52.512524      52.512524      52.512524      1.0581774     -645.62473      41.766609      1311.0555    
    128000   128000         711.34992     -1183.8094      60018.459      62499.664      23110.229      39389.435      10034.741      10450.126      10810.125      1288.9249      67.624095      19672.601     -12934.708     -873.98972      143715.96      52.380342      52.380342      52.380342      1.0662085     -1745.3873     -2146.7802      340.73923    
    129000   129000         709.82276      937.23781      64146.197      62182.423      23060.614      39121.808      9904.7981      10535.154      10760.189      1237.593      -56.133274      19680.436     -12940.23      -874.26985      143669.91      52.374747      52.374747      52.374747      1.0665502     -13.830316      1679.4762      1146.0675    
    130000   130000         706.22954      117.03031      62832.235      62587.26       22943.878      39643.381      10048.063      10625.125      10765.209      1260.9189      217.01917      19665.466     -12938.419     -875.11133      143531.76      52.357955      52.357955      52.357955      1.0675768     -47.998608      880.79838     -481.70883    
    131000   131000         709.82665     -1396.2539      59660.304      62593.394      23060.741      39532.653      9969.1834      10650.525      10863.24       1276.0635      37.854889      19681.12      -12945.334     -872.01973      144040.63      52.419757      52.419757      52.419757      1.0638052     -1097.0199     -1426.9485     -1664.7934    
    132000   132000         702.61538      726.64684      63422.506      61913.986      22826.462      39087.524      9823.5137      10393.23       10780.427      1264.6335      89.411312      19676.144     -12939.836     -882.38764      142348.17      52.21364       52.21364       52.21364       1.0764534     -82.852186      1294.3929      968.3998     
    133000   133000         709.44938      374.11772      63435.595      62653.312      23048.484      39604.828      10074.034      10527.27       10931.1        1286.1017      9.7153889      19707.554     -12930.947     -876.05553      143377.06      52.339137      52.339137      52.339137      1.0687287      1705.4096     -39.969586     -543.08687    
    134000   134000         707.35881     -1427.8557      59216.241      62184.67       22980.566      39204.104      10082.787      10242.754      10993.869      1263.2624     -112.37772      19668.405     -12934.595     -881.14003      142549.73      52.238271      52.238271      52.238271      1.0749314      644.98649     -2520.3478     -2408.2057    
    135000   135000         703.15951      936.43832      64125.017      62169.304      22844.14       39325.165      10061.773      10437.174      10760.961      1295.4233      40.695997      19671.85      -12942.713     -877.12481      143202.28      52.31786       52.31786       52.31786       1.0700331      9.1790072      1162.7682      1637.3678    
    136000   136000         697.1232      -1389.0627      59343.024      62236.608      22648.033      39588.575      10055.458      10466.919      10971.128      1305.083       30.307458      19688.639     -12928.96      -879.37267      142836.22      52.273244      52.273244      52.273244      1.0727753     -1942.1854     -538.40277     -1686.5998    
    137000   137000         700.48116     -544.27486      60723.199      61844.336      22757.126      39087.21       9905.069       10334.671      10911.101      1261.7919     -59.696376      19672.842     -12938.569     -889.29647      141242.29      52.078074      52.078074      52.078074      1.0848817     -2127.4058     -266.53837      761.11958    
    138000   138000         717.65476      712.18481      63881.9        62401.634      23315.059      39086.575      9955.6792      10545.537      10530.665      1242.8324      77.842668      19670.264     -12936.245     -881.33376      142518.39      52.234443      52.234443      52.234443      1.0751677     -335.34179      1581.6746      890.22161    
    139000   139000         710.87874      61.715092      62313.732      62185.279      23094.921      39090.357      10020.893      10478.326      10652.877      1240.0136     -22.013685      19658.729     -12938.468     -880.10368      142717.58      52.258767      52.258767      52.258767      1.0736671      82.714711      1662.9822     -1560.5517    
    140000   140000         699.81321     -483.36448      60327.687      61329.132      22735.426      38593.706      9928.9357      10536.813      10188.599      1212.1158      20.366408      19644.339     -12937.464     -884.16872      142061.43      52.178556      52.178556      52.178556      1.0786262     -2290.2824      1352.5786     -512.38968    
    141000   141000         706.86409     -12.450332      62188.667      62214.766      22964.494      39250.273      10081.156      10565.848      10664.542      1214.4016     -33.071445      19692.546     -12935.148     -873.87663      143734.56      52.382602      52.382602      52.382602      1.0660705      273.17982      1027.0196     -1337.5504    
    142000   142000         704.4681       761.12562      63092.856      61523.875      22886.653      38637.222      9810.782       10475.991      10463.002      1190.2328     -50.085152      19674.965     -12927.666     -888.6398       141346.66      52.090899      52.090899      52.090899      1.0840806     -44.404718      1262.7577      1065.0239    
    143000   143000         702.89021      522.68742      62666.564      61569.755      22835.391      38734.364      9580.9602      10565.995      10588.113      1240.2296     -1.6947822      19691.379     -12930.619     -872.96809      143884.15      52.400768      52.400768      52.400768      1.0649622      651.5897      -1507.1247      2423.5972    
    144000   144000         701.85366      1416.1004      64702.223      61773.715      22801.716      38971.999      10040.115      10317.935      10599.302      1229.8052      33.908335      19682.16      -12931.227     -885.79826      141800.09      52.14654       52.14654       52.14654       1.0806141      978.31863      1027.3548      2242.6278    
    145000   145000         710.42114      970.8605       64360.033      62340.74       23080.054      39260.685      10041.464      10559.515      10615.345      1262.8259      37.781109      19677.211     -12933.456     -880.73391      142615.46      52.246299      52.246299      52.246299      1.074436       71.974418      2524.3535      316.25361    
    146000   146000         696.93586      602.89422      62876.3        61620.881      22641.947      38978.934      9971.1313      10439.687      10453.17       1216.6689      123.51136      19703.623     -12928.857     -879.70963      142781.51      52.266569      52.266569      52.266569      1.0731864      689.26053      722.01191      397.41021    
    147000   147000         702.65298      1085.4705      64283          62035.774      22827.684      39208.09       9932.0408      10443.881      10774.33       1241.5326      51.38577       19699.817     -12934.897     -884.82715      141955.71      52.16561       52.16561       52.16561       1.0794294      2916.5751     -606.53005      946.36654    
    148000   148000         704.21878      46.478767      61811.251      61714.538      22878.553      38835.985      9802.139       10323.08       10647.561      1242.7586      109.3654       19652.006     -12940.925     -880.35213      142677.31      52.253851      52.253851      52.253851      1.0739702      123.97395     -906.71227      922.17462    
    149000   149000         695.95591     -598.91214      60264.507      61513.077      22610.11       38902.967      9725.8509      10552.678      10595.2        1270.9638      32.937255      19670.285     -12944.948     -878.69365      142946.6       52.286705      52.286705      52.286705      1.071947      -1474.2141      69.662171     -392.18451    
    150000   150000         697.58173     -1396.5813      58753.113      61663.117      22662.93       39000.187      9908.9045      10363.893      10765.645      1264.4466     -38.342204      19676.758     -12941.117     -879.1437       142873.42      52.277782      52.277782      52.277782      1.072496      -1509.1992     -778.65042     -1901.8942    
    151000   151000         700.82321     -449.25737      61005.642      61942.917      22768.238      39174.678      9971.19        10454.336      10579.772      1282.8992      130.6747       19694.243     -12938.436     -878.04221      143052.66      52.299633      52.299633      52.299633      1.0711523     -517.6939      -348.15369     -481.92453    
    152000   152000         699.49319      884.87785      63407.909      61569.7        22725.029      38844.671      9668.687       10596.453      10497.385      1298.3826      33.722489      19683.109     -12933.068     -881.81133      142441.21      52.225012      52.225012      52.225012      1.0757503     -490.66086      2448.8686      696.42585    
    153000   153000         703.78577      115.58213      61874.036      61632.478      22864.486      38767.993      9860.649       10441.215      10433.96       1247.2301      20.328235      19692.397     -12927.786     -876.50943      143302.82      52.330101      52.330101      52.330101      1.0692824      1427.9755     -436.07907     -645.15006    
    154000   154000         700.32724     -609.23233      60485.281      61748.865      22752.125      38996.74       9890.5863      10336.306      10776.652      1242.1265      18.711462      19671.187     -12938.829     -883.21377      142215.03      52.197355      52.197355      52.197355      1.0774612     -944.81648     -1464.9955      582.11498    
    155000   155000         700.68839     -3115.2832      54971.909      61434.878      22763.858      38671.02       9675.2365      10473.837      10733.916      1223.1578     -153.41552      19654.628     -12936.339     -882.98367      142252.09      52.201889      52.201889      52.201889      1.0771805     -2076.3998     -3257.0906     -4012.3592    
    156000   156000         696.1115      -179.53879      61021.128      61393.631      22615.165      38778.466      9848.7286      10362.97       10608.413      1243.2676     -26.965228      19680.201     -12938.148     -882.90668      142264.49      52.203406      52.203406      52.203406      1.0770866     -498.50576     -1303.119       1263.0083    
    157000   157000         694.24744     -221.42697      61256.476      61722.004      22554.606      39167.398      9788.0102      10534.534      10732.058      1241.5941      129.1284       19680.362     -12938.288     -871.30846      144158.21      52.434017      52.434017      52.434017      1.0629375     -770.40571      233.51955     -127.39476    
    158000   158000         698.61692      427.94213      62180.042      61296.17       22696.561      38599.609      9790.9026      10258.335      10652.826      1189.9115     -23.535288      19670.622     -12939.452     -886.91636      141621.33      52.124618      52.124618      52.124618      1.0819781      1194.9201      663.81652     -574.91017    
    159000   159000         685.15286     -950.32807      59324.138      61297.449      22259.142      39038.307      9804.4811      10271.023      10962.212      1264.7522     -23.096478      19696.64      -12937.706     -882.19646      142379.02      52.217411      52.217411      52.217411      1.0762202     -170.66449     -233.14934     -2447.1704    
    160000   160000         704.70076      51.23469       62067.105      61961.462      22894.212      39067.25       10014.419      10389.872      10692.591      1262.367      -45.938291      19692.472     -12938.533     -888.40212      141384.48      52.095544      52.095544      52.095544      1.0837907      514.33418      1082.8391     -1443.4692    
    161000   161000         683.55758     -202.47383      60704.765      61126.267      22207.315      38918.952      9808.2722      10369.7        10865.425      1267.6983     -134.57825      19685.084     -12942.649     -879.94556      142743.23      52.261897      52.261897      52.261897      1.0734742     -1295.0446     -7.8327279      695.45585    
    162000   162000         688.17156     -157.45552      61094.729      61424.003      22357.214      39066.789      9877.9432      10323.01       10779.426      1262.7473      113.1061       19656.515     -12945.958     -875.96605      143391.71      52.34092       52.34092       52.34092       1.0686195      755.96608     -1313.1593      84.826661    
    163000   163000         692.87827      701.8398       62621.808      61176.328      22510.124      38666.204      9581.2814      10540.989      10470.755      1245.8624      84.119685      19681.522     -12938.325     -889.43277      141220.65      52.075414      52.075414      52.075414      1.085048      -40.164002      138.85513      2006.8283    
    164000   164000         690.83508      1531.7162      64163.253      60996.137      22443.746      38552.391      9569.8517      10495.41       10532.443      1248.4553     -58.604794      19705.337     -12940.501     -885.93441      141778.3       52.143869      52.143869      52.143869      1.0807802      683.9778       2685.1951      1225.9756    
    165000   165000         710.59113      365.2549       62272.328      61514.545      23085.577      38428.968      9517.3381      10426.2        10531.665      1212.0011      38.500908      19644.521     -12941.258     -882.95445      142256.8       52.202465      52.202465      52.202465      1.0771449     -89.946991      1646.5799     -460.86823    
    166000   166000         684.57695     -99.087         60734.523      60939.446      22240.432      38699.014      9705.9952      10443.049      10597.649      1250.5667     -15.720619      19661.811     -12944.336     -885.75507      141807         52.147388      52.147388      52.147388      1.0805614     -1687.1766      370.65848      1019.2572    
    167000   167000         695.75553     -954.07178      59515.514      61507.225      22603.6        38903.625      9845.6738      10343.563      10714.922      1282.8802     -19.575187      19678.186     -12942.025     -877.4895       143142.76      52.310612      52.310612      52.310612      1.070478      -2427.7886     -1204.1065      769.67974    
    168000   168000         687.39354     -226.41263      60253.194      60715.827      22331.937      38383.89       9790.1525      10263.853      10585.731      1208.7114     -175.84632      19662.3       -12951.012     -896.50046      140107.31      51.938205      51.938205      51.938205      1.0936701      430.26777     -789.58894     -319.91671    
    169000   169000         690.0732       1031.2721      63518.868      61389.45       22418.994      38970.457      9812.44        10444.761      10558.756      1305.9156      82.128617      19700.864     -12934.408     -887.15544      141583.16      52.119935      52.119935      52.119935      1.0822698      2269.1583      1666.2344     -841.57643    
    170000   170000         689.99226     -1313.3303      58118.092      60836.519      22416.364      38420.155      9433.3412      10441.295      10563.097      1251.2285     -14.042283      19683.406     -12938.17      -885.00049      141927.91      52.162204      52.162204      52.162204      1.0796409     -1668.3597     -1623.525      -648.10604    
    171000   171000         687.59105     -779.1338       59118.656      60735.452      22338.354      38397.099      9633.8227      10354.902      10493.976      1242.3753     -63.425671      19675.311     -12939.863     -882.76242      142287.74      52.206249      52.206249      52.206249      1.0769106     -1992.2908     -686.19247      341.08186    
    172000   172000         696.61959      312.81771      62059.141      61414.066      22631.672      38782.394      9961.0157      10225.532      10694.086      1258.3533     -100.5444       19685.267     -12941.316     -888.31681      141398.06      52.097212      52.097212      52.097212      1.0836866      979.38704     -477.19518      436.26126    
    173000   173000         690.24611     -495.87723      59773.625      60802.77       22424.611      38378.158      9692.2175      10237.609      10632.385      1223.7864     -126.99453      19656.532     -12937.377     -882.64246      142307.08      52.208615      52.208615      52.208615      1.0767643     -278.20271     -772.97713     -436.45185    
    174000   174000         686.30487     -467.34876      59551.181      60510.123      22296.569      38213.555      9533.1257      10346.147      10556.188      1209.9841     -129.30894      19649.623     -12952.204     -892.76233      140693.96      52.010595      52.010595      52.010595      1.0891098     -1915.4033      138.16295      375.19405    
[...]
    955000   955000         321.38914      1425.7948      38306.457      35614.754      10441.242      25173.512      5238.4739      7502.9344      6673.8032      576.26555     -1435.9679      19582.925     -12964.922     -970.32478      129447.66      50.586123      50.586123      50.586123      1.1837308      1322.0599      1876.5458      1078.7788    
    956000   956000         316.22542      1501.0568      38254.249      35434.194      10273.484      25160.711      5340.0168      7518.668       6543.5738      576.89442     -1434.4265      19583.886     -12967.902     -975.0498       128820.36      50.504279      50.504279      50.504279      1.189495       1532.8065      463.85009      2506.5138    
    957000   957000         320.51773      159.99257      35902.061      35602.129      10412.931      25189.198      5306.3259      7405.0988      6784.6904      564.1336      -1487.2418      19583.263     -12967.072     -977.15904      128542.3       50.467914      50.467914      50.467914      1.1920681      398.31624      164.38563     -82.724153    
    958000   958000         321.14909      1135.2363      37766.521      35630.654      10433.443      25197.211      5357.3624      7488.634       6658.5981      570.97714     -1466.9391      19557.282     -12968.704     -973.64175      129006.66      50.528613      50.528613      50.528613      1.1877773      1071.0256      1172.6104      1162.0729    
    959000   959000         319.67352     -985.67209      33645.689      35492.193      10385.505      25106.688      5359.0239      7389.5691      6719.7965      582.41933     -1528.2392      19551.444     -12967.326     -977.84399      128452.26      50.456128      50.456128      50.456128      1.1929037     -113.5564      -1561.7167     -1281.7432    
    960000   960000         319.26347     -273.22551      34917.75       35432.709      10372.183      25060.526      5260.5437      7315.1003      6743.3842      576.87071     -1452.8661      19583.251     -12965.758     -971.93082      129233.76      50.558245      50.558245      50.558245      1.18569       -673.19845      364.90033     -511.37843    
    961000   961000         318.55713     -464.39248      34741.588      35611.49       10349.236      25262.254      5310.4143      7437.4904      6793.0108      571.95617     -1460.1624      19577.583     -12968.038     -977.91764      128442.59      50.454861      50.454861      50.454861      1.1929936     -486.19222      327.92308     -1234.9083    
    962000   962000         318.79619      447.80668      36248.157      35405.888      10357.002      25048.885      5284.0606      7441.9175      6634.9448      560.75625     -1493.9437      19584.101     -12962.951     -973.9284       128968.69      50.523655      50.523655      50.523655      1.188127       289.30128      1895.9813     -841.86255    
    963000   963000         313.81177      222.40338      35803.803      35385.709      10195.069      25190.639      5399.6833      7526.4008      6598.4644      557.32094     -1497.5237      19570.357     -12964.064     -974.43861      128901.16      50.514836      50.514836      50.514836      1.1887494      585.90153      437.71988     -356.41127    
    964000   964000         313.32985      479.13789      36096.289      35194.763      10179.413      25015.35       5255.5868      7415.9194      6636.4996      574.48431     -1472.0011      19574.537     -12969.676     -973.5753       129015.47      50.529763      50.529763      50.529763      1.1876962      1096.52        1081.9166     -741.02302    
    965000   965000         316.65687     -215.82155      34882.272      35286.77       10287.5        24999.27       5134.5909      7412.2721      6767.3444      567.15225     -1489.9078      19572.897     -12965.079     -977.38477      128512.61      50.464029      50.464029      50.464029      1.1923435     -452.17563      23.64031      -218.92934    
    966000   966000         313.83824      380.31397      36060.418      35345.668      10195.929      25149.739      5354.7943      7413.7614      6691.0613      571.81592     -1498.9029      19580.821     -12963.612     -974.70993      128865.28      50.510148      50.510148      50.510148      1.1890804      409.64087     -33.655974      764.957      
    967000   967000         314.21745     -656.30666      33952.388      35188.76       10208.249      24980.511      5278.8722      7468.5873      6613.1781      557.13752     -1562.3107      19587.914     -12962.867     -972.39921      129171.51      50.550126      50.550126      50.550126      1.1862614     -1491.8314     -157.36416     -319.72438    
    968000   968000         315.87192      362.85082      36128.355      35442.479      10261.999      25180.479      5217.1217      7596.4275      6624.5308      580.75922     -1440.0709      19570.125     -12968.414     -969.10195      129611         50.607391      50.607391      50.607391      1.182239      -336.00772      127.1201       1297.4401    
    969000   969000         315.52281      451.68687      36031.3        35184.12       10250.657      24933.463      5248.0327      7433.8279      6536.5793      571.70411     -1478.4358      19585.995     -12964.24      -976.67261      128606.32      50.476291      50.476291      50.476291      1.1914747      1239.3459      178.93626     -63.221534    
    970000   970000         317.12999     -39.524086      35222.936      35296.987      10302.871      24994.116      5176.3505      7502.9744      6687.1007      603.28295     -1575.3396      19568.89      -12969.143     -977.72045      128468.49      50.458253      50.458253      50.458253      1.192753       723.95807      1399.9776     -2242.5079    
    971000   971000         311.56441      464.79815      35980.269      35106.071      10122.057      24984.013      5191.1524      7428.3815      6609.3852      587.7611      -1459.2169      19594.321     -12967.771     -973.96075      128964.41      50.523096      50.523096      50.523096      1.1881664      713.71952      402.29536      278.37957    
    972000   972000         314.52156      534.18059      36148.765      35148.181      10218.129      24930.052      5168.0684      7388.846       6648.8102      577.83075     -1449.405       19563.446     -12967.545     -977.96176      128436.79      50.454102      50.454102      50.454102      1.1930474      1478.7262     -395.85941      519.67502    
    973000   973000         313.94604      1171.5532      37494.795      35289.821      10199.431      25090.389      5265.9182      7431.0199      6697.5709      591.08109     -1503.1784      19575.075     -12967.097     -973.29753      129052.29      50.534569      50.534569      50.534569      1.1873573      1587.8552      1240.7888      686.01573    
    974000   974000         311.07044      732.16238      36396.713      35018.252      10106.009      24912.242      5178.9975      7437.3122      6606.8572      577.96761     -1493.4546      19572.422     -12967.86      -972.97139      129095.54      50.540215      50.540215      50.540215      1.1869595      429.96951      1648.457       118.06065    
    975000   975000         310.17477      617.3611       36227.186      35069.841      10076.911      24992.93       5157.5229      7356.1793      6794.4423      593.01298     -1510.6524      19572.816     -12970.392     -977.15506      128542.82      50.467983      50.467983      50.467983      1.1920633     -72.590746      1106.6068      818.06721    
    976000   976000         313.7537       808.93885      36688.87       35165.817      10193.183      24972.635      5282.4913      7422.6066      6551.5146      560.45736     -1460.2204      19585.631     -12969.846     -972.94422      129099.15      50.540685      50.540685      50.540685      1.1869263      1892.8531     -410.5938       944.55725    
    977000   977000         310.12117     -908.29872      33248.077      34960.97       10075.17       24885.8        5188.1867      7432.4976      6645.998       551.26289     -1537.288       19577.652     -12972.51      -971.37264      129308.02      50.567927      50.567927      50.567927      1.1850091     -1839.0686     -1361.0664      475.23875    
    978000   978000         309.97922     -286.09102      34552.867      35091.161      10070.558      25020.603      5208.4476      7387.3558      6767.519       575.2488      -1541.3129      19587.466     -12964.121     -973.57973      129014.88      50.529686      50.529686      50.529686      1.1877016      388.45098     -808.40161     -438.32244    
    979000   979000         307.64027     -340.59409      34245.019      34886.071      9994.5706      24891.5        5209.6809      7379.9802      6613.3441      561.26066     -1466.0919      19565.389     -12972.063     -973.26612      129056.45      50.535113      50.535113      50.535113      1.187319       1090.5704     -731.9418      -1380.4109    
    980000   980000         308.02179      1211.1354      36909.705      34647.328      10006.965      24640.362      5063.0354      7380.6358      6590.6463      563.13783     -1579.1835      19593.844     -12971.754     -980.65186      128084.47      50.407925      50.407925      50.407925      1.1963291      1082.5321      295.74389      2255.1302    
    981000   981000         310.66492      1460.9187      37655.298      34915.729      10092.835      24822.894      5182.8781      7362.9084      6597.9945      544.2397      -1491.2795      19595.073     -12968.92      -976.85684      128582.07      50.473118      50.473118      50.473118      1.1916995      1688.1533      987.65391      1706.9489    
    982000   982000         307.14905      144.17477      35177.47       34906.689      9978.6118      24928.077      5290.5461      7328.3314      6625.4517      564.90184     -1481.5777      19567.378     -12966.954     -975.3448       128781.4       50.499187      50.499187      50.499187      1.1898549     -371.80401      867.15674     -62.828414    
    983000   983000         308.03097      882.59136      36420.384      34769.655      10007.264      24762.392      5189.6692      7276.7903      6614.7625      559.59        -1495.3165      19581.612     -12964.716     -979.42495      128244.92      50.428965      50.428965      50.428965      1.1948324      1974.9249      1157.3186     -484.46943    
    984000   984000         309.14585     -118.69217      34693.117      34916.624      10043.484      24873.14       5199.1786      7341.0117      6683.3928      576.54766     -1537.9506      19579.792     -12968.832     -972.78813      129119.86      50.543388      50.543388      50.543388      1.1867359      271.74108     -1734.5574      1106.7398    
    985000   985000         305.73975     -1009.0965      32804.476      34700.392      9932.8268      24767.565      5076.2491      7339.0772      6772.4821      561.2244      -1615.3854      19595.615     -12961.697     -974.99132      128828.09      50.505289      50.505289      50.505289      1.1894236     -389.79492     -1596.4462     -1041.0484    
    986000   986000         310.46992      932.12881      36585.45       34840.743      10086.5        24754.243      5092.5567      7436.7819      6579.8232      554.78879     -1522.1865      19579.704     -12967.225     -978.6799       128342.55      50.441758      50.441758      50.441758      1.1939235      958.69665      978.62911      859.06068    
    987000   987000         305.38072      991.40137      36440.713      34586.282      9921.1625      24665.12       5149.1137      7314.3982      6548.971       554.80759     -1507.9002      19575.25      -12969.52      -979.32321      128258.24      50.430711      50.430711      50.430711      1.1947083      1214.8483      644.41148      1114.9443    
    988000   988000         302.61846     -1129.4387      32382.306      34494.913      9831.4227      24663.49       5114.0096      7295.5867      6569.5374      554.07768     -1477.0836      19573.573     -12966.21      -979.33469      128256.74      50.430514      50.430514      50.430514      1.1947223     -236.67926     -1803.5125     -1348.1243    
    989000   989000         308.21752      125.33365      34885.536      34649.731      10013.324      24636.406      5174.9097      7329.25        6526.556       541.87124     -1545.3923      19576.136     -12966.924     -973.64418      129006.34      50.528571      50.528571      50.528571      1.1877802     -319.00239      652.89416      42.109168    
    990000   990000         299.8426      -866.7851       32642.139      34266.448      9741.241       24525.207      5063.3247      7303.7036      6556.7764      551.13869     -1548.3063      19565.657     -12967.087     -977.5297       128493.56      50.461534      50.461534      50.461534      1.1925203     -715.66487     -296.88827     -1587.8022    
    991000   991000         306.48659      99.885637      34878.372      34690.211      9957.09        24733.121      5081.9252      7372.164       6598.8104      564.55554     -1485.0666      19566.073     -12965.34      -972.43783      129166.38      50.549457      50.549457      50.549457      1.1863086     -11.645488      522.76411     -211.46171    
    992000   992000         304.43535      35.568492      34602.032      34535.39       9890.4496      24644.941      5101.722       7403.2185      6540.9912      531.39641     -1547.4172      19579.817     -12964.787     -977.71188      128469.62      50.4584        50.4584        50.4584        1.1927425      35.856392     -469.95376      540.80284    
    993000   993000         304.6698      -487.68171      33686.804      34602.235      9898.0663      24704.169      5071.9231      7355.7735      6595.256       557.22775     -1485.8483      19570.809     -12960.972     -975.8838       128710.27      50.489888      50.489888      50.489888      1.1905124     -192.68519     -145.32548     -1125.0345    
    994000   994000         300.68334     -433.30337      33605.746      34418.757      9768.5548      24650.202      5091.0079      7344.4842      6585.451       564.43852     -1553.3081      19584.069     -12965.94      -976.29895      128655.54      50.48273       50.48273       50.48273       1.1910189     -81.716543      382.34335     -1600.5369    
    995000   995000         307.02357      333.16678      35271.392      34647.12       9974.5353      24672.585      5088.8142      7328.0701      6626.8992      550.9911      -1530.1727      19573.537     -12965.554     -977.63135      128480.2       50.459786      50.459786      50.459786      1.1926443      1114.1883      49.418451     -164.10638    
    996000   996000         303.19683      659.12034      35576.738      34342.454      9850.2126      24492.241      5019.231       7306.092       6536.2838      539.04327     -1522.1312      19576.922     -12963.2       -978.22065      128402.8       50.449651      50.449651      50.449651      1.1933632     -39.068163      1517.1773      499.25192    
    997000   997000         300.65283     -1695.5905      31161.096      34344.446      9767.5636      24576.882      5096.0097      7255.9121      6663.431       531.6423      -1572.3432      19569.562     -12967.331     -975.71688      128732.29      50.492767      50.492767      50.492767      1.1903088     -2416.8498     -1526.486      -1143.4358    
    998000   998000         298.44322     -782.27112      32873.517      34343.014      9695.7783      24647.236      5118.5995      7280.9184      6714.6909      562.286       -1623.8526      19563.683     -12969.09      -975.16015      128805.79      50.502374      50.502374      50.502374      1.1896296     -917.21228     -664.47603     -765.12505    
    999000   999000         302.0757      -1106.9967      32297.517      34375.682      9813.7898      24561.892      4978.9972      7294.8628      6732.4144      547.1716      -1583.8674      19564.108     -12971.794     -975.78361      128723.49      50.491616      50.491616      50.491616      1.1903902      1012.6122     -1735.1428     -2598.4595    
   1000000   1000000        298.20312      1172.9064      36379.104      34187.074      9687.9779      24499.096      5153.0212      7163.6167      6539.7736      551.31665     -1507.3406      19567.265     -12968.557     -980.17623      128146.62      50.416077      50.416077      50.416077      1.1957489      987.938        2115.9739      414.80736    
Loop time of 5560.8 on 1 procs for 1000000 steps with 10900 atoms

Performance: 15.537 ns/day, 1.545 hours/ns, 179.830 timesteps/s, 1.960 Matom-step/s
100.0% CPU use with 1 MPI tasks x 1 OpenMP threads

MPI task timing breakdown:
Section |  min time  |  avg time  |  max time  |%varavg| %total
---------------------------------------------------------------
Pair    | 2685.1     | 2685.1     | 2685.1     |   0.0 | 48.29
Bond    | 759.09     | 759.09     | 759.09     |   0.0 | 13.65
Kspace  | 1087.9     | 1087.9     | 1087.9     |   0.0 | 19.56
Neigh   | 458.7      | 458.7      | 458.7      |   0.0 |  8.25
Comm    | 58.058     | 58.058     | 58.058     |   0.0 |  1.04
Output  | 21.761     | 21.761     | 21.761     |   0.0 |  0.39
Modify  | 320.09     | 320.09     | 320.09     |   0.0 |  5.76
Other   |            | 170.1      |            |       |  3.06

Nlocal:          10900 ave       10900 max       10900 min
Histogram: 1 0 0 0 0 0 0 0 0 0
Nghost:          22847 ave       22847 max       22847 min
Histogram: 1 0 0 0 0 0 0 0 0 0
Neighs:              0 ave           0 max           0 min
Histogram: 1 0 0 0 0 0 0 0 0 0
FullNghs:   5.8991e+06 ave  5.8991e+06 max  5.8991e+06 min
Histogram: 1 0 0 0 0 0 0 0 0 0

Total # of neighbors = 5899096
Ave neighs/atom = 541.20147
Ave special neighs/atom = 5.6385321
Neighbor list builds = 58166
Dangerous builds = 0

# --- Cleanup ---
unfix npt_fix

undump dump_npt

# --- Write Output ---
write_dump all custom npt_cool300_last.dump id type mol x y z xu yu zu vx vy vz modify sort id
write_data /home/arz2/PolyJarvis/data/PEEK2/lammps/npt_cool300/npt_cool300_out.data
System init for write_data ...
PPPM Kokkos initialization ...
  using 12-bit tables for long-range coulomb
  G vector (1/distance) = 0.30975273
  grid = 40 40 40
  stencil order = 5
  estimated absolute RMS force accuracy = 0.00032651537
  estimated relative force accuracy = 9.8329133e-07
  using double precision cuFFT
  3d grid and FFT values/proc = 103823 64000
Generated 21 of 21 mixed pair_coeff terms from sixthpower/sixthpower mixing rule

print "STAGE COMPLETE: NPT T=770.0->300.0K P=1.0->1.0atm steps=1000000"
STAGE COMPLETE: NPT T=770.0->300.0K P=1.0->1.0atm steps=1000000
quit
76
Other   |            | 170.1      |            |       |  3.06

Nlocal:          10900 ave       10900 max       10900 min
Histogram: 1 0 0 0 0 0 0 0 0 0
Nghost:          22847 ave       22847 max       22847 min
Histogram: 1 0 0 0 0 0 0 0 0 0
Neighs:              0 ave           0 max           0 min
Histogram: 1 0 0 0 0 0 0 0 0 0
FullNghs:   5.8991e+06 ave  5.8991e+06 max  5.8991e+06 min
Histogram: 1 0 0 0 0 0 0 0 0 0

Total # of neighbors = 5899096
Ave neighs/atom = 541.20147
Ave special neighs/atom = 5.6385321
Neighbor list builds = 58166
Dangerous builds = 0
System init for write_data ...
PPPM Kokkos initialization ...
  using 12-bit tables for long-range coulomb
  G vector (1/distance) = 0.30975273
  grid = 40 40 40
  stencil order = 5
  estimated absolute RMS force accuracy = 0.00032651537
  estimated relative force accuracy = 9.8329133e-07
  using double precision cuFFT
  3d grid and FFT values/proc = 103823 64000
Generated 21 of 21 mixed pair_coeff terms from sixthpower/sixthpower mixing rule
STAGE COMPLETE: NPT T=770.0->300.0K P=1.0->1.0atm steps=1000000
