LAMMPS data file via write_data, version 22 Jul 2025, timestep = 2000000, units = real

4020 atoms
6 atom types
4010 bonds
7 bond types
7600 angles
12 angle types
9570 dihedrals
14 dihedral types
4800 impropers
11 improper types

2.8838432576908914 39.44061598231167 xlo xhi
2.8838432576908914 39.44061598231167 ylo yhi
2.8838432576908914 39.44061598231167 zlo zhi

Masses

1 12.01115
2 12.01115
3 1.00797
4 1.00797
5 32.064
6 32.064

Pair Coeffs # lj/class2/coul/long/gpu

1 0.054 4.01
2 0.054 4.01
3 0.02 2.995
4 0.02 2.995
5 0.071 4.027
6 0.071 4.027

Bond Coeffs # class2

1 1.53 299.67 -501.77 679.81
2 1.101 345 -691.89 844.6
3 1.823 225.277 -327.706 488.972
4 1.101 345 -691.89 844.6
5 1.823 225.277 -327.706 488.972
6 1.823 225.277 -327.706 488.972
7 1.3261 275.112 -531.318 562.963

Angle Coeffs # class2

1 112.67 39.516 -7.443 -9.5583
2 110.77 41.453 -10.604 5.129
3 112.564 47.0276 -10.679 -10.1687
4 112.564 47.0276 -10.679 -10.1687
5 97.5 57.6938 -5.0559 -11.8206
6 110.77 41.453 -10.604 5.129
7 112.564 47.0276 -10.679 -10.1687
8 96.8479 56.7336 14.2713 0
9 107.66 39.641 -12.921 -2.4318
10 107.852 51.4949 -13.527 7.026
11 107.852 51.4949 -13.527 7.026
12 107.852 51.4949 -13.527 7.026

BondBond Coeffs

1 0 1.53 1.53
2 3.3872 1.53 1.101
3 10.9186 1.53 1.823
4 10.9186 1.53 1.823
5 -22.3144 1.823 1.823
6 3.3872 1.53 1.101
7 10.9186 1.53 1.823
8 -0.57 1.823 1.3261
9 5.3316 1.101 1.101
10 7.0463 1.101 1.823
11 7.0463 1.101 1.823
12 7.0463 1.101 1.823

BondAngle Coeffs

1 8.016 8.016 1.53 1.53
2 20.754 11.421 1.53 1.101
3 -3.5621 22.3865 1.53 1.823
4 -3.5621 22.3865 1.53 1.823
5 -13.0015 -13.0015 1.823 1.823
6 20.754 11.421 1.53 1.101
7 -3.5621 22.3865 1.53 1.823
8 10.7325 5.1221 1.823 1.3261
9 18.103 18.103 1.101 1.101
10 9.3225 44.9874 1.101 1.823
11 9.3225 44.9874 1.101 1.823
12 9.3225 44.9874 1.101 1.823

Dihedral Coeffs # class2

1 0 0 0.0316 0 -0.1681 0
2 -0.7017 0 0.0201 0 0.104 0
3 -0.4871 0 -0.4514 0 -0.1428 0
4 -0.5073 0 0.0155 0 -0.0671 0
5 -0.3338 0 -0.0684 0 -0.1706 0
6 -0.5073 0 0.0155 0 -0.0671 0
7 -0.3338 0 -0.0684 0 -0.1706 0
8 -0.1432 0 0.0617 0 -0.1083 0
9 -0.2078 0 -0.106 0 -0.3595 0
10 -0.2078 0 -0.106 0 -0.3595 0
11 -0.2078 0 -0.106 0 -0.3595 0
12 -0.5374 0 -0.5091 0 -0.1361 0
13 -1.2002 0 -1.2999 0 -0.1626 0
14 -1.2002 0 -1.2999 0 -0.1626 0

AngleAngleTorsion Coeffs

1 -16.164 112.67 110.77
2 -26.71 112.67 112.564
3 -28.1728 112.564 96.8479
4 -32.8949 112.564 97.5
5 -26.49 97.5 107.852
6 -32.8949 112.564 97.5
7 -26.49 97.5 107.852
8 -12.564 110.77 110.77
9 -13.1026 110.77 112.564
10 -13.1026 110.77 112.564
11 -13.1026 110.77 112.564
12 -18.6334 107.852 96.8479
13 -13.9674 112.564 112.564
14 -13.9674 112.564 112.564

EndBondTorsion Coeffs

1 0.2486 0.2422 -0.0925 0.0814 0.0591 0.2219 1.53 1.101
2 -0.1586 -0.7244 -0.2608 -0.7991 -0.959 0.5855 1.53 1.823
3 0.1026 0.0936 -0.0404 -0.3008 0.0606 0.4501 1.53 1.3261
4 -0.2542 -0.7984 -0.6525 -0.3047 -0.0109 -0.3763 1.53 1.823
5 0.2592 -0.0166 0.1306 -0.41 0.0668 0.4187 1.823 1.101
6 -0.2542 -0.7984 -0.6525 -0.3047 -0.0109 -0.3763 1.53 1.823
7 0.2592 -0.0166 0.1306 -0.41 0.0668 0.4187 1.823 1.101
8 0.213 0.312 0.0777 0.213 0.312 0.0777 1.101 1.101
9 -0.1526 -0.371 0.1048 1.0661 0.3298 0.425 1.101 1.823
10 -0.1526 -0.371 0.1048 1.0661 0.3298 0.425 1.101 1.823
11 -0.1526 -0.371 0.1048 1.0661 0.3298 0.425 1.101 1.823
12 0.4376 0.2001 -1.0696 0.2902 0.0695 0.1726 1.101 1.3261
13 -0.3252 0.5008 0.5191 -0.3252 0.5008 0.5191 1.823 1.823
14 -0.3252 0.5008 0.5191 -0.3252 0.5008 0.5191 1.823 1.823

MiddleBondTorsion Coeffs

1 -14.879 -3.6581 -0.3138 1.53
2 -4.2593 -5.6468 -3.3835 1.53
3 0.502 -1.0204 -0.9177 1.823
4 -2.5172 -2.0107 -2.8547 1.823
5 -0.6955 -2.9427 -1.2372 1.823
6 -2.5172 -2.0107 -2.8547 1.823
7 -0.6955 -2.9427 -1.2372 1.823
8 -14.261 -0.5322 -0.4864 1.53
9 -5.7537 -2.0104 0.2813 1.53
10 -5.7537 -2.0104 0.2813 1.53
11 -5.7537 -2.0104 0.2813 1.53
12 -0.3729 0.5373 -0.7035 1.823
13 1.7001 -3.3479 -0.8067 1.53
14 1.7001 -3.3479 -0.8067 1.53

BondBond13 Coeffs

1 0 1.53 1.101
2 0 1.53 1.823
3 0 1.53 1.3261
4 0 1.53 1.823
5 0 1.823 1.101
6 0 1.53 1.823
7 0 1.823 1.101
8 0 1.101 1.101
9 0 1.101 1.823
10 0 1.101 1.823
11 0 1.101 1.823
12 0 1.101 1.3261
13 0 1.823 1.823
14 0 1.823 1.823

AngleTorsion Coeffs

1 -0.2454 0 -0.1136 0.3113 0.4516 -0.1988 112.67 110.77
2 -2.0927 -0.1498 -1.7848 1.1179 0.3638 0.9423 112.67 112.564
3 -0.6045 3.8941 0.8885 1.0193 -0.6016 0.2097 112.564 96.8479
4 5.1289 2.0927 -2.4004 -4.5489 0.0886 0.6237 112.564 97.5
5 -1.0888 -0.2 -0.0909 0.5962 3.3479 0.2265 97.5 107.852
6 5.1289 2.0927 -2.4004 -4.5489 0.0886 0.6237 112.564 97.5
7 -1.0888 -0.2 -0.0909 0.5962 3.3479 0.2265 97.5 107.852
8 -0.8085 0.5569 -0.2466 -0.8085 0.5569 -0.2466 110.77 110.77
9 -2.0382 0.2102 -0.9023 0.3322 -0.0519 -0.3553 110.77 112.564
10 -2.0382 0.2102 -0.9023 0.3322 -0.0519 -0.3553 110.77 112.564
11 -2.0382 0.2102 -0.9023 0.3322 -0.0519 -0.3553 110.77 112.564
12 -2.2533 2.6948 -0.1723 1.434 -0.1915 -0.2611 107.852 96.8479
13 -5.0565 -0.6355 0.6015 -5.0565 -0.6355 0.6015 112.564 112.564
14 -5.0565 -0.6355 0.6015 -5.0565 -0.6355 0.6015 112.564 112.564

Improper Coeffs # class2

1 0 0
2 0 0
3 0 0
4 0 0
5 0 0
6 0 0
7 0 0
8 0 0
9 0 0
10 0 0
11 0 0

AngleAngle Coeffs

1 0.2738 -0.4825 0.2738 110.77 110.77 107.66
2 2.7985 -3.0031 -0.0668 110.77 112.564 107.852
3 -0.3157 -0.3157 -0.3157 107.66 107.66 107.66
4 0.5086 0.5086 -0.064 107.66 107.852 107.852
5 -1.3199 -1.3199 0.1184 112.67 110.77 110.77
6 -0.2564 -0.2564 -0.8766 112.67 112.564 112.564
7 -0.2564 -0.2564 -0.8766 112.67 112.564 112.564
8 2.7985 -3.0031 -0.0668 110.77 112.564 107.852
9 2.7985 -3.0031 -0.0668 110.77 112.564 107.852
10 -0.0668 -3.0031 2.7985 112.564 110.77 107.852
11 -0.0668 -3.0031 2.7985 112.564 110.77 107.852

Atoms # full

2528 7 1 -0.159 4.582734287761751 6.464269622366274 6.355811743329381 0 1 1
2531 7 3 0.053 5.601490796161004 6.6611054414735085 6.677756515303411 0 1 1
2526 7 2 0.012 4.149452919140705 5.003679904809759 6.357841461935566 0 1 1
1640 5 3 0.053 6.832758712186251 5.050531130089356 4.058324441581823 1 1 0
1645 5 3 0.053 7.638046952776922 7.2633825119014785 5.486587674321427 1 1 0
1639 5 1 -0.041 7.942371341262601 4.911644907219981 3.83559546627265 1 1 0
2527 7 3 0.053 4.812778427864548 4.450794348415444 5.617694995188705 0 1 1
1648 5 6 -0.13 8.208828981586475 4.627572267780078 6.649099661230642 1 1 0
2525 7 3 0.053 5.388643441367751 4.648131015817256 8.152904633064743 0 1 1
2523 7 1 -0.041 4.383074376284696 4.449748341259484 7.816723140681423 0 1 1
2530 7 3 0.053 4.6320586822110705 6.735833093538719 5.281470891643977 0 1 1
2524 7 3 0.053 3.805343170701699 5.024284852685165 8.535425641315951 0 1 1
2529 7 3 0.053 3.9036873655846467 7.160118279582979 6.890216642799713 0 1 1
1638 5 6 -0.13 8.245356252766008 3.1760375006814368 3.3411487432929436 1 1 0
1511 4 3 0.053 5.159740989309293 8.214588787310973 3.4312413941680795 1 0 1
2535 7 3 0.053 3.31703675794777 3.9884053691946653 3.6491636720828873 0 1 1
1641 5 3 0.053 8.227090816235687 5.693017569520563 3.040568775766438 1 1 0
600 2 3 0.053 11.493199289555786 3.467659831226578 5.1022488409553794 -1 0 0
1642 5 2 0.012 8.77354823467628 5.358438027401232 5.058456721005914 1 1 0
1644 5 1 -0.159 8.680534167622495 6.873553749702266 5.3027632811309795 1 1 0
1646 5 3 0.053 9.189120996192363 7.445385967525956 4.514303281420802 1 1 0
1643 5 3 0.053 9.809550146189014 5.0847595395878695 4.92567347309584 1 1 0
1647 5 3 0.053 9.179748714184285 7.213123107165437 6.179929322998421 1 1 0
3935 10 3 0.053 12.688652011588237 6.202763964327677 7.168051838025106 1 2 1
3929 10 1 -0.041 12.989714879952606 7.95620252084261 4.976776958292268 1 2 1
3934 10 1 -0.159 13.666259369359935 6.221047933737982 6.742002397099846 1 2 1
3937 10 3 0.053 13.657552788012682 5.447411091953306 6.038024368851129 1 2 1
3932 10 2 0.012 14.015078186678164 7.515008704109216 6.059472182284404 1 2 1
3928 10 6 -0.13 12.826555478280799 6.9746753511323885 3.4670323639358926 1 2 1
599 2 3 0.053 12.92473552048448 4.005132338096966 4.062784093466878 -1 0 0
601 2 3 0.053 11.415712315481334 3.725500898739516 3.325963144724897 -1 0 0
3930 10 3 0.053 11.985328229622413 7.915879573426543 5.470846773096545 1 2 1
3933 10 3 0.053 14.02867291934299 8.351610372117008 6.748335348688038 1 2 1
1661 5 3 0.053 10.483190705539391 4.462778493700825 8.351715276477062 1 1 0
598 2 1 -0.159 12.039194209725615 3.3848580048622083 4.165136547945333 -1 0 0
3936 10 3 0.053 14.391045955299044 5.920275637060518 7.458950269084935 1 2 1
605 2 3 0.053 14.781563558068386 3.4616184662861205 4.9941626084249435 -1 0 0
625 2 3 0.053 20.132740363235566 3.3075110143042092 2.9801339504593827 -1 0 0
612 2 6 -0.13 17.582936424047773 3.125444571770879 4.799692315249173 -1 0 0
3938 10 6 -0.13 15.74402427528997 7.566373761855066 5.438370268090534 1 2 1
3941 10 3 0.053 16.373416895397163 7.7819112821667575 7.707746844055625 1 2 1
3939 10 1 -0.041 16.558884921102923 8.479543007437753 6.817268654718242 1 2 1
3943 10 3 0.053 18.67069319654192 8.158312640868282 6.07926836577068 1 2 1
615 2 3 0.053 16.26524586200682 4.740507751301872 3.6941573936335903 -1 0 0
613 2 1 -0.041 16.84181084582474 3.9000014738296778 3.296993723298404 -1 0 0
3946 10 3 0.053 18.642202082213718 8.368531570657847 8.506691268156661 1 2 1
3950 10 3 0.053 18.688797726312465 8.546001741655589 4.140323580519032 1 2 1
604 2 3 0.053 15.305499393853207 2.94573608722392 6.593588025017194 -1 0 0
704 2 3 0.053 18.554827490644044 4.016532422044964 7.848291839736212 -1 0 0
1453 4 3 0.053 20.321509650095003 6.798721698277417 7.450982483065643 0 0 1
1445 4 3 0.053 21.048951439404323 7.552229790116964 3.875625042998284 0 0 1
1513 4 3 0.053 7.247202057876584 8.893962798781097 4.296864188687206 1 0 1
1510 4 2 0.012 5.176328642614727 9.292818901107559 3.5802442880422296 1 0 1
1124 3 6 -0.13 6.751283341558342 9.994650618232523 7.964691303818028 1 -1 0
1515 4 3 0.053 6.829818778836367 10.57362739375957 4.396644767194003 1 0 1
1512 4 1 -0.159 6.4133181380847555 9.586095621213474 4.398512318280724 1 0 1
1514 4 3 0.053 6.150092325572558 9.373759991140563 5.464684055557717 1 0 1
1508 4 3 0.053 3.8501409687427053 9.547706718943628 5.461943714081167 1 0 1
1507 4 1 -0.041 3.9339898632775663 9.846236980805175 4.387307335507848 1 0 1
1509 4 3 0.053 4.10845674262977 10.96540625361054 4.4997998854599 1 0 1
1115 3 1 -0.041 5.526910068617422 12.488397661183782 7.499223579783743 1 -1 0
1116 3 3 0.053 6.512799996610807 13.002949723047951 7.659232516412121 1 -1 0
1117 3 3 0.053 5.476154074561426 12.03145599429233 6.498703142229159 1 -1 0
1121 3 3 0.053 3.834811725787522 10.103675885495253 7.995031338618892 1 -1 0
1109 3 3 0.053 4.123967358900762 14.044633405467843 5.5574095583563246 1 -1 0
1127 3 3 0.053 8.482662004111933 11.682683582857702 8.361525201679626 1 -1 0
1118 3 2 0.012 5.539985743416656 11.298797989275103 8.454298824043256 1 -1 0
1114 3 6 -0.13 4.101092251658852 13.517179581476022 7.883910270313553 1 -1 0
1519 4 3 0.053 5.293994127632124 12.229069115445723 3.1502771454108665 1 0 1
3433 9 3 0.053 10.804694912934337 13.483349315353387 6.521531061528215 1 1 0
3426 9 6 -0.13 10.751216522894719 14.128272394779309 4.076120718299732 1 1 0
3432 9 1 -0.159 11.817089622989249 13.289016733654769 6.829624388336646 1 1 0
3434 9 3 0.053 12.050358690612155 12.222542080841176 6.664062771107587 1 1 0
3428 9 3 0.053 12.54255605334389 12.50604295965932 4.401121870277156 1 1 0
3427 9 1 -0.041 12.418292870704263 13.575621704235164 4.516498493884716 1 1 0
3430 9 2 0.012 12.76126168569757 14.077028274022972 5.9205400207590895 1 1 0
3435 9 3 0.053 11.822801358579632 13.444163546332085 7.973038422598334 1 1 0
3437 9 1 -0.041 14.381926349845124 14.133928567560238 8.033377294488297 1 1 0
3429 9 3 0.053 13.124440960463328 14.029287573652047 3.844217518902991 1 1 0
3438 9 3 0.053 14.196576417167993 13.16769000449075 8.621337426525013 1 1 0
1126 3 3 0.053 9.21146811623203 10.01144774757046 8.236662906091023 1 -1 0
3931 10 3 0.053 13.144255578592073 9.005479082324197 4.695693714227495 1 2 1
3436 9 6 -0.13 14.45739223483014 13.716549249922657 6.2441364806179935 1 1 0
3940 10 3 0.053 15.81887538266923 9.339969659099879 7.064341529761005 1 2 1
3942 10 2 0.012 18.05572213441709 8.945881534273397 6.570359123304563 1 2 1
3961 10 3 0.053 16.10735086432716 12.011193582694819 3.342752044742717 1 2 1
3944 10 1 -0.159 18.661615839587675 9.285710782884768 7.909556860683392 1 2 1
3948 10 6 -0.13 18.22915830319763 10.411931111893477 5.446910917774362 1 2 1
3945 10 3 0.053 19.636474861994007 9.6803126314663 7.821841823955434 1 2 1
3445 9 3 0.053 17.196791913274275 13.97754016795414 7.087285031867196 1 1 0
891 3 3 0.053 19.07805233868429 13.943542604565017 4.285194082237951 0 -1 0
3951 10 3 0.053 19.84204286490163 9.832203068868981 3.7512575073477077 1 2 1
3949 10 1 -0.041 18.750370542472893 9.580463890023436 3.8622305304851405 1 2 1
3965 10 3 0.053 16.622674322760048 14.238789189949646 3.5144512800814867 1 2 1
3442 9 1 -0.159 16.950553057752888 13.89823452651022 8.16925401160558 1 1 0
3444 9 3 0.053 16.79907579633096 12.862249237212811 8.47040042694329 1 1 0
3443 9 3 0.053 17.943652275768976 14.331588156244 8.584675141134628 1 1 0
893 3 3 0.053 20.495977985880668 14.34329861538033 5.389804756177801 0 -1 0
3400 9 2 0.012 8.066292606367707 19.650884347084446 3.2051306622759714 1 1 0
1108 3 2 0.012 4.016980058231049 14.622731830477772 6.472951726470615 1 -1 0
1113 3 3 0.053 6.061932331248346 15.193490592834202 6.410223651117355 1 -1 0
1110 3 1 -0.159 5.09635552374233 15.704053039497223 6.551406931338747 1 -1 0
1111 3 3 0.053 5.0850924050719115 16.279125093990075 5.632146963352104 1 -1 0
3474 9 3 0.053 7.845136201406537 18.242505188179205 7.613311415660038 1 1 0
3472 9 1 -0.159 8.294178125298416 18.52696520838122 8.588799199212703 1 1 0
3475 9 3 0.053 8.202018684873309 19.634742358521446 8.621983190855948 1 1 0
1112 3 3 0.053 5.076379096156004 16.31021227915052 7.442557887937013 1 -1 0
3390 9 2 0.012 3.8572931470505676 19.161118275622897 4.175163272391057 1 1 0
3391 9 3 0.053 3.191548350586641 18.318151344296542 3.924769573356806 1 1 0
3396 9 6 -0.13 5.530203149725761 18.390320523983384 3.972907524617451 1 1 0
3404 9 3 0.053 8.337193083270703 19.212909655959567 5.437775797889611 1 1 0
3402 9 1 -0.159 8.536550520615041 20.021399430936395 4.6849159688724935 1 1 0
3397 9 1 -0.041 6.518999739065651 19.80325769649296 3.071386406120916 1 1 0
3386 9 6 -0.13 3.318999469135811 18.79392180550417 6.890292893507979 1 1 0
3387 9 1 -0.041 3.349248348467567 19.860589406947266 5.4350611919037 1 1 0
3431 9 3 0.053 12.546816188132677 15.193002014142182 6.0166778137133425 1 1 0
3439 9 3 0.053 13.541917155654595 14.782305504155651 8.237258916199192 1 1 0
3467 9 1 -0.041 10.554903593010273 19.217584380402336 7.740294460058489 1 1 0
3469 9 3 0.053 10.318833922301403 19.018841154141484 6.689168506857374 1 1 0
3461 9 3 0.053 12.6639827425799 19.986573335020985 5.790166029983082 1 1 0
3460 9 2 0.012 13.097546747248618 20.108704094083965 6.829243938302733 1 1 0
3466 9 6 -0.13 12.319755848059028 18.92012890081413 7.951799242155751 1 1 0
3411 9 3 0.053 10.869246308559646 16.652695241361755 3.4968793980991686 1 1 0
3413 9 3 0.053 12.87008861770152 18.35741285821237 4.089655946341197 1 1 0
3476 9 6 -0.13 9.864797708729675 16.35510952740176 8.362907118093016 1 1 0
3409 9 3 0.053 10.683017956086312 19.216562728387228 3.329540460254514 1 1 0
3412 9 1 -0.159 12.763486773278986 17.705873923022953 3.1995247397028166 1 1 0
3415 9 3 0.053 13.409461233045272 16.812095567589942 3.4551827929074674 1 1 0
890 3 1 -0.159 20.012983536237286 14.548848420082496 4.4964015280210035 0 -1 0
916 3 3 0.053 16.186777675093467 19.42079699870116 2.911193548873957 0 -1 0
3457 9 1 -0.041 14.670407407021392 19.776217124751682 6.800650289068139 1 1 0
3449 9 3 0.053 16.1458102050953 15.99391585734051 6.040145679136 1 1 0
892 3 3 0.053 19.558009601069863 15.588390446995085 4.657817736539226 0 -1 0
3456 9 6 -0.13 15.190553524768317 18.755048195907847 5.40952198956435 1 1 0
3458 9 3 0.053 14.997193406432732 19.382526306872414 7.818686551253359 1 1 0
3455 9 3 0.053 18.178648125163974 18.84923079679389 4.493648072188358 1 1 0
3447 9 1 -0.041 16.616341159329583 16.68491043081471 6.711360177843287 1 1 0
3450 9 2 0.012 16.758512132117588 18.065964679439382 6.063020949812994 1 1 0
3451 9 3 0.053 17.144608911157462 18.825277588654565 6.798393157408238 1 1 0
3448 9 3 0.053 17.60686065107035 16.27761312206939 6.879917475467545 1 1 0
3454 9 3 0.053 18.834426419205037 17.677340406024722 5.596513414862177 1 1 0
3453 9 3 0.053 17.585143882476434 17.196440432330082 4.277935906243983 1 1 0
3452 9 1 -0.159 17.909213698388307 17.921600554348878 5.078117966911733 1 1 0
3440 9 2 0.012 15.73950951815911 14.728690822426282 8.574788898213788 1 1 0
3446 9 6 -0.13 15.78060164209788 16.634369268732055 8.35219324620805 1 1 0
1016 3 3 0.053 19.6947175148642 19.56531073666544 7.307977838324153 0 -1 0
888 3 2 0.012 21.079589379998296 14.416515592149398 3.415322407749252 0 -1 0
1017 3 3 0.053 21.137709158724906 19.04370065775953 6.283929510996197 0 -1 0
1015 3 1 -0.041 20.60387131119637 19.866651350645427 6.771851771969827 0 -1 0
1011 3 3 0.053 20.258866582643872 19.11611579627756 3.1311496503610243 0 -1 0
3389 9 3 0.053 4.0038837060885495 20.68707929923669 5.767634772982468 1 1 0
3381 9 3 0.053 3.2267574285593392 20.821323660449796 8.321047764503156 1 1 0
3398 9 3 0.053 6.23127563807469 20.694272491797506 3.5313082190647975 1 1 0
3392 9 1 -0.159 3.475053902970304 20.174276261141124 3.042079417413668 1 1 0
3405 9 3 0.053 8.037793097428072 20.96564154713271 5.025813153414649 1 1 0
3468 9 3 0.053 10.20050355929178 20.198576823757083 7.867909040116567 1 1 0
3403 9 3 0.053 9.59749834665439 20.22578689829339 4.635193373389227 1 1 0
3459 9 3 0.053 15.23336885315883 20.70077317841284 6.691926829767159 1 1 0
1014 3 6 -0.13 19.8289208037227 20.82020250151599 5.374920711701147 0 -1 0
1141 3 3 0.053 5.902543698706728 6.506276104614535 10.042915398355891 1 -1 0
1140 3 1 -0.159 6.753706889805789 6.242757888412202 10.619487078451112 1 -1 0
1144 3 6 -0.13 5.526208302818653 6.9502087035568385 13.135517173840388 1 -1 0
1138 3 2 0.012 6.830469783620165 7.027648478674278 11.957956433123417 1 -1 0
1135 3 1 -0.041 7.134831791824084 8.51281416679657 11.678893599171627 1 -1 0
1146 3 3 0.053 5.753860956370737 4.592175437466032 12.69175423077038 1 -1 0
1142 3 3 0.053 7.675772414904141 6.505201906171598 10.00723954062911 1 -1 0
1143 3 3 0.053 6.822672483219158 5.14301246816064 10.745264106525415 1 -1 0
1145 3 1 -0.041 5.699183884831513 5.2383095758517495 13.626701938258309 1 -1 0
1147 3 3 0.053 6.654961167099014 5.136780208065469 14.06860702979135 1 -1 0
1139 3 3 0.053 7.727075543477496 6.696196776814174 12.382431925698947 1 -1 0
2520 7 3 0.053 4.433374641602754 4.268179276480577 10.791819886553 0 1 1
1154 3 6 -0.13 2.9220582991101054 4.505972470239522 13.801567152092069 1 -1 0
2518 7 1 -0.159 4.47130167186039 3.1442057478880967 10.759316017864187 0 1 1
1671 5 3 0.053 10.562528266473551 2.9829203681431693 13.329674666813856 1 1 0
1670 5 3 0.053 9.6090040547823 3.675984771209134 11.94162143042926 1 1 0
1659 5 1 -0.041 10.425638418014074 3.556537735651428 8.983761881019436 1 1 0
1666 5 3 0.053 11.460945584983353 5.3979634658224445 11.23857527118941 1 1 0
1665 5 3 0.053 12.300137927498303 5.656500097776947 9.758698050698687 1 1 0
811 3 3 0.053 12.187526404335905 7.5127205294527615 11.366687877736005 0 -1 0
810 3 1 -0.159 12.868903356411414 7.9862483451132436 12.046463551713229 0 -1 0
813 3 3 0.053 12.399044067317737 8.106467229152361 13.07978356025207 0 -1 0
1664 5 1 -0.159 12.144180322177315 4.918346286501652 10.520375417696645 1 1 0
812 3 3 0.053 13.810053355747996 7.388041214869259 12.058472983470054 0 -1 0
1667 5 3 0.053 13.077705812747634 4.805599100584665 11.151978105252697 1 1 0
1663 5 3 0.053 12.519712860322846 3.16907409413431 9.465335427257653 1 1 0
1134 3 6 -0.13 8.636088263560012 8.58736987296675 10.653258744344601 1 -1 0
528 2 1 -0.159 13.919027649976304 3.1105931758062453 13.447045669676246 -1 0 0
1662 5 2 0.012 11.627341992806457 3.5596465523795113 9.97948538263589 1 1 0
530 2 3 0.053 12.81920189285475 3.1365671877965466 13.315884605087813 -1 0 0
1660 5 3 0.053 9.550521176791703 3.676313068926177 9.55206591378214 1 1 0
711 2 3 0.053 15.85366779234873 3.9242581467728144 10.516649057443278 -1 0 0
710 2 3 0.053 16.2066201318978 3.5792242032251833 8.773893509790756 -1 0 0
708 2 1 -0.159 16.63945770954809 3.410433324646637 9.844381297728145 -1 0 0
807 3 3 0.053 14.528858133940231 8.561525368428782 9.811813485903041 0 -1 0
706 2 2 0.012 18.0501955076679 3.9347426307110864 9.98659142306536 -1 0 0
715 2 3 0.053 16.14186672935599 6.345666238574637 11.077441546869876 -1 0 0
721 2 3 0.053 16.023625138126842 6.939435715387834 13.817230187512283 -1 0 0
712 2 6 -0.13 18.1322307868165 5.740282477458951 9.945738247214909 -1 0 0
718 2 1 -0.159 17.149078271195684 7.044209798669219 13.83453615782745 -1 0 0
716 2 2 0.012 17.693321787811144 7.342611404370725 12.35466086254468 -1 0 0
717 2 3 0.053 18.79171080392574 7.409522033567429 12.533312996021115 -1 0 0
713 2 1 -0.041 17.206939892717855 6.212020863594101 11.41331214547859 -1 0 0
714 2 3 0.053 17.136611817564262 5.337829859872677 12.052585271543599 -1 0 0
719 2 3 0.053 17.650247379048125 6.109264831706839 14.146036557033954 -1 0 0
703 2 1 -0.041 19.005914478055935 3.576814976276764 8.854368506903088 -1 0 0
705 2 3 0.053 20.012657456902573 4.019313160101797 9.017480013501643 -1 0 0
707 2 3 0.053 18.43631169894602 3.53502703721941 11.0180666648143 -1 0 0
529 2 3 0.053 14.422207538940858 3.73438689935401 12.734208432455153 -1 0 0
524 2 3 0.053 16.37210891666944 3.6648719975017636 14.160055042340948 -1 0 0
780 2 3 0.053 20.256331906463096 4.97827284737717 12.008935134951749 -1 0 0
3497 9 1 -0.041 3.610017143281861 12.374779391989682 12.506592338146737 1 1 0
1125 3 1 -0.041 8.336005493195616 10.597781656021736 8.637828681631973 1 -1 0
1137 3 3 0.053 6.230724086648234 8.796396095619151 11.134968670379028 1 -1 0
1123 3 3 0.053 4.458713702170059 9.78396241584921 9.447464488206137 1 -1 0
1120 3 1 -0.159 4.218786753056174 10.6755563498606 8.82050652696765 1 -1 0
1136 3 3 0.053 7.314318731828951 9.171829741307974 12.589910926752644 1 -1 0
3499 9 3 0.053 4.045654962989497 11.324000093798833 12.5707289123561 1 1 0
1129 3 3 0.053 7.536585780563905 10.71651152619096 10.664091935167285 1 -1 0
1119 3 3 0.053 5.933412556589268 11.659622460827396 9.488587685151511 1 -1 0
3496 9 6 -0.13 4.4500687949904885 13.381008639442303 11.217281802100388 1 1 0
3491 9 3 0.053 5.661144149731575 14.254056780749856 13.044122722573874 1 1 0
1122 3 3 0.053 3.540546821357183 11.413270025276649 9.315226027300985 1 -1 0
1128 3 2 0.012 8.45568810048961 10.377465306807181 10.142000934805473 1 -1 0
3498 9 3 0.053 3.8722244214363184 12.82846679703115 13.463460777935701 1 1 0
133 1 3 0.053 9.485172195214806 8.937602231540996 13.859133604796558 0 1 0
808 3 2 0.012 13.133551771085454 9.330091897725158 11.381622765322122 0 -1 0
806 3 3 0.053 12.906963715182188 9.201967407481039 9.203785135605212 0 -1 0
805 3 1 -0.159 13.700131368849371 9.346426935795378 9.915071984826092 0 -1 0
1130 3 1 -0.159 9.578289059504076 11.177303763132075 10.810482421667714 1 -1 0
1133 3 3 0.053 9.647947631607842 12.31511865518941 10.664486351870739 1 -1 0
1131 3 3 0.053 9.398175179358143 10.989048828581033 11.870121516893526 1 -1 0
1205 3 3 0.053 14.250620328522416 10.30065821203873 9.725141256504948 0 -1 0
809 3 3 0.053 12.129423363579711 9.884636364899698 11.3437632517843 0 -1 0
1132 3 3 0.053 10.551299822528991 10.75759241031685 10.522703894484895 1 -1 0
817 3 3 0.053 12.96118690655715 12.268438646123247 11.704958234435527 0 -1 0
815 3 1 -0.041 13.120805886952247 11.924380871626552 12.76033377940924 0 -1 0
816 3 3 0.053 12.094102509156782 11.69943834320192 13.160944450560704 0 -1 0
818 3 2 0.012 13.764759716130591 13.047768797924915 13.5629788829021 0 -1 0
814 3 6 -0.13 14.189799857534634 10.462743844067935 12.44865506960417 0 -1 0
820 3 1 -0.159 12.731883790844119 14.159298589971893 13.868070460219977 0 -1 0
3947 10 3 0.053 18.097820858829333 9.998389197837412 8.652811204061862 1 2 1
722 2 6 -0.13 17.06037541411993 8.910935661984688 11.75219384350408 -1 0 0
725 2 3 0.053 18.701754310938483 9.533515820808928 13.536427445001522 -1 0 0
824 3 6 -0.13 15.224116363798574 13.657359867962523 12.682403361077435 0 -1 0
825 3 1 -0.041 16.267998702063178 14.374618432514973 13.98484598339249 0 -1 0
723 2 1 -0.041 18.335831462291733 10.054893881947901 12.624661792081293 -1 0 0
724 2 3 0.053 17.604320710333297 10.869045603643452 12.876779669755408 -1 0 0
726 2 2 0.012 19.46056891277566 10.690172633092304 11.810349486990624 -1 0 0
727 2 3 0.053 19.1484127828338 10.946417214196599 10.769180971922726 -1 0 0
728 2 1 -0.159 19.915601856944125 11.858612746760027 12.669319620782312 -1 0 0
730 2 3 0.053 19.062512329794927 12.602655795282443 12.844917275675005 -1 0 0
729 2 3 0.053 20.65918926595021 12.49805417833032 12.148528129569533 -1 0 0
731 2 3 0.053 20.336814060628576 11.510372974204914 13.680945641764678 -1 0 0
732 2 6 -0.13 20.86480361519661 9.495833523094873 11.672984455979753 -1 0 0
2186 6 1 -0.159 8.296817395921245 19.606688683270306 12.831238773339479 0 1 0
3473 9 3 0.053 7.714604449737368 18.005175387550715 9.325531194965954 1 1 0
3494 9 3 0.053 3.5918907963184514 16.186790440782218 11.999513888723454 1 1 0
3486 9 6 -0.13 7.46368054809688 14.863001695910457 10.50204092629477 1 1 0
3370 9 2 0.012 3.2998046638826124 19.814398874502814 12.183382297683632 1 1 0
3490 9 2 0.012 5.080584045750416 14.718416323838108 12.255348309304436 1 1 0
3492 9 1 -0.159 3.992924227504479 15.579305474621323 12.831669916135699 1 1 0
2188 6 3 0.053 8.301709352603147 18.67977191967821 12.381223674496889 0 1 0
3489 9 3 0.053 5.560399632317369 16.366764450731374 10.720291252045527 1 1 0
3493 9 3 0.053 4.404871273010357 16.33701259479492 13.489230021584778 1 1 0
3487 9 1 -0.041 6.04890740360981 15.6529733607634 11.461871700432793 1 1 0
3375 9 3 0.053 4.9305250692010585 18.90084210793324 13.408393232634634 1 1 0
3372 9 1 -0.159 4.454727432640377 19.89225773439153 13.161224526977872 1 1 0
3488 9 3 0.053 6.4997524660352735 16.32320188559012 12.185954135342953 1 1 0
3481 9 3 0.053 8.516602621893544 17.017891475921214 10.865245897861026 1 1 0
3484 9 3 0.053 8.454006777863635 15.9764517834307 13.050196378253094 1 1 0
3376 9 6 -0.13 4.048387145838349 19.130310554572254 10.665685748393843 1 1 0
3495 9 3 0.053 3.1518095950288982 15.042046579659212 13.307845386379276 1 1 0
2189 6 3 0.053 7.327262199950437 19.929776535507315 13.232854825718446 0 1 0
3470 9 2 0.012 9.759804628049014 18.21373049170178 8.682745270220597 1 1 0
823 3 3 0.053 12.356047227255786 14.621174411446862 12.967278690161136 0 -1 0
3479 9 3 0.053 10.336447548154174 14.673028847811322 9.958591503856029 1 1 0
3483 9 3 0.053 9.195490028304254 14.489027446144794 12.555383493050188 1 1 0
3480 9 2 0.012 8.95151295068289 15.94950300365029 10.959635568811626 1 1 0
3471 9 3 0.053 10.096795968965392 18.304202910228284 9.711006757747597 1 1 0
3477 9 1 -0.041 10.085397728103683 15.718690964536407 10.037892413101353 1 1 0
3478 9 3 0.053 10.967402366876962 16.13363426066055 10.424687836892172 1 1 0
3482 9 1 -0.159 9.314655856212317 15.567244429441246 12.380964259280988 1 1 0
3485 9 3 0.053 10.269338692601814 15.906875989354297 12.802181396541362 1 1 0
2178 6 3 0.053 12.826346934903729 17.424993243442174 11.750990053805511 0 1 0
2176 6 1 -0.159 13.70100180206448 17.75559001494354 12.272962110589045 0 1 0
2179 6 3 0.053 13.927270786103856 17.092392176579818 13.099205756209836 0 1 0
2174 6 2 0.012 13.604558435006908 19.15028055427108 12.665566804963493 0 1 0
2182 6 3 0.053 10.59336063838073 18.130331300440112 12.772764431233863 0 1 0
2171 6 1 -0.041 13.401986583882504 20.05115782461897 11.379734155661609 0 1 0
2172 6 3 0.053 12.432766792160775 19.833426663154818 10.965853710076411 0 1 0
2181 6 1 -0.041 10.723092637188218 19.139222091545054 13.069408634195486 0 1 0
2173 6 3 0.053 14.17311120581308 19.781829005981074 10.618309090939707 0 1 0
2180 6 6 -0.13 12.322256820384998 19.331340131040314 13.95555412278883 0 1 0
2183 6 3 0.053 10.750556996647122 19.65421223317255 12.043252065698148 0 1 0
2184 6 2 0.012 9.449946220999383 19.838628530299115 13.7606801532923 0 1 0
847 3 3 0.053 19.83027674792539 15.821860248127786 10.101213923050516 0 -1 0
3441 9 3 0.053 15.644534900891921 14.685607138651854 9.67545538297535 1 1 0
2177 6 3 0.053 14.410562920748866 17.591036694216925 11.506247799534114 0 1 0
2175 6 3 0.053 14.574711309889546 19.326935515554617 13.21426629180428 0 1 0
841 3 3 0.053 18.81683939352247 19.95676003959454 9.507704843750158 0 -1 0
829 3 3 0.053 16.27040080838895 16.50903623260303 13.43257390743576 0 -1 0
835 3 1 -0.041 17.79921990672358 17.272080653055404 11.55281567290025 0 -1 0
834 3 6 -0.13 17.906197994038187 15.527921972268581 11.82469744237423 0 -1 0
837 3 3 0.053 18.112432528777695 17.75858261307362 12.502972795019824 0 -1 0
838 3 2 0.012 18.746990312379936 17.964324042334862 10.503310225987022 0 -1 0
839 3 3 0.053 18.67349897168762 17.40732578141243 9.564750533039838 0 -1 0
840 3 1 -0.159 18.339978296602347 19.410727491083158 10.329044315195892 0 -1 0
843 3 3 0.053 17.244257731029897 19.579306155819236 10.135460783597686 0 -1 0
828 3 2 0.012 17.04178011134422 15.636945506029194 13.480909027998784 0 -1 0
836 3 3 0.053 16.779708563419426 17.572101834834356 11.339451609663481 0 -1 0
842 3 3 0.053 18.658105870970303 19.9366068237653 11.219091207244007 0 -1 0
833 3 3 0.053 18.431532304414695 17.015566974165797 14.23002062289924 0 -1 0
846 3 3 0.053 20.797640237862765 15.650006659542557 11.604349705266813 0 -1 0
844 3 6 -0.13 20.46913744079615 17.914453662892612 10.963254626299976 0 -1 0
845 3 1 -0.041 20.69666759737408 16.153798814365643 10.61446485279825 0 -1 0
3374 9 3 0.053 5.281732140736212 20.45533961128414 12.676552466355961 1 1 0