LAMMPS data file via write_data, version 22 Jul 2025, timestep = 2000000, units = real

3620 atoms
4 atom types
3610 bonds
6 bond types
7200 angles
11 angle types
10710 dihedrals
13 dihedral types
4800 impropers
11 improper types

6.262466843679938 42.12302818630863 xlo xhi
6.262466843679938 42.12302818630863 ylo yhi
6.262466843679938 42.12302818630863 zlo zhi

Masses

1 12.01115
2 12.01115
3 35.453
4 1.00797

Pair Coeffs # lj/class2/coul/long/kk

1 0.054 4.01
2 0.054 4.01
3 0.2247 3.92
4 0.02 2.995

Bond Coeffs # class2/kk

1 1.53 299.67 -501.77 679.81
2 1.53 299.67 -501.77 679.81
3 1.79 194.319 0 0
4 1.101 345 -691.89 844.6
5 1.79 194.319 0 0
6 1.101 345 -691.89 844.6

Angle Coeffs # class2/kk

1 112.67 39.516 -7.443 -9.5583
2 107 61.1745 0 0
3 110.77 41.453 -10.604 5.129
4 112.67 39.516 -7.443 -9.5583
5 107 61.1745 0 0
6 110.77 41.453 -10.604 5.129
7 112.67 39.516 -7.443 -9.5583
8 110.77 41.453 -10.604 5.129
9 107.997 51.0987 0 0
10 107.997 51.0987 0 0
11 107.66 39.641 -12.921 -2.4318

BondBond Coeffs

1 0 1.53 1.53
2 0 1.53 1.79
3 3.3872 1.53 1.101
4 0 1.53 1.53
5 0 1.53 1.79
6 3.3872 1.53 1.101
7 0 1.53 1.53
8 3.3872 1.53 1.101
9 0 1.79 1.101
10 0 1.79 1.101
11 5.3316 1.101 1.101

BondAngle Coeffs

1 8.016 8.016 1.53 1.53
2 0 0 1.53 1.79
3 20.754 11.421 1.53 1.101
4 8.016 8.016 1.53 1.53
5 0 0 1.53 1.79
6 20.754 11.421 1.53 1.101
7 8.016 8.016 1.53 1.53
8 20.754 11.421 1.53 1.101
9 0 0 1.79 1.101
10 0 0 1.79 1.101
11 18.103 18.103 1.101 1.101

Dihedral Coeffs # class2/kk

1 0 0 0.0514 0 -0.143 0
2 0 0 0 0 0.15 0
3 0 0 0.0316 0 -0.1681 0
4 0 0 0.0514 0 -0.143 0
5 0 0 0.0316 0 -0.1681 0
6 0 0 0 0 0.15 0
7 0 0 0.0316 0 -0.1681 0
8 0 0 0 0 0.15 0
9 0 0 0.0316 0 -0.1681 0
10 0 0 0 0 -0.1 0
11 0 0 0 0 -0.1 0
12 -0.1432 0 0.0617 0 -0.1083 0
13 -0.1432 0 0.0617 0 -0.1083 0

AngleAngleTorsion Coeffs

1 -22.045 112.67 112.67
2 0 112.67 107
3 -16.164 112.67 110.77
4 -22.045 112.67 112.67
5 -16.164 112.67 110.77
6 0 112.67 107
7 -16.164 112.67 110.77
8 0 112.67 107
9 -16.164 112.67 110.77
10 0 107 110.77
11 0 107 110.77
12 -12.564 110.77 110.77
13 -12.564 110.77 110.77

EndBondTorsion Coeffs

1 -0.0732 0 0 -0.0732 0 0 1.53 1.53
2 0 0 0 0 0 0 1.53 1.79
3 0.2486 0.2422 -0.0925 0.0814 0.0591 0.2219 1.53 1.101
4 -0.0732 0 0 -0.0732 0 0 1.53 1.53
5 0.2486 0.2422 -0.0925 0.0814 0.0591 0.2219 1.53 1.101
6 0 0 0 0 0 0 1.53 1.79
7 0.2486 0.2422 -0.0925 0.0814 0.0591 0.2219 1.53 1.101
8 0 0 0 0 0 0 1.53 1.79
9 0.2486 0.2422 -0.0925 0.0814 0.0591 0.2219 1.53 1.101
10 0 0 0 0 0 0 1.79 1.101
11 0 0 0 0 0 0 1.79 1.101
12 0.213 0.312 0.0777 0.213 0.312 0.0777 1.101 1.101
13 0.213 0.312 0.0777 0.213 0.312 0.0777 1.101 1.101

MiddleBondTorsion Coeffs

1 -17.787 -7.1877 0 1.53
2 0 0 0 1.53
3 -14.879 -3.6581 -0.3138 1.53
4 -17.787 -7.1877 0 1.53
5 -14.879 -3.6581 -0.3138 1.53
6 0 0 0 1.53
7 -14.879 -3.6581 -0.3138 1.53
8 0 0 0 1.53
9 -14.879 -3.6581 -0.3138 1.53
10 0 0 0 1.53
11 0 0 0 1.53
12 -14.261 -0.5322 -0.4864 1.53
13 -14.261 -0.5322 -0.4864 1.53

BondBond13 Coeffs

1 0 1.53 1.53
2 0 1.53 1.79
3 0 1.53 1.101
4 0 1.53 1.53
5 0 1.53 1.101
6 0 1.53 1.79
7 0 1.53 1.101
8 0 1.53 1.79
9 0 1.53 1.101
10 0 1.79 1.101
11 0 1.79 1.101
12 0 1.101 1.101
13 0 1.101 1.101

AngleTorsion Coeffs

1 0.3886 -0.3139 0.1389 0.3886 -0.3139 0.1389 112.67 112.67
2 0 0 0 0 0 0 112.67 107
3 -0.2454 0 -0.1136 0.3113 0.4516 -0.1988 112.67 110.77
4 0.3886 -0.3139 0.1389 0.3886 -0.3139 0.1389 112.67 112.67
5 -0.2454 0 -0.1136 0.3113 0.4516 -0.1988 112.67 110.77
6 0 0 0 0 0 0 112.67 107
7 -0.2454 0 -0.1136 0.3113 0.4516 -0.1988 112.67 110.77
8 0 0 0 0 0 0 112.67 107
9 -0.2454 0 -0.1136 0.3113 0.4516 -0.1988 112.67 110.77
10 0 0 0 0 0 0 107 110.77
11 0 0 0 0 0 0 107 110.77
12 -0.8085 0.5569 -0.2466 -0.8085 0.5569 -0.2466 110.77 110.77
13 -0.8085 0.5569 -0.2466 -0.8085 0.5569 -0.2466 110.77 110.77

Improper Coeffs # class2/kk

1 0 0
2 0 0
3 0 0
4 0 0
5 0 0
6 0 0
7 0 0
8 0 0
9 0 0
10 0 0
11 0 0

AngleAngle Coeffs

1 0 0 0 107 110.77 107.997
2 0.1184 -1.3199 -1.3199 110.77 112.67 110.77
3 0 0 0 110.77 107 107.997
4 0.2738 -0.4825 0.2738 110.77 110.77 107.66
5 -1.3199 -1.3199 0.1184 112.67 110.77 110.77
6 0.2738 -0.4825 0.2738 110.77 110.77 107.66
7 0 0 0 107.997 107.997 107.66
8 -0.3157 -0.3157 -0.3157 107.66 107.66 107.66
9 0 0 0 112.67 107 107
10 -1.3199 -1.3199 0.1184 112.67 110.77 110.77
11 0 0 0 107 110.77 107.997

Atoms # full/kk

293 1 4 0.053 9.982692642547415 11.809421919265692 6.519164653872465 0 1 0
799 3 4 0.053 9.28885331911389 6.425602927075224 12.601961689135162 1 0 0
795 3 4 0.053 9.307684570160896 9.171659452405716 12.34627059573192 1 0 0
794 3 2 0.131 8.471790172030254 8.44265501406931 12.428912352622966 1 0 0
798 3 4 0.053 7.847993637243462 6.547185849256116 11.630896870131266 1 0 0
800 3 2 0.131 9.599928489453088 6.999012720604728 10.548399828829865 1 0 0
802 3 3 -0.184 11.208126944534433 7.679972828519912 10.81687234233068 1 0 0
797 3 1 -0.106 8.819600355934947 7.044574222289623 11.863384858897351 1 0 0
292 1 2 0.131 10.571275777724884 11.757080486858086 7.488072969320363 0 1 0
801 3 4 0.053 9.095921074477381 7.667384897969604 9.827466460000908 1 0 0
796 3 3 -0.184 7.383301673434463 9.197703317251749 11.255180234098026 1 0 0
294 1 3 -0.184 9.900582861599204 10.314583255480944 8.459948857685246 0 1 0
3618 10 3 -0.184 41.62777353203235 7.44400204459318 6.887536569371526 -1 1 1
290 1 4 0.053 11.266680516745016 12.705738257714005 9.275043468110452 0 1 0
295 1 1 -0.106 12.13517679051527 11.384216728914609 7.23665545112852 0 1 0
296 1 4 0.053 12.639757367396578 11.292151929177088 8.23059951740853 0 1 0
298 1 2 0.131 12.497174031033694 10.11834086147842 6.3684002828670705 0 1 0
2187 7 4 0.053 17.50593443989993 9.556618123141874 41.274530396179095 0 1 -1
299 1 4 0.053 12.164779349486876 9.17824704168175 6.869984545930514 0 1 0
1878 6 4 0.053 14.350067387406982 8.833390565566637 12.047573223562395 0 1 0
3068 9 2 0.131 15.973145198805975 6.64066111517663 8.35576100488239 0 1 1
1885 6 4 0.053 12.789596791016239 10.866701452076 11.419259811464105 0 1 0
3070 9 3 -0.184 14.547367251754945 7.665573634423568 8.929301438403332 0 1 1
1883 6 1 -0.106 13.787854342203818 11.312238060624583 11.503951196353599 0 1 0
1884 6 4 0.053 14.378623693476252 10.982319703152683 10.639199600249823 0 1 0
3073 9 4 0.053 17.155566035826165 8.307265861925895 7.4624960401850595 0 1 1
3071 9 1 -0.106 17.312645107758108 7.554372158102702 8.276214257131226 0 1 1
3076 9 3 -0.184 17.032084544415678 9.913325335410025 9.659482320878924 0 1 1
3078 9 4 0.053 17.10213061219676 7.234648563967993 10.96472215377934 0 1 1
3077 9 1 -0.106 17.9752688202273 7.72752648489644 10.774934282278485 0 1 1
3074 9 2 0.131 17.884189519072763 8.368676519451068 9.437622728657296 0 1 1
3079 9 4 0.053 18.04545270894893 8.603668631571034 11.42199660270781 0 1 1
297 1 4 0.053 12.58089626396894 12.28833772215437 6.754202743977231 0 1 0
2188 7 2 0.131 19.31563942197848 10.60987909946323 41.57742845817925 0 1 -1
2198 7 4 0.053 22.807462695210504 9.798259527704186 41.7528575392372 0 1 -1
3072 9 4 0.053 18.138603966520805 6.826508674739878 8.016590174260248 0 1 1
2193 7 4 0.053 20.641704715101785 8.80312811560496 41.807147600511286 0 1 -1
2191 7 1 -0.106 20.270784303728092 9.623651863511945 6.591579428537412 0 1 0
2197 7 1 -0.106 22.54235824865344 10.701344507417744 6.435669893101696 0 1 0
2192 7 4 0.053 19.588697905270557 9.200496342557557 7.335910853316752 0 1 0
2195 7 4 0.053 21.028800759587458 11.128093691985594 7.94737187100968 0 1 0
125 1 4 0.053 23.811185429829468 6.744096579017379 6.654548662854303 0 1 0
3075 9 4 0.053 18.901762304254653 8.693613707426733 9.154571735202657 0 1 1
2194 7 2 0.131 21.421075809676964 10.300949091737444 7.351365091039005 0 1 0
3081 9 4 0.053 20.083298979897528 7.375224170603859 10.860451470860014 0 1 1
2196 7 3 -0.184 22.17478274679606 8.950401534908325 8.35901297195252 0 1 0
2200 7 2 0.131 23.77856311763653 11.3038042385563 7.092868609702474 0 1 0
882 3 4 0.053 29.36879300775983 41.994365910797235 8.910894693637552 0 -1 0
2215 7 1 -0.106 28.802745801688992 12.613343016969479 8.746995789050942 0 1 0
879 3 4 0.053 30.118605388689783 41.46562832263033 11.134275348882328 0 -1 0
2217 7 4 0.053 29.864503126102424 12.504300832252108 9.036692088827811 0 1 0
2207 7 4 0.053 25.9883044871074 13.048915033735778 7.288517055672704 0 1 0
2226 7 3 -0.184 25.087016396839324 12.56701303316904 10.985381550688512 0 1 0
2222 7 4 0.053 27.854299163692843 11.741128171597428 11.048421121843447 0 1 0
2204 7 4 0.053 25.21693491934072 10.436892864139379 41.70259345576481 0 1 -1
1775 5 4 0.053 24.955470360275463 6.308002756079034 11.475526314796383 0 1 0
2201 7 4 0.053 24.134946095044402 10.677086164535307 7.96325395093932 0 1 0
2203 7 1 -0.106 24.957797315851398 11.478742640736579 41.98809282503451 0 1 -1
1774 5 4 0.053 24.40659623747464 7.813914757364557 12.26043934760635 0 1 0
2206 7 2 0.131 26.21210719179947 12.135700092418372 6.716406482660472 0 1 0
2210 7 4 0.053 26.787214663093977 10.109029102751437 7.332431730224801 0 1 0
2212 7 2 0.131 28.335408798534317 11.223414789532423 8.316693403496817 0 1 0
1778 5 3 -0.184 26.836321871629362 8.377555445614503 10.961580544248823 0 1 0
2213 7 4 0.053 28.421923566239858 10.476150609755587 9.122052104472528 0 1 0
2211 7 4 0.053 26.23747908698841 11.158459150639509 8.616919841589812 0 1 0
2209 7 1 -0.106 26.911497430402584 11.106331627353846 7.73554307935056 0 1 0
2214 7 3 -0.184 29.494069960323632 10.6867207961502 7.076999417492232 0 1 0
1446 4 3 -0.184 34.974443580413904 6.600925344222526 7.69478251150444 0 1 0
878 3 2 0.131 30.931367387119078 41.797542740546604 10.44143948133446 0 -1 0
867 3 4 0.053 35.546020942210134 41.91253925516766 10.306629803149997 0 -1 0
883 3 4 0.053 31.06284855552971 42.08095101715528 8.424378892660586 0 -1 0
873 3 4 0.053 32.94305655131486 6.452115296960021 12.295098276506167 0 0 0
868 3 3 -0.184 35.5686003023511 7.463807324601362 12.288087976630415 0 0 0
1448 4 4 0.053 34.368024159561045 8.077882609642518 41.81852456321742 0 1 -1
1444 4 1 0.078 34.83535685211662 8.19663160895911 6.933058103880647 0 1 0
1445 4 4 0.053 34.14903677714352 8.816628054914098 7.495980261274529 0 1 0
1793 5 4 0.053 30.784026373201424 11.709793036701111 12.083838977214844 0 1 0
252 1 3 -0.184 33.325211874856365 11.51180271636744 7.021719896402329 -1 1 0
880 3 3 -0.184 31.12086726078904 7.725165769289536 10.614916226186248 0 0 0
1441 4 1 -0.106 36.30652892741339 8.720700105990396 6.917330878545382 0 1 0
1440 4 3 -0.184 35.91666849564831 10.292857711344917 9.081191880893785 0 1 0
865 3 4 0.053 37.79642991745146 6.303897979226882 11.729505761113078 0 0 0
1442 4 4 0.053 37.00231105511881 8.039054463519504 6.339478620002387 0 1 0
1439 4 4 0.053 36.83389584918724 8.161330513789721 8.963005336455424 0 1 0
1426 4 2 0.131 39.72052963594196 9.012854855692371 11.906619379992044 0 1 0
1427 4 4 0.053 40.51965012665621 9.713541726513341 11.82124291041495 0 1 0
1438 4 2 0.131 36.88332116768669 9.02358748005646 8.311544235257637 0 1 0
1437 4 4 0.053 38.32475413364746 10.393811136512262 7.475925019308959 0 1 0
1435 4 1 -0.106 38.33707442869273 9.553067160380147 8.270911052631185 0 1 0
1436 4 4 0.053 38.89999529997458 8.734278538387933 7.83562020374788 0 1 0
1434 4 3 -0.184 40.74133022333703 10.440180652760636 9.029555069895716 0 1 0
1433 4 4 0.053 38.64469689896991 10.66494740026076 10.062608908230567 0 1 0
1432 4 2 0.131 39.12157123027331 9.84920243679193 9.524807280406867 0 1 0
1430 4 4 0.053 38.347204036339996 7.9362237462776095 10.58206288200802 0 1 0
1431 4 4 0.053 39.87374231559922 7.9324617223603635 10.011020336599074 0 1 0
1429 4 1 -0.106 39.251073228616946 8.62604351814731 10.50877613317462 0 1 0
1888 6 3 -0.184 12.614338025074288 13.427736542971317 12.906852848666631 0 1 0
41 1 4 0.053 12.666771342881734 17.799355659443776 7.1074219075324265 0 0 0
285 1 4 0.053 9.357680202821593 12.89405358436505 11.12996406807058 0 1 0
738 3 4 0.053 9.680173223880898 17.7565543023886 10.705856976813259 1 0 0
287 1 4 0.053 8.33434574371152 12.425710619930971 9.006178285372055 0 1 0
278 1 4 0.053 7.233860368824045 15.976824709269746 10.320849537816729 0 1 0
289 1 1 -0.106 10.432768621466515 12.95984786349291 8.515641052493857 0 1 0
286 1 2 0.131 9.03067151600058 13.291255280591535 9.094265911518676 0 1 0
288 1 3 -0.184 8.345955017797976 14.633679285593024 8.161498714081123 0 1 0
740 3 2 0.131 10.96104245793755 17.578767362850357 12.344963286155215 1 0 0
291 1 4 0.053 10.83513488474729 13.817106600158926 7.953779806009486 0 1 0
280 1 2 0.131 7.421162935360168 13.884898054456308 11.027371331307888 0 1 0
283 1 1 -0.106 8.95229395604977 13.767319856213625 10.574746968324162 0 1 0
284 1 4 0.053 9.532584801144402 14.67276938432303 10.862054670660653 0 1 0
279 1 4 0.053 7.467049199118055 15.736076168638496 11.982858771056055 0 1 0
741 3 4 0.053 11.495138399938906 16.837452505321203 11.792760622654441 1 0 0
1886 6 2 0.131 13.446968683524162 12.804396625896683 11.463865090066426 0 1 0
748 3 3 -0.184 14.146166823905743 16.719290164997503 12.901817388012812 1 0 0
1899 6 4 0.053 17.536101278833144 14.14765966292641 12.162176772399507 0 1 0
1893 6 4 0.053 16.168230565386786 12.302681883378888 10.443988193576104 0 1 0
1890 6 4 0.053 15.215929559709991 13.659283881490524 12.257610061125176 0 1 0
42 1 3 -0.184 12.360461464783235 16.27569584453814 8.746736408666285 0 0 0
44 1 4 0.053 15.281717321081363 17.442812338781145 7.04668874693225 0 0 0
1889 6 1 -0.106 14.72787645870123 13.685472808897032 11.280607254116328 0 1 0
1892 6 2 0.131 15.70627404042929 13.245685686883373 10.191488572994958 0 1 0
43 1 1 -0.106 14.6065824212613 17.252123448459074 7.861103021726895 0 0 0
1887 6 4 0.053 12.805789255492687 12.928385100733493 10.629502663763194 0 1 0
1897 6 4 0.053 16.475215879444505 15.15989338327868 9.798245789117226 0 1 0
1895 6 1 -0.106 16.84746403527578 14.218362725250337 10.052289666883834 0 1 0
1894 6 3 -0.184 14.881238652544765 13.214993538952637 8.614520974593908 0 1 0
50 1 4 0.053 16.532334957273253 17.83630942835911 9.95131945595392 0 0 0
1896 6 4 0.053 17.387611057689877 13.925540861903865 9.086152191289239 0 1 0
1898 6 2 0.131 17.915804889207784 14.225797969601023 11.167624330908122 0 1 0
40 1 2 0.131 13.286792593703833 16.886748156158554 7.3469457076370945 0 0 0
45 1 4 0.053 14.906253650760117 16.397431258660287 8.419388003615339 0 0 0
1891 6 4 0.053 14.392489542661455 14.668185670182956 11.033427815268007 0 1 0
1970 6 2 0.131 21.202698431189642 17.840068383501475 7.6234439128994405 0 1 0
1977 6 4 0.053 20.44628391390082 15.093373106711228 6.96961866615096 0 1 0
1965 6 4 0.053 22.623514707586477 18.10140510486587 10.284881738387629 0 1 0
1901 6 1 -0.106 18.845790608244148 15.39041190852672 11.146892101256773 0 1 0
1900 6 3 -0.184 18.850993895404173 12.755326464087393 10.772406717734551 0 1 0
1969 6 4 0.053 21.291275828122885 16.39037115754789 9.239601048197981 0 1 0
1975 6 4 0.053 19.282423116420183 16.93115576500919 8.092960526327298 0 1 0
1903 6 4 0.053 19.735346158641647 15.132485243205856 10.484984475407384 0 1 0
1964 6 2 0.131 23.076103109854127 17.618003022333667 9.417206555174749 0 1 0
1967 6 1 -0.106 22.047939444473563 16.925722235866857 8.542949742055892 0 1 0
1973 6 1 -0.106 19.86641136407642 17.15201211997848 7.130656067614493 0 1 0
1968 6 4 0.053 22.517239443894248 16.147209932388883 7.917025790126709 0 1 0
1966 6 3 -0.184 23.84054723158602 16.313524018733 10.264072538849627 0 1 0
1971 6 4 0.053 21.91970028900602 18.160783257197178 6.865120313034292 0 1 0
1902 6 4 0.053 18.375210915258574 16.250347435830175 10.57373676083706 0 1 0
2190 7 3 -0.184 18.465990870091588 11.601984441933709 6.847239935366973 0 1 0
1909 6 4 0.053 21.211997339381075 16.300610254184715 12.129469771967129 0 1 0
2202 7 3 -0.184 23.250143820710186 12.912552750421579 7.732134586594704 0 1 0
1976 6 2 0.131 20.015123033286322 15.884628944397328 6.298874064269985 0 1 0
1974 6 4 0.053 19.36322980638458 17.98619817826872 6.62070932683843 0 1 0
1908 6 4 0.053 20.06789057381104 17.584650380244067 11.59217087581645 0 1 0
1961 6 1 -0.106 24.196224105837555 18.43850074111608 8.800584411413913 0 1 0
2220 7 3 -0.184 28.784775364847587 14.961461755874753 9.762625859473555 0 1 0
1954 6 3 -0.184 27.904338583076278 17.65241398299736 8.182512323261792 0 1 0
2218 7 2 0.131 27.904450717964796 13.384645551488997 9.654097417935612 0 1 0
1951 6 4 0.053 29.488539286650745 17.911696365768222 10.155769848222109 0 1 0
2219 7 4 0.053 26.89269100469573 13.402691684677947 9.180335070869631 0 1 0
2216 7 4 0.053 28.74434222968349 13.197528670628186 7.793114264650174 0 1 0
2223 7 4 0.053 28.685746156884015 13.15515544137509 11.667954650576263 0 1 0
2225 7 4 0.053 26.538648415531714 14.372053511510074 11.7819478798628 0 1 0
1953 6 4 0.053 26.857056795476463 17.640786319048118 10.338084902456687 0 1 0
1962 6 4 0.053 24.936499195100932 17.70448696456376 8.3773391340773 0 1 0
2221 7 1 -0.106 27.762217290761786 12.873039921291308 11.084351196461967 0 1 0
2224 7 2 0.131 26.490326599970217 13.305994396110378 11.807885730002813 0 1 0
585 2 1 -0.106 32.40040284327077 18.374390580357378 6.4479995478979255 -1 0 0
584 2 3 -0.184 31.667094417194964 15.768703683242663 6.507766116852018 -1 0 0
1806 5 1 0.078 32.98238287219627 15.625219245352467 11.28642628778579 0 1 0
257 1 4 0.053 35.36529036775687 13.2463986097103 7.959376497344054 -1 1 0
260 1 4 0.053 35.131348838655015 15.657457884989242 7.383028683215297 -1 1 0
1803 5 1 -0.106 32.59063161705859 14.257616585227083 10.73144412980436 0 1 0
1804 5 4 0.053 32.58502235391987 14.379313873222783 9.64932446401517 0 1 0
259 1 1 -0.106 36.059400824594135 15.07795304715272 7.215046684623427 -1 1 0
1800 5 2 0.131 33.30503456287744 13.023548069191058 11.302789287518946 0 1 0
1802 5 3 -0.184 35.0665299409757 13.021515337163894 10.970705494072641 0 1 0
1801 5 4 0.053 32.94757217315643 12.099395674339704 10.789830275867141 0 1 0
263 1 4 0.053 36.608867575482506 14.903064846734067 9.253932052613393 -1 1 0
1808 5 3 -0.184 32.082251650840576 16.892568188146768 10.440563163615774 0 1 0
1810 5 4 0.053 34.08808604413566 15.854424566901782 11.23813126417422 0 1 0
256 1 2 0.131 35.698820580325666 13.595526840179964 6.972178547285014 -1 1 0
1805 5 4 0.053 31.554236101352334 14.18716137187604 10.986353791850599 0 1 0
264 1 3 -0.184 36.890231047395034 17.193804239645836 8.553631667057909 -1 1 0
262 1 2 0.131 37.00449011015748 15.391692257925008 8.344147618610753 -1 1 0
2764 8 4 0.053 39.47770168007472 18.407960537120655 7.156867287571095 -1 0 0
266 1 4 0.053 39.18670396027597 16.06210721357391 7.873405597327203 -1 1 0
267 1 4 0.053 38.84875663375562 14.317129462735966 7.617141601965403 -1 1 0
271 1 1 -0.106 40.688722729191205 15.222871028184882 9.740816910978632 -1 1 0
269 1 4 0.053 38.64373046654227 15.694369111070257 10.370441099614707 -1 1 0
270 1 3 -0.184 38.896204619185745 13.283581971922978 10.201999085824145 -1 1 0
268 1 2 0.131 39.15310516564951 14.997536473649474 9.741808505943933 -1 1 0
275 1 4 0.053 40.777565812924934 14.889515774579946 11.876526747946812 -1 1 0
272 1 4 0.053 41.20609601636247 14.318878338199399 9.339762493014216 -1 1 0
273 1 4 0.053 40.965691863616335 16.031990301110653 9.054755191179483 -1 1 0
265 1 1 -0.106 38.58612353335094 15.129308617704714 8.316351215236946 -1 1 0
276 1 3 -0.184 40.978954156037915 17.341047161798848 11.468516386001458 -1 1 0
274 1 2 0.131 41.2752253454104 15.535437923708761 11.131157401019191 -1 1 0
281 1 4 0.053 6.783025668176016 13.235992358656265 10.481557630054143 0 1 0
277 1 1 -0.106 6.921500772972678 15.284176836714444 11.149814911711763 0 1 0
407 2 4 0.053 41.171727544386876 23.467136745590185 7.418542683853347 -1 0 1
730 3 3 -0.184 8.794848598013557 20.334806516572904 7.028532576628147 1 0 0
1085 3 4 0.053 8.814361626824164 21.957008441972494 9.713303614086938 1 0 0
726 3 4 0.053 8.180697239246165 20.599636571852045 10.82603672264461 1 0 0
729 3 4 0.053 8.562168189196957 18.948468956350226 8.893635175410763 1 0 0
728 3 2 0.131 9.009274313713977 19.94939231090723 8.743172569023267 1 0 0
731 3 1 -0.106 10.550172628493737 19.736123654458055 9.01193421660641 1 0 0
725 3 1 -0.159 8.344163114923553 20.959642887878488 9.743875155970537 1 0 0
739 3 4 0.053 9.420370076384394 19.01348827920465 11.959879505517375 1 0 0
2710 8 4 0.053 12.024548181837513 22.571549474949503 7.429205260403115 0 0 0
2709 8 1 -0.106 12.096490937370758 23.652093766197304 7.241718171335442 0 0 0
732 3 4 0.053 11.046896031041761 20.61254849241189 8.642810765187804 1 0 0
734 3 2 0.131 11.005147334848521 19.494626885836794 10.514007196554248 1 0 0
736 3 3 -0.184 11.047950028739514 21.069275297265502 11.363728422935557 1 0 0
2704 8 4 0.053 13.06479783595923 22.98711409214193 9.682597343726556 0 0 0
733 3 4 0.053 10.833382124462446 18.831548074072728 8.387408233503322 1 0 0
737 3 1 -0.106 10.186491612623572 18.479765507656367 11.351979116665154 1 0 0
735 3 4 0.053 12.04320266939566 19.11628019100732 10.439802393892593 1 0 0
745 3 4 0.053 12.367725266666042 19.15591428462258 12.97761551930312 1 0 0
1490 5 3 -0.184 16.988016004418824 23.757266122737878 7.80660820617992 0 0 0
2712 8 2 0.131 13.316648304187295 23.85558364466944 6.372734969933788 0 0 0
2705 8 4 0.053 14.006685341750433 24.37087571425497 9.325687370148831 0 0 0
2713 8 4 0.053 14.302225640324238 23.638556203611337 6.874682675272436 0 0 0
52 1 2 0.131 16.01316202845652 19.953256696639116 10.462146572563713 0 0 0
53 1 4 0.053 15.81359959275431 20.899732747288702 9.867267471395591 0 0 0
49 1 1 -0.106 15.973480501523106 18.74203009113201 9.450641249896742 0 0 0
48 1 3 -0.184 14.012913928067809 19.8933661867956 7.916329389048791 0 0 0
51 1 4 0.053 16.62197113396505 19.011843938222867 8.511422363233955 0 0 0
55 1 1 -0.106 17.36795953083312 19.952097629419143 11.163041807015073 0 0 0
54 1 3 -0.184 14.719529129785863 19.918886229337083 11.783321534534139 0 0 0
59 1 4 0.053 16.793760675486958 21.728551379792002 12.291739273431835 0 0 0
57 1 4 0.053 17.599546514302133 18.931436229843797 11.58017445379552 0 0 0
58 1 2 0.131 17.572333268488954 20.92980900142943 12.262820372854167 0 0 0
56 1 4 0.053 18.19387711129629 19.987017658944772 10.392031330873124 0 0 0
2699 8 4 0.053 13.489005270960858 23.249568906623473 12.342484608919111 0 0 0
46 1 2 0.131 14.599384375332223 18.467320350010084 8.825568076641279 0 0 0
47 1 4 0.053 13.77161265723742 18.350574406595484 9.66954264393499 0 0 0
1963 6 4 0.053 23.881388350367033 19.072432394800895 7.93255019495795 0 1 0
72 1 3 -0.184 20.6686529930175 23.188110654705063 8.180434792998271 0 0 0
67 1 1 -0.106 20.524482011511893 23.234257254475775 11.036759646052698 0 0 0
65 1 4 0.053 18.8496084648281 22.19040175707032 10.028511145364961 0 0 0
68 1 4 0.053 21.229852156027682 22.403738926839875 11.115658345153452 0 0 0
64 1 2 0.131 19.121970880463067 22.606656651118325 11.044052851803416 0 0 0
553 2 4 0.053 23.639837421271192 23.958280382706292 6.3228562644364885 -1 0 0
1960 6 3 -0.184 24.04906408800907 20.885766968698903 10.01240647212877 0 1 0
1972 6 3 -0.184 20.708594557058994 19.371661698563404 8.5146026493689 0 1 0
69 1 4 0.053 20.738899805011066 23.709154990250315 11.926078186521403 0 0 0
62 1 4 0.053 19.763359545669402 20.885595415492023 12.232939123986377 0 0 0
61 1 1 -0.106 18.92174986433314 21.667753796582303 12.218174772396424 0 0 0
1959 6 4 0.053 24.894979849677384 18.911648325809175 10.85322590176696 0 1 0
551 2 4 0.053 25.22915424387591 22.879719669294683 7.780530929920029 -1 0 0
1958 6 2 0.131 24.91954891819183 19.343037220222904 9.846345145622713 0 1 0
1952 6 2 0.131 27.433680125119444 18.372978764537507 9.720454910920429 0 1 0
1949 6 1 -0.106 28.787475410491204 18.78877470981884 10.44415651275089 0 1 0
550 2 4 0.053 25.50574362184263 24.625332612438083 7.809566536309274 -1 0 0
546 2 2 0.131 27.20617656707037 23.597615508210687 6.837723583757133 -1 0 0
543 2 1 -0.106 28.025998705193803 23.96715209959566 8.077458109097117 -1 0 0
1946 6 2 0.131 28.77650972207975 18.778866997557554 12.01387019626243 0 1 0
536 2 3 -0.184 29.6013602616695 22.362632820307685 10.916564229437865 -1 0 0
1950 6 4 0.053 29.24413575941015 19.65896205992366 10.00152158475995 0 1 0
545 2 4 0.053 27.812139824588627 23.321004318155556 8.922717506498156 -1 0 0
549 2 1 -0.106 25.633610195310954 23.727990772489466 7.129245838799435 -1 0 0
541 2 4 0.053 29.72650312509409 23.17339469076365 7.04593872813748 -1 0 0
1956 6 4 0.053 26.74092989283398 20.343702722297337 10.49496873024072 0 1 0
540 2 2 0.131 29.497686266419308 24.041608445603117 7.739844710425091 -1 0 0
1955 6 1 -0.106 26.402166837265394 19.637537243930083 9.625062215565887 0 1 0
1957 6 4 0.053 26.526764376436283 20.1877382712619 8.654936527526306 0 1 0
598 2 4 0.053 35.30512933236586 23.208562946716675 6.513283793345103 -1 0 0
534 2 2 0.131 30.82477888134267 22.901662266744992 9.654184348417251 -1 0 0
535 2 4 0.053 30.853553693230246 22.025013486954514 9.019295347766377 -1 0 0
587 2 4 0.053 32.518035932857345 18.474738528645457 7.553025688643499 -1 0 0
593 2 4 0.053 33.667507684821295 20.815176330951374 7.380858671289125 -1 0 0
530 2 3 -0.184 32.85855507806685 20.557707459984528 9.898813258832934 -1 0 0
528 2 2 0.131 32.72117362262494 21.769370182127542 11.17446747764956 -1 0 0
527 2 4 0.053 34.565337455628246 20.940908963702654 11.873572860051574 -1 0 0
525 2 1 -0.106 34.068991192252525 21.881673351663867 11.933002546134075 -1 0 0
526 2 4 0.053 34.71198192857231 22.48436321847777 11.254921295437226 -1 0 0
596 2 3 -0.184 32.6254998332838 23.077637854101393 41.77450011370117 -1 0 -1
529 2 4 0.053 31.968286259742612 21.38959048725527 11.857248325377169 -1 0 0
590 2 3 -0.184 30.87376204481339 20.553629353261314 6.916960083712037 -1 0 0
531 2 1 -0.106 32.08146553124286 23.05491622799988 10.452695112361935 -1 0 0
394 2 4 0.053 39.69341017522325 23.20319443032268 11.210709317381525 -1 0 1
2779 8 4 0.053 38.327386899930005 17.90305322593108 11.738621058235577 -1 0 0
2773 8 4 0.053 36.8026203037833 19.92457310647819 9.824888981904174 -1 0 0
2771 8 4 0.053 39.27328507404874 19.069210532942492 9.308119476633042 -1 0 0
2775 8 1 -0.106 38.12375483394389 20.062064665944618 11.61797155065188 -1 0 0
2768 8 3 -0.184 38.66442524641427 21.917026060188913 7.037432932153829 -1 0 0
2766 8 2 0.131 38.49686839548492 20.23514378007642 7.656769474125874 -1 0 0
2763 8 1 -0.106 39.40841114612052 19.410741487670574 6.766080770831963 -1 0 0
2770 8 4 0.053 39.71546290966554 20.731385155012227 9.459453856276982 -1 0 0
406 2 4 0.053 39.98209794351344 24.458818940992163 6.459676623088306 -1 0 1
2765 8 4 0.053 40.41497675155592 19.84708620404123 6.718825108279114 -1 0 0
2767 8 4 0.053 37.41631370234933 19.96395238250972 7.552083019668904 -1 0 0
2772 8 2 0.131 37.72309994159156 20.408001218889595 10.181730503502683 -1 0 0
2774 8 3 -0.184 37.24243189703798 22.152543701290668 10.055592444245924 -1 0 0
2769 8 1 -0.106 38.87989224413523 20.05985549407806 9.184187190118053 -1 0 0
391 2 4 0.053 41.63038501795151 21.65635981394538 12.073685707464579 -1 0 1
2777 8 4 0.053 39.229928290152266 20.280562901440828 11.698259891192674 -1 0 0
2776 8 4 0.053 37.59745994633687 20.825844102471727 12.271110602684915 -1 0 0
397 2 4 0.053 41.39677826573859 22.871857688694643 9.669810908071193 -1 0 1
727 3 4 0.053 7.344600058067802 21.010320409355554 9.308184763598513 1 0 0
2632 8 4 0.053 10.714599316511386 28.094007254499136 7.5889460699907865 0 0 0
2627 8 4 0.053 6.974067452240192 28.67877709992555 7.29323627237679 0 0 0
398 2 3 -0.184 7.149212257840301 24.43226973499231 10.423161065970113 0 0 1
2638 8 4 0.053 10.958280545624715 29.467540026782896 9.988561148884177 0 0 0
2626 8 4 0.053 7.061693765159241 27.347326867287496 41.95893973249313 0 0 -1
2634 8 2 0.131 9.140809404520937 28.87012869235576 9.009488945800305 0 0 0
2633 8 4 0.053 9.665722713033531 26.926914473786354 8.139501154412404 0 0 0
2631 8 1 -0.106 9.62117083027917 27.977350937334524 7.765753852504774 0 0 0
2635 8 4 0.053 8.164283050259769 28.46713877375115 9.292060637153455 0 0 0
2637 8 1 -0.106 10.119216562845367 28.792766552408544 10.26953283412595 0 0 0
2639 8 4 0.053 10.46890351272406 27.797966002701745 10.396042778768894 0 0 0
2711 8 4 0.053 11.280078962531356 23.930792160455248 6.526969453912358 0 0 0
2628 8 2 0.131 8.975336821879072 28.296688888508392 6.390565574342601 0 0 0
2706 8 2 0.131 11.987223547950254 24.507578889327565 8.557964408168138 0 0 0
2707 8 4 0.053 12.08235401509123 25.53505634526551 8.26534433848718 0 0 0
2708 8 3 -0.184 10.334293797344934 24.241664087631957 9.149053499229515 0 0 0
2625 8 1 -0.106 7.414792348128292 28.379146601787333 6.324946782182874 0 0 0
2629 8 4 0.053 9.451959713646612 29.35154179209196 41.99197739371466 0 0 -1
2640 8 2 0.131 9.46604202680073 29.399120874705666 11.52310207955173 0 0 0
2701 8 4 0.053 11.817065273175022 24.605828922267932 11.437415377972334 0 0 0
1498 5 4 0.053 15.411932624284074 28.43155381438761 9.898102210752123 0 0 0
1496 5 3 -0.184 14.866573317881063 27.98600524238755 7.387383798124545 0 0 0
2698 8 4 0.053 14.816358863814369 23.91146657912562 11.476725892249036 0 0 0
1497 5 1 -0.106 16.429977636918476 28.622093065725913 9.463663435056377 0 0 0
1494 5 2 0.131 16.482567839111244 27.83116241223981 8.125141219894934 0 0 0
2700 8 2 0.131 12.865217554181024 24.796172489286647 11.08527447261973 0 0 0
1495 5 4 0.053 17.297042052440354 28.30693642373606 7.495449253039725 0 0 0
1492 5 4 0.053 16.181657399700683 26.150274548779162 9.244808716647922 0 0 0
1489 5 4 0.053 16.063037495607237 25.46085278653383 6.6093696561759385 0 0 0
2703 8 1 -0.106 13.065859619112778 24.139970735702285 9.655684238285598 0 0 0
1491 5 1 -0.106 16.87150283118434 26.385177312252466 8.41771822256414 0 0 0
1488 5 2 0.131 16.9177409355643 25.41881066581482 7.264913887094512 0 0 0
2702 8 3 -0.184 13.156807954342728 26.609330298886267 10.999451938010111 0 0 0
1499 5 4 0.053 17.085526428733708 28.190202538464533 10.224192274312408 0 0 0
1493 5 4 0.053 17.85737033426259 26.418167385113794 8.877263422301832 0 0 0