LAMMPS data file via write_data, version 22 Jul 2025, timestep = 500000, units = real

4520 atoms
7 atom types
4510 bonds
10 bond types
8000 angles
18 angle types
9970 dihedrals
23 dihedral types
4500 impropers
11 improper types

3.9396199159904945 41.69350351400165 xlo xhi
3.9396199159904945 41.69350351400165 ylo yhi
3.9396199159904945 41.69350351400165 zlo zhi

Masses

1 12.01115
2 12.01115
3 12.01115
4 1.00797
5 1.008
6 15.9994
7 15.9994

Pair Coeffs # lj/class2/coul/long/kk

1 0.054 4.01
2 0.054 4.01
3 0.12 3.81
4 0.02 2.995
5 0.013 1.11
6 0.267 3.3
7 0.24 3.42

Bond Coeffs # class2/kk

1 1.53 299.67 -501.77 679.81
2 1.53 299.67 -501.77 679.81
3 1.5202 253.707 -423.037 396.9
4 1.101 345 -691.89 844.6
5 1.5202 253.707 -423.037 396.9
6 1.101 345 -691.89 844.6
7 1.43 326.727 -608.531 689.033
8 1.202 851.14 -1918.49 2160.77
9 1.3683 367.148 -794.791 1055.23
10 0.952 534.299 -1287.19 1889.14

Angle Coeffs # class2/kk

1 108.53 51.9747 -9.4851 -10.9985
2 110.77 41.453 -10.604 5.129
3 108.53 51.9747 -9.4851 -10.9985
4 110.77 41.453 -10.604 5.129
5 107.41 63.3907 -13.4513 1.665
6 123.145 55.5431 -17.2123 0.1348
7 100.318 38.8631 -3.8323 -7.9802
8 110.77 41.453 -10.604 5.129
9 123.145 55.5431 -17.2123 0.1348
10 100.318 38.8631 -3.8323 -7.9802
11 113.288 61.2868 -28.9786 7.9929
12 107.734 40.6099 -28.8121 0
13 107.734 40.6099 -28.8121 0
14 109.5 60 0 0
15 112.874 53.2512 -14.9979 2.464
16 107.66 39.641 -12.921 -2.4318
17 107.688 65.4801 -10.3498 5.8866
18 120.797 95.3446 -32.2869 6.3778

BondBond Coeffs

1 5.4199 1.53 1.5202
2 3.3872 1.53 1.101
3 5.4199 1.53 1.5202
4 3.3872 1.53 1.101
5 23.2647 1.53 1.43
6 46.0685 1.5202 1.202
7 19.1069 1.5202 1.3683
8 3.3872 1.53 1.101
9 46.0685 1.5202 1.202
10 19.1069 1.5202 1.3683
11 45.4503 1.43 1.3683
12 0.7115 1.5202 1.101
13 0.7115 1.5202 1.101
14 0 1.5202 1.43
15 9.5671 1.3683 0.952
16 5.3316 1.101 1.101
17 5.6454 1.101 1.43
18 121.488 1.202 1.3683

BondAngle Coeffs

1 18.1678 15.8758 1.53 1.5202
2 20.754 11.421 1.53 1.101
3 18.1678 15.8758 1.53 1.5202
4 20.754 11.421 1.53 1.101
5 23.392 47.9487 1.53 1.43
6 34.9982 37.1298 1.5202 1.202
7 1.3435 4.6978 1.5202 1.3683
8 20.754 11.421 1.53 1.101
9 34.9982 37.1298 1.5202 1.202
10 1.3435 4.6978 1.5202 1.3683
11 41.9116 46.4608 1.43 1.3683
12 12.4632 9.1765 1.5202 1.101
13 12.4632 9.1765 1.5202 1.101
14 0 0 1.5202 1.43
15 37.9163 21.4364 1.3683 0.952
16 18.103 18.103 1.101 1.101
17 8.6864 57.4975 1.101 1.43
18 76.2614 71.8761 1.202 1.3683

Dihedral Coeffs # class2/kk

1 0.0442 0 0.0292 0 0.0562 0
2 1.8341 0 2.0603 0 -0.0195 0
3 0.0442 0 0.0292 0 0.0562 0
4 1.8341 0 2.0603 0 -0.0195 0
5 0 0 0 0 -0.1932 0
6 -2.5594 0 2.2013 0 0.0325 0
7 -2.5594 0 2.2013 0 0.0325 0
8 -2.9126 0 1.0199 0 -0.2077 0
9 0 0 2.2089 0 0 0
10 -0.0228 0 0.028 0 -0.1863 0
11 -0.0228 0 0.028 0 -0.1863 0
12 0 0 0 0 -0.1932 0
13 0 0 0 0 -0.1932 0
14 -0.1432 0 0.0617 0 -0.1083 0
15 -0.1432 0 0.0617 0 -0.1083 0
16 0 0 0 0 -0.25 0
17 -0.1804 0 0.0012 0 0.0371 0
18 -0.6359 0 1.4807 0 -0.0438 0
19 -0.1804 0 0.0012 0 0.0371 0
20 -0.6359 0 1.4807 0 -0.0438 0
21 0 0 2.2089 0 0 0
22 0 180 0 0 0 0
23 0 180 0 0 0 0

AngleAngleTorsion Coeffs

1 -8.019 108.53 123.145
2 0 108.53 100.318
3 -8.019 108.53 123.145
4 0 108.53 100.318
5 0 107.41 113.288
6 0 100.318 113.288
7 0 100.318 113.288
8 0 100.318 112.874
9 0 113.288 120.797
10 -5.3624 108.53 110.77
11 -5.3624 108.53 110.77
12 0 109.5 113.288
13 0 113.288 107.688
14 -12.564 110.77 110.77
15 -12.564 110.77 110.77
16 0 110.77 107.41
17 -15.3496 107.734 123.145
18 0 107.734 100.318
19 -15.3496 107.734 123.145
20 0 107.734 100.318
21 0 112.874 120.797
22 0 123.145 109.5
23 0 109.5 100.318

EndBondTorsion Coeffs

1 0.2654 0.0503 0.1046 -0.281 0.0816 -0.1522 1.53 1.202
2 0 0 0 0 0 0 1.53 1.3683
3 0.2654 0.0503 0.1046 -0.281 0.0816 -0.1522 1.53 1.202
4 0 0 0 0 0 0 1.53 1.3683
5 0 0 0 0 0 0 1.53 1.3683
6 0 0 0 0 0 0 1.5202 1.43
7 0 0 0 0 0 0 1.5202 1.43
8 0 0 0 0 0 0 1.5202 0.952
9 0 0 0 0 0 0 1.43 1.202
10 -0.0204 0.3628 -0.4426 -0.0097 -0.0315 -0.0755 1.5202 1.101
11 -0.0204 0.3628 -0.4426 -0.0097 -0.0315 -0.0755 1.5202 1.101
12 0 0 0 0 0 0 1.5202 1.3683
13 0 0 0 0 0 0 1.3683 1.101
14 0.213 0.312 0.0777 0.213 0.312 0.0777 1.101 1.101
15 0.213 0.312 0.0777 0.213 0.312 0.0777 1.101 1.101
16 0 0 0 0 0 0 1.101 1.43
17 1.2143 0.2831 0.3916 -0.2298 0.0354 0.3853 1.101 1.202
18 0 0 0 0 0 0 1.101 1.3683
19 1.2143 0.2831 0.3916 -0.2298 0.0354 0.3853 1.101 1.202
20 0 0 0 0 0 0 1.101 1.3683
21 0 0 0 0 0 0 0.952 1.202
22 0 0 0 0 0 0 1.202 1.43
23 0 0 0 0 0 0 1.43 1.3683

MiddleBondTorsion Coeffs

1 0.3388 -0.1096 0.1219 1.5202
2 -17.328 -5.79 -3.2114 1.5202
3 0.3388 -0.1096 0.1219 1.5202
4 -17.328 -5.79 -3.2114 1.5202
5 -5.435 0 0 1.43
6 1.3445 3.5515 -4.9202 1.3683
7 1.3445 3.5515 -4.9202 1.3683
8 2.1452 0.5482 -2.3693 1.3683
9 4.26 0 0 1.3683
10 -3.5039 1.2458 -0.761 1.53
11 -3.5039 1.2458 -0.761 1.53
12 0 0 0 1.43
13 0 0 0 1.43
14 -14.261 -0.5322 -0.4864 1.53
15 -14.261 -0.5322 -0.4864 1.53
16 0 0 0 1.53
17 0.2359 0.9139 0.9594 1.5202
18 -13.7686 -2.5959 1.1934 1.5202
19 0.2359 0.9139 0.9594 1.5202
20 -13.7686 -2.5959 1.1934 1.5202
21 4.26 0 0 1.3683
22 0 0 0 1.5202
23 0 0 0 1.5202

BondBond13 Coeffs

1 0 1.53 1.202
2 0 1.53 1.3683
3 0 1.53 1.202
4 0 1.53 1.3683
5 0 1.53 1.3683
6 0 1.5202 1.43
7 0 1.5202 1.43
8 0 1.5202 0.952
9 0 1.43 1.202
10 0 1.5202 1.101
11 0 1.5202 1.101
12 0 1.5202 1.3683
13 0 1.3683 1.101
14 0 1.101 1.101
15 0 1.101 1.101
16 0 1.101 1.43
17 0 1.101 1.202
18 0 1.101 1.3683
19 0 1.101 1.202
20 0 1.101 1.3683
21 0 0.952 1.202
22 0 1.202 1.43
23 0 1.43 1.3683

AngleTorsion Coeffs

1 0.0885 -1.3703 -0.5452 0.675 0.5965 0.6725 108.53 123.145
2 0 0 0 0 0 0 108.53 100.318
3 0.0885 -1.3703 -0.5452 0.675 0.5965 0.6725 108.53 123.145
4 0 0 0 0 0 0 108.53 100.318
5 0 0 0 0 0 0 107.41 113.288
6 0 0 0 0 0 0 100.318 113.288
7 0 0 0 0 0 0 100.318 113.288
8 0 0 0 0 0 0 100.318 112.874
9 0 0 0 0 0 0 113.288 120.797
10 -0.7466 -0.9448 -0.6321 0.0162 1.4211 -1.4092 108.53 110.77
11 -0.7466 -0.9448 -0.6321 0.0162 1.4211 -1.4092 108.53 110.77
12 0 0 0 0 0 0 109.5 113.288
13 0 0 0 0 0 0 113.288 107.688
14 -0.8085 0.5569 -0.2466 -0.8085 0.5569 -0.2466 110.77 110.77
15 -0.8085 0.5569 -0.2466 -0.8085 0.5569 -0.2466 110.77 110.77
16 0 0 0 0 0 0 110.77 107.41
17 9.1299 -0.4847 0.3582 -1.4946 0.7308 -0.2083 107.734 123.145
18 0 0 0 0 0 0 107.734 100.318
19 9.1299 -0.4847 0.3582 -1.4946 0.7308 -0.2083 107.734 123.145
20 0 0 0 0 0 0 107.734 100.318
21 0 0 0 0 0 0 112.874 120.797
22 0 0 0 0 0 0 123.145 109.5
23 0 0 0 0 0 0 109.5 100.318

Improper Coeffs # class2/kk

1 0 0
2 0 0
3 0 0
4 0 0
5 0 0
6 0 0
7 0 0
8 0 0
9 0 0
10 46.9264 0
11 46.9264 0

AngleAngle Coeffs

1 1.0827 -1.8202 2.0403 110.77 108.53 107.734
2 0.2738 -0.4825 0.2738 110.77 110.77 107.66
3 0.2738 -0.4825 0.2738 110.77 110.77 107.66
4 -3.3867 -3.4976 -3.3867 107.734 107.734 107.66
5 -0.3157 -0.3157 -0.3157 107.66 107.66 107.66
6 1.0827 -1.8202 2.0403 110.77 108.53 107.734
7 0 0 0 110.77 107.41 107.688
8 0 0 0 107.41 108.53 109.5
9 0 0 0 107.734 109.5 107.688
10 0 0 0 100.318 123.145 120.797
11 0 0 0 100.318 123.145 120.797

Atoms # full/kk

2821 7 2 0.172 6.3282305211674235 4.097039266294555 9.406221788182862 1 1 1
2815 7 4 0.053 8.082793518533547 4.708436983244442 5.290894894556742 1 1 1
2818 7 3 0.702 6.853336878017727 5.967052409282852 7.942701707377601 1 1 1
2819 7 6 -0.531 6.83412720324873 6.741772372775014 8.85976727960826 1 1 1
2813 7 4 0.053 6.083432869468982 6.693211831150698 6.049697551785953 1 1 1
2812 7 2 0.172 7.0933088577465995 6.239856943087554 6.31988366236667 1 1 1
2811 7 7 -0.396 8.235417866435174 7.071573039791225 6.007994531982619 1 1 1
2820 7 7 -0.396 6.470725285999398 4.662607991848004 7.975598833265593 1 1 1
2814 7 1 -0.159 7.057345879556351 5.15549055858483 5.3049460376839646 1 1 1
2809 7 3 0.702 8.062676699766829 8.184633304120393 5.194886046453029 1 1 1
2817 7 4 0.053 6.337046717115845 4.367643402766483 5.648891866252037 1 1 1
2826 7 4 0.053 4.6850496961464545 5.462814607568884 10.234914512659717 1 1 1
2823 7 1 -0.159 4.895680079588989 4.453669838734957 9.895877377851557 1 1 1
2822 7 4 0.053 7.103046490797233 4.582724716180045 10.035544673126756 1 1 1
2810 7 6 -0.531 6.950385463315912 8.442474755129329 4.801904964519691 1 1 1
2803 7 2 0.172 9.426832264652173 8.948581740715763 4.973087458301571 1 1 1
2816 7 4 0.053 6.739743606928082 5.589858552589328 4.246491577050561 1 1 1
2825 7 4 0.053 4.216836850544665 4.159229755366343 9.13262035295052 1 1 1
933 3 4 0.053 6.572052369190024 9.092366721727082 9.631112254198145 0 0 0
932 3 2 0.172 7.289504305108494 9.530426811411914 10.410385357254867 0 0 0
4351 10 4 0.053 4.767244794716745 9.115898782445313 5.466431887306758 1 1 1
137 1 4 0.053 9.747353221358143 41.415449967508565 6.550204592477114 0 -1 0
134 1 6 -0.531 10.455953607157262 4.895092784463031 4.589884576407004 0 0 0
131 1 4 0.053 13.67257983579249 4.944486820960705 5.81735405970872 0 0 0
2805 7 1 -0.159 10.46901398392571 8.995690506706893 6.001737551880845 1 1 1
1986 5 3 0.702 13.141831196548887 4.589830316441689 9.129494812226849 0 0 0
1981 5 4 0.053 11.446159197304326 5.3299088410759135 8.441225357021024 0 0 0
1973 5 1 -0.159 13.924802972963963 8.368496581096165 5.22176999565728 0 0 0
1972 5 4 0.053 13.835347302580233 9.272597214620028 7.106674092103537 0 0 0
2806 7 4 0.053 11.034038004260784 8.03388877972158 6.166857827157456 1 1 1
1985 5 4 0.053 11.106546006503708 6.050301569409191 10.65151950524785 0 0 0
1980 5 2 0.172 12.324286223662149 5.857440552905486 8.752644863759338 0 0 0
133 1 3 0.702 11.389391876659623 4.089418768418045 4.6635812140061415 0 0 0
1975 5 4 0.053 14.378412551569895 7.620919847466149 4.576142502509163 0 0 0
1982 5 1 -0.159 11.78334968352978 6.638236517109998 10.011430523668174 0 0 0
1979 5 7 -0.396 12.793780347547075 6.534176532232136 7.615585083101348 0 0 0
1977 5 3 0.702 14.052223581099394 7.206147630784913 7.817109109907853 0 0 0
1971 5 2 0.172 14.399618518786196 8.391364824083354 6.7261872793316355 0 0 0
1976 5 4 0.053 12.909290864580845 8.235771990639181 5.164354764438879 0 0 0
1978 5 6 -0.531 14.81933990612567 6.823353539105602 8.651702767340058 0 0 0
1970 5 7 -0.396 15.855051910818077 8.914652989997737 6.7020640542556755 0 0 0
1969 5 6 -0.531 16.474470472227463 7.265760390403221 5.367281008552388 0 0 0
1974 5 4 0.053 14.167673686631591 9.479031882547481 4.833886503104245 0 0 0
1920 5 4 0.053 22.051248819913248 9.606468222153726 6.524748156960712 0 0 0
1968 5 3 0.702 16.810825129139552 8.298507500119896 5.932765473148123 0 0 0
1786 4 3 0.702 20.50108262626907 8.536598463886463 10.084670993658802 1 0 0
1788 4 7 -0.396 19.70707905825408 7.5471761142504 10.690388782151933 1 0 0
1781 4 4 0.053 22.175087849745378 9.600010451953436 10.746009372569313 1 0 0
1965 5 4 0.053 18.70353551068767 9.513003696695641 8.037459335478827 0 0 0
1966 5 4 0.053 19.51382909677762 10.449567744094784 6.6472342376488465 0 0 0
1964 5 1 -0.159 18.600136100396558 9.85522222285398 7.021908225709236 0 0 0
1963 5 4 0.053 18.901215472039606 8.12371912925609 5.6963621791019845 0 0 0
1962 5 2 0.172 18.18949872517078 9.011951730854557 5.931132039471232 0 0 0
1795 4 3 0.702 19.531068302034107 5.801079991828123 8.935205999769549 1 0 0
1787 4 6 -0.531 20.612695183474134 8.762064246058872 8.936471407644122 1 0 0
1796 4 6 -0.531 19.365512953784553 5.706315748469582 7.739067719499104 1 0 0
1790 4 4 0.053 18.259769992247733 7.560466418059139 9.112085447818815 1 0 0
1789 4 2 0.172 18.792929253408733 6.873555862631072 9.851223098874579 1 0 0
4252 10 4 0.053 23.934773591782772 7.459004352241866 6.434867328184258 0 1 1
3864 9 4 0.053 27.92255921643346 7.260936690092391 6.614406181275585 0 0 1
4231 10 2 0.172 29.428529074526388 41.66413306719346 9.553765508936806 0 0 1
4255 10 3 0.702 23.85186966075748 5.542039551625969 4.118781967546159 0 1 1
4248 10 7 -0.396 25.425222624812534 4.418569253448623 5.748639215098671 0 1 1
4254 10 4 0.053 25.543716444601344 6.906572939892994 6.2013193751006 0 1 1
4237 10 3 0.702 28.052739827994678 41.27405158568267 8.94741533408349 0 0 1
1912 5 4 0.053 26.956689506108066 9.550920555628714 8.709582698244494 0 0 0
1913 5 4 0.053 26.711533812869533 9.964279643725472 7.114569340266753 0 0 0
1910 5 1 -0.159 26.14367391510295 9.90722254368087 8.107060666953874 0 0 0
4238 10 6 -0.531 27.094401872063955 40.970896750301364 9.57300508338645 0 0 1
4250 10 4 0.053 23.34312444345611 4.717260854860249 6.042720904432741 0 1 1
4249 10 2 0.172 24.194744606495625 5.2764884604525095 5.617289975656582 0 1 1
4253 10 4 0.053 24.50238643356865 6.302732339976295 7.472692520214492 0 1 1
1911 5 4 0.053 25.413495259349304 9.142203554311962 8.144018090788382 0 0 0
4251 10 1 -0.159 24.569351600819715 6.533258753872947 6.487972147577002 0 1 1
888 2 4 0.053 25.570264201209966 7.256849577014399 10.520909760554378 0 1 -1
4232 10 4 0.053 29.272835244997705 4.241468604793306 10.599724327173462 0 1 1
3863 9 4 0.053 29.621078204685816 6.435791566573171 6.608212762529156 0 0 1
3862 9 1 -0.159 28.879673569308444 7.228640417521878 6.081299112458394 0 0 1
1778 4 6 -0.531 21.85764828898061 12.013951222811086 10.050706893696706 1 0 0
3869 9 2 0.172 32.943512280779345 8.478471998477922 4.347963981427332 0 0 1
3868 9 7 -0.396 31.523626953965774 8.39127661951326 4.827406583761766 0 0 1
3870 9 4 0.053 33.34087647659439 7.65612501631821 4.973513230458567 0 0 1
4280 10 4 0.053 30.482795014175803 41.30975144474111 5.374468657670553 0 0 1
4279 10 4 0.053 31.9183951892302 40.749495459746015 4.666753565279644 0 0 1
4278 10 1 -0.159 31.161278631955927 41.46425859005221 4.537024709494918 0 0 1
3861 9 4 0.053 29.301103486560628 9.182869686549163 7.085178694244876 0 0 1
4045 9 4 0.053 33.20211199142024 10.992758024453732 8.259575419525726 0 0 1
3865 9 4 0.053 28.589147124235854 7.153390583273872 5.019461848178251 0 0 1
3860 9 2 0.172 29.471307396123176 8.742661789061076 6.091804345914053 0 0 1
4234 10 4 0.053 30.6775303640607 4.7976436182195155 7.978496499155554 0 1 1
4233 10 1 -0.159 30.188216386946333 5.0448731338773545 8.897420810136722 0 1 1
3866 9 3 0.702 31.034498001459482 8.565863600622526 6.1143975245571935 0 0 1
4236 10 4 0.053 30.967654627071497 5.395678667226711 9.677538704556785 0 1 1
4056 9 6 -0.531 33.37150830043643 5.441694866394187 7.65998211658993 0 0 1
4062 9 4 0.053 34.88150715509913 7.302342131320019 6.230798730139472 0 0 1
4043 9 4 0.053 34.81860551248664 10.518963414765935 8.949219221656445 0 0 1
4235 10 4 0.053 29.572185651629784 5.926206250196363 8.653162161965641 0 1 1
3867 9 6 -0.531 31.704790531863175 8.727151739012893 7.109660131264194 0 0 1
4055 9 3 0.702 34.261198429991055 5.837082051874045 8.331171683760568 0 0 1
4042 9 1 -0.159 33.77847412456828 10.865634479214725 9.197460294255087 0 0 1
4063 9 4 0.053 36.67071306616312 7.516755267186136 6.646190414810859 0 0 1
4048 9 7 -0.396 33.5301660080372 7.785392330567647 9.52164502836824 0 0 1
4049 9 2 0.172 33.983906026809976 6.480321038367609 9.731318258769166 0 0 1
4358 10 4 0.053 4.308783911098564 6.144258057685985 7.92701135226664 1 1 1
4054 9 4 0.053 36.013382561365475 7.070524503627583 10.307302947062794 0 0 1
2430 6 6 -0.531 38.09845321504322 9.580731235175588 4.954376256461173 0 0 1
4057 9 7 -0.396 35.58598202200161 5.634045609038538 8.102909279918403 0 0 1
4350 10 1 -0.159 41.568276398049576 9.473703201800738 4.959720864202523 0 1 1
4058 9 2 0.172 36.100188321424554 5.6090709304845285 6.698550025034618 0 0 1
4060 9 1 -0.159 35.90944566824549 7.01256681258986 6.036764949675252 0 0 1
4353 10 4 0.053 40.879365278755614 10.171456829611351 5.3312445109849875 0 1 1
4357 10 2 0.172 41.11311755461739 6.19483005428757 7.461716013953665 0 1 1
2427 6 4 0.053 36.90118184685576 9.502945045392572 7.648356526406008 0 0 1
4354 10 3 0.702 40.37092523509834 7.212250616356478 5.416083956435894 0 1 1
4364 10 6 -0.531 3.9875659256013516 4.501135684558999 5.570892632703202 1 1 1
4059 9 4 0.053 37.190504490201434 5.370288488101317 6.815945979254939 0 0 1
4363 10 3 0.702 41.144261873105094 4.716446121173801 6.600766716556123 0 1 1
4360 10 4 0.053 38.82851457439526 6.08131642776291 7.82981831982479 0 1 1
4356 10 7 -0.396 41.175267338263794 7.284055181230814 6.516477242017709 0 1 1
4061 9 4 0.053 36.13697614064118 7.046103908246522 4.9240891579758195 0 0 1
4365 10 7 -0.396 40.344358738871264 41.5328724324512 7.2241554244537785 0 0 1
4359 10 1 -0.159 39.86021622374045 6.252607984668147 8.329413247930647 0 1 1
4361 10 4 0.053 39.728345865204176 5.703346673435978 9.313210527110963 0 1 1
4362 10 4 0.053 39.85966762184766 7.217767231849187 8.593233411236232 0 1 1
4051 9 1 -0.159 35.26614513483488 6.429029584152754 10.663485572207318 0 0 1
2804 7 4 0.053 9.183667890795006 9.910581508222608 4.68118686236278 1 1 1
921 3 6 -0.531 6.994768020279265 14.2431611280425 8.09333759213295 0 0 0
922 3 7 -0.396 8.42505047683033 13.523045368918474 9.604105878404665 0 0 0
926 3 4 0.053 8.777010706629218 13.45136901927031 6.669445383182233 0 0 0
2418 6 4 0.053 5.0886114039394705 12.735231372623451 8.92634229800098 1 0 1
931 3 7 -0.396 7.976471730948158 10.669168289580833 9.849567086129166 0 0 0
929 3 3 0.702 8.220743778563712 11.100525400895478 8.670473568840546 0 0 0
2399 6 4 0.053 7.589674812506361 16.77503275400975 6.999947174588605 1 0 1
923 3 2 0.172 8.994190925695044 12.455475878628015 8.796319769868887 0 0 0
927 3 4 0.053 10.234891486138153 13.803710222471341 7.451569053364765 0 0 0
914 3 2 0.172 6.937554790209615 15.461651227610053 10.344279282236569 0 0 0
4352 10 4 0.053 4.159308431759925 10.098327583315186 4.167053663284371 1 1 1
2807 7 4 0.053 9.902923418741537 9.097158190684638 6.940999367227636 1 1 1
925 3 1 -0.159 9.478866764583266 13.046339883282238 7.409896570450009 0 0 0
930 3 6 -0.531 8.058606065796354 10.497852258236769 7.606361869624686 0 0 0
920 3 3 0.702 7.43655282582972 14.40273542080904 9.2187379297684 0 0 0
2488 6 1 -0.159 12.679384619650659 16.770810303087195 9.709685761393477 1 0 1
924 3 4 0.053 9.914224854166667 12.351620733259105 9.381636748183979 0 0 0
2489 6 4 0.053 11.764707130969267 16.5365562109817 10.201112914267474 1 0 1
2490 6 4 0.053 13.202233828081127 15.846647947747071 9.359024724394851 1 0 1
2491 6 4 0.053 13.309803229859375 17.23980868926102 10.431855504020229 1 0 1
1758 4 4 0.053 14.513451268861111 14.306050938761206 6.1998017335427535 1 0 0
1754 4 4 0.053 15.031684237506857 12.312395267741284 7.34576095746902 1 0 0
1751 4 6 -0.531 12.750328281082863 11.203875130451305 7.835297677771576 1 0 0
1757 4 4 0.053 13.124070415468667 14.200445531145967 7.102923231821406 1 0 0
1753 4 2 0.172 14.820332284358257 13.10956090605243 8.01067408183482 1 0 0
1756 4 4 0.053 14.51138795914732 15.171157472149345 7.775877095584517 1 0 0
2484 6 6 -0.531 13.633561862408799 17.782866839712092 6.1307062067108875 1 0 1
1752 4 7 -0.396 13.942837427896437 12.682364703146705 9.141077320349266 1 0 0
1755 4 1 -0.159 14.243342601048003 14.20175383492491 7.230784817794953 1 0 0
1750 4 3 0.702 13.124852346622967 11.562050287168955 8.942341443779448 1 0 0
2808 7 4 0.053 11.063296700135037 9.88597678873801 5.923602539723668 1 1 1
928 3 4 0.053 10.037192324041929 12.256722453229704 6.900337419115473 0 0 0
1936 5 4 0.053 19.461924170443446 16.891349556154413 5.134985355486795 0 0 0
1759 4 3 0.702 16.30041244295979 13.39984049795802 8.491982273357912 1 0 0
1761 4 7 -0.396 16.79744139765244 14.643111049162815 8.067936119198471 1 0 0
1760 4 6 -0.531 16.860366164914343 12.654493839784442 9.267715432311764 1 0 0
1967 5 4 0.053 17.978071946917346 10.87144758415899 6.964891870228843 0 0 0
1763 4 4 0.053 18.305850831121496 15.94514053421487 8.340728717618086 1 0 0
1765 4 4 0.053 20.06144099011095 14.103771871841037 7.680512043248677 1 0 0
1762 4 2 0.172 18.15684551436633 14.89527685281701 8.328351852263614 1 0 0
1766 4 4 0.053 18.776249675496707 13.423639336048094 6.724125796527711 1 0 0
1764 4 1 -0.159 19.105307115820935 14.330746804772186 7.146012252270494 1 0 0
1767 4 4 0.053 19.340022425807124 14.989929183166971 6.346271250118093 1 0 0
1768 4 3 0.702 18.741109828478606 14.739574598728632 9.817459145454864 1 0 0
1770 4 7 -0.396 19.381960325700867 13.562477291134204 9.943575920088026 1 0 0
1934 5 7 -0.396 21.103337384406096 15.637591450836847 4.574728641183355 0 0 0
1769 4 6 -0.531 18.60102807825726 15.449953480497689 10.750562493914549 1 0 0
1919 5 1 -0.159 22.192979522305247 10.450740276990178 5.827043796552069 0 0 0
1921 5 4 0.053 21.87510219445216 11.345135174133361 6.418005168720759 0 0 0
1925 5 7 -0.396 22.789818552532406 12.87478199999842 4.490697993463031 0 0 0
1926 5 2 0.172 22.88485994576112 14.114534069185888 41.65331510149444 0 0 -1
1929 5 4 0.053 23.33258423461659 15.454282050029816 5.555399190313006 0 0 0
1928 5 1 -0.159 23.876494685446033 14.906548108842163 4.708412909717055 0 0 0
1771 4 2 0.172 20.014192775093743 13.18511964175162 11.227524118842041 1 0 0
1772 4 4 0.053 20.694239863644693 14.109553449260824 11.493760617899726 1 0 0
1777 4 3 0.702 20.983770464925698 11.86051291177225 10.877914026183127 1 0 0
1931 5 4 0.053 24.533144425655284 14.241960850534035 5.210140290789264 0 0 0
1909 5 4 0.053 24.9834224769792 11.402548133785768 9.246500551647062 0 0 0
1916 5 7 -0.396 24.381009464067297 10.712877941047182 6.444407426636153 0 0 0
1915 5 6 -0.531 24.43009124159409 12.86690573349963 7.037316726139945 0 0 0
1917 5 2 0.172 23.5213344774985 10.731949049502022 5.291103864396412 0 0 0
1923 5 3 0.702 23.746334078415746 11.951313453854082 4.388127183207458 0 0 0
1924 5 6 -0.531 24.75918070964921 12.033166026690003 41.45617484921704 0 0 -1
1914 5 3 0.702 24.66613317959733 11.695060308759487 7.192631679195053 0 0 0
1907 5 7 -0.396 26.852117998700788 12.01219927228035 8.660896473373892 0 0 0
1905 5 3 0.702 27.477336452566078 11.838708810498716 9.890431081599642 0 0 0
1908 5 2 0.172 25.65139786084301 11.269657117144533 8.437791037825859 0 0 0
1906 5 6 -0.531 27.059238548509644 11.236273449707927 10.893496971281618 0 0 0
1903 5 4 0.053 28.80479532146539 12.238124213834437 7.834778241939199 0 0 0
1899 5 2 0.172 28.914272666827348 12.660531417804508 9.841663513031085 0 0 0
1901 5 1 -0.159 29.225832454763115 13.014991185798854 8.397854238474787 0 0 0
1898 5 7 -0.396 29.011917024350442 13.910393401865656 10.684544127209026 0 0 0
1918 5 4 0.053 23.858479374880073 9.869553426308737 4.671624741677525 0 0 0
1902 5 4 0.053 28.738141882994046 13.888391340198723 7.845444730977429 0 0 0
3852 9 4 0.053 28.118245190612022 12.353675122889486 41.558735909000326 0 0 0
4511 10 4 0.053 24.493781335837433 15.513664992552496 7.5082630000197526 0 0 1
3857 9 3 0.702 29.224040641999572 10.837953690739369 4.8366336649846104 0 0 1
3872 9 4 0.053 33.12652336652707 10.66181478625333 41.40853690151845 0 0 0
3874 9 4 0.053 32.790214409227445 10.309751376733464 5.515156225861817 0 0 1
3871 9 1 -0.159 33.339946667733 10.033417681079943 4.579623998735577 0 0 1
3859 9 7 -0.396 28.79651146490138 9.492202785561256 5.072630354067308 0 0 1
1904 5 4 0.053 30.278302917664586 13.280002573105877 8.112804772857993 0 0 0
3858 9 6 -0.531 29.91731506943571 11.431744398426911 5.677523714130695 0 0 1
3 1 1 -0.159 32.38272915507909 13.75402464355635 5.302515008930021 0 0 0
4 1 4 0.053 31.384073295863693 13.592528980339146 5.725713957550682 0 0 0
4024 9 1 -0.159 34.0897336129759 15.720825651749013 9.513039898436524 0 0 1
5 1 4 0.053 32.498842604811486 12.789923671083166 4.796210858953604 0 0 0
4025 9 4 0.053 33.955376743747244 16.5004997469286 8.7618188570139 0 0 1
4027 9 4 0.053 33.87888739048054 14.737116811343167 9.008347399199574 0 0 1
1900 5 4 0.053 29.60445337246466 11.906296430234015 10.242321761203042 0 0 0
6 1 4 0.053 33.007980725855745 13.942774803613352 6.236017370729395 0 0 0
2428 6 4 0.053 37.90744711430003 10.078964903579095 8.83972818482874 0 0 1
4044 9 4 0.053 33.92301579718862 11.794604916058738 9.652805254493645 0 0 1
4018 9 4 0.053 34.66701596199231 15.097402665309453 6.361722423429294 0 0 1
4021 9 7 -0.396 36.293753149385665 15.540403821080176 8.74139343413161 0 0 1
4022 9 2 0.172 35.618937974431475 15.786515719295949 9.97166894030211 0 0 1
2417 6 4 0.053 4.4976777301831605 12.417858785510289 7.268785032393649 1 0 1
2431 6 7 -0.396 38.375654575009136 11.79297210254596 4.864150508960416 0 0 1
2425 6 1 -0.159 37.89785242737821 9.85071732413721 7.826942877924183 0 0 1
2426 6 4 0.053 38.62325864515408 9.098069810249502 7.591441292021127 0 0 1
2419 6 4 0.053 4.2484642064032005 11.358468334509308 8.672368789067612 1 0 1
2416 6 1 -0.159 4.330566693544325 12.353236171825408 8.36065406615798 1 0 1
2411 6 3 0.702 40.917311472598186 15.105752962158407 7.253398130703735 0 0 1
2412 6 6 -0.531 40.42625883537936 14.56261693377364 6.30998155192472 0 0 1
2422 6 7 -0.396 39.4230222324109 11.565764942408086 7.361404860441054 0 0 1
2429 6 3 0.702 38.217459568986555 10.657242683730606 5.5178875856592 0 0 1
4017 9 4 0.053 36.01723584400564 13.998320465474084 6.6216613958299835 0 0 1
2415 6 4 0.053 40.8808232390185 12.99220455686749 9.790496353767987 0 0 1
2423 6 2 0.172 38.11861814990769 10.973627295213815 6.998550595333696 0 0 1
2414 6 2 0.172 40.8900493449742 13.14664272191634 8.648920883047078 0 0 1
2413 6 7 -0.396 41.14068934992346 14.588334436780853 8.461931506261601 0 0 1
2424 6 4 0.053 37.38525686138598 11.775074112044393 7.20959469928414 0 0 1
2420 6 3 0.702 39.481533143120956 12.648416553 8.22988237171873 0 0 1
4016 9 4 0.053 35.87583906289585 14.688698084043631 5.043965153410045 0 0 1
4015 9 1 -0.159 35.65635903088964 14.924904876024181 6.061473816786548 0 0 1
2421 6 6 -0.531 38.521516039574266 13.242188124553572 8.614259548803995 0 0 1
2394 6 6 -0.531 5.085060066492525 20.36993881419362 6.671380063418412 1 0 1
2402 6 3 0.702 4.949789131064122 17.48125091181781 5.443021780028143 1 0 1
915 3 4 0.053 7.107291278303611 16.39917633976562 9.884518246723749 0 0 0
2401 6 4 0.053 8.154998016567676 18.30074851771782 6.820602395209846 1 0 1
2393 6 3 0.702 6.127789920184134 20.499983189934447 6.0999472553182645 1 0 1
2505 6 4 0.053 5.919936084974708 19.444031459178788 9.588600773451626 1 0 1
2398 6 1 -0.159 7.222826097494391 17.703046615567516 6.870358238470407 1 0 1
2392 6 4 0.053 8.858477174710423 20.835219698073356 5.670756905413043 1 0 1
2501 6 3 0.702 8.64680054514788 20.12813803454799 9.349208996829525 1 0 1
2387 6 2 0.172 7.028716352783649 21.942434873591274 5.9388965910327425 1 0 1
2388 6 4 0.053 7.073862512329758 22.243602174921435 6.95928111974279 1 0 1
2502 6 6 -0.531 8.124446934218108 20.369324741982968 8.318264293759476 1 0 1
2508 6 4 0.053 5.369222250167511 19.358818317806225 12.257851790558426 1 0 1
2396 6 2 0.172 6.460740340562197 18.01166279896666 5.52870625536316 1 0 1
2395 6 7 -0.396 6.6811614623084115 19.522817508531098 5.3218517340866915 1 0 1
2504 6 2 0.172 6.585673855491384 19.831693189275786 10.546307732579425 1 0 1
2400 6 4 0.053 6.659478565322339 17.99139576653289 7.814274311776825 1 0 1
2481 6 4 0.053 9.747683124333683 15.839712655294644 5.233470857236619 1 0 1
4432 10 4 0.053 4.997483044668385 23.294976403966164 7.501946181338432 1 0 1
2495 6 2 0.172 10.109621039434344 20.381754537554002 9.706398830726446 1 0 1
2503 6 7 -0.396 7.983988161764661 19.504501203787214 10.35140571500263 1 0 1
2506 6 1 -0.159 6.226456750133261 18.939501199541958 11.744722550765278 1 0 1
2509 6 4 0.053 6.961692506811143 18.8495920968026 12.605587985030834 1 0 1
2494 6 7 -0.396 10.767209635562267 19.20542404283717 9.489524577574377 1 0 1
2493 6 6 -0.531 11.936935059630034 19.88412145650402 7.604740678159535 1 0 1
2487 6 4 0.053 13.424586906905354 18.15239421892786 8.33596310039307 1 0 1
2492 6 3 0.702 11.625681250630883 19.070255130446753 8.489567684333268 1 0 1
2483 6 3 0.702 12.599971382698532 17.06080546834056 6.251519838619973 1 0 1
2486 6 2 0.172 12.461996252230177 17.711466510680772 8.504350444883647 1 0 1
2485 6 7 -0.396 11.934766090080657 16.9383194032416 7.42456370722736 1 0 1
646 2 4 0.053 14.45029122372516 20.938496700394396 8.053935658442256 0 0 0
2496 6 4 0.053 10.496477161155454 21.237750923327646 9.127879224646156 1 0 1
640 2 6 -0.531 16.3935737709889 18.145569730689473 4.890439804802922 0 0 0
639 2 3 0.702 16.06885157915236 19.320690435533344 4.804789991664684 0 0 0
643 2 4 0.053 15.537981737804357 18.91499935898608 7.365266363554374 0 0 0
641 2 7 -0.396 16.33653420979868 20.195620618610626 5.8146859625159175 0 0 0
574 2 4 0.053 14.783320762710765 22.529167145116794 10.497339009939584 0 0 0
644 2 1 -0.159 15.628022922355871 20.926596345094374 8.080804942617624 0 0 0
638 2 4 0.053 15.651802730368095 22.184519218836375 4.340330269354487 0 0 0
647 2 4 0.053 15.77783313137085 20.87278126111514 9.135663145020754 0 0 0
642 2 2 0.172 16.257235900094805 19.738003780471107 7.276484543103587 0 0 0
645 2 4 0.053 15.997011375176827 21.960682261434492 7.771007473216396 0 0 0
650 2 7 -0.396 18.33717323509211 19.914549687472572 8.597364662228259 0 0 0
651 2 2 0.172 19.874477268930228 19.813029262984404 8.402605036207703 0 0 0
652 2 4 0.053 20.172431417405825 18.718797378620266 8.625860975206287 0 0 0
648 2 3 0.702 17.622012640951272 19.081856080960357 7.778037809170424 0 0 0
656 2 4 0.053 19.626989382583474 20.869558159342144 10.161583023834236 0 0 0
649 2 6 -0.531 18.046080090514252 18.020126368745835 7.48290343595336 0 0 0
654 2 4 0.053 21.103216565543175 21.50670773949659 9.340399236017191 0 0 0
657 2 3 0.702 20.40136597351434 20.316049919319006 6.953433030342306 0 0 0
653 2 1 -0.159 20.53905660897357 20.595990490591138 9.627026769088769 0 0 0
658 2 6 -0.531 20.234020030186468 19.770622604098506 5.91717111873411 0 0 0
666 2 3 0.702 21.272409983439033 22.077398092031657 4.707843443617895 0 0 0
659 2 7 -0.396 21.069377516792777 21.47650313044967 7.098415198921678 0 0 0
3361 8 6 -0.531 18.496287689671803 22.80521186645394 7.109208370708921 0 0 0
668 2 7 -0.396 21.72350322846426 21.464917060040623 41.37429584498977 0 0 -1
661 2 4 0.053 22.358231331895674 22.879376394322126 6.202472050622353 0 0 0
660 2 2 0.172 22.011679493067888 21.824218185666314 6.046317137524971 0 0 0