units real
atom_style full
boundary p p p

# --- Force Field Styles ---
pair_style lj/class2/coul/long 9.5 9.5
kspace_style pppm 1e-6
dielectric 1.000000
bond_style class2
angle_style class2
dihedral_style class2
improper_style class2
special_bonds lj/coul 0 0 1
pair_modify mix sixthpower tail yes
neighbor 2.0 bin
neigh_modify delay 0 every 1 check yes
neigh_modify one 4000
package gpu 1 neigh no

read_data /home/arz2/PolyJarvis/data/PEEK1/lammps/equil/npt_prod300/npt_prod300_out.data
Reading data file ...
  orthogonal box = (3.978607 3.978607 3.978607) to (40.346249 40.346249 40.346249)
  1 by 1 by 3 MPI processor grid
  reading atoms ...
  4096 atoms
  reading velocities ...
  4096 velocities
  scanning bonds ...
  3 = max bonds/atom
  scanning angles ...
  3 = max angles/atom
  scanning dihedrals ...
  9 = max dihedrals/atom
  scanning impropers ...
  1 = max impropers/atom
  orthogonal box = (3.978607 3.978607 3.978607) to (40.346249 40.346249 40.346249)
  1 by 1 by 3 MPI processor grid
  reading bonds ...
  4448 bonds
  reading angles ...
  7080 angles
  reading dihedrals ...
  10544 dihedrals
  reading impropers ...
  2280 impropers
Finding 1-2 1-3 1-4 neighbors ...
  special bond factors lj:    0        0        1       
  special bond factors coul:  0        0        1       
     3 = max # of 1-2 neighbors
     6 = max # of 1-3 neighbors
     9 = max # of special neighbors
  special bonds CPU = 0.001 seconds
  read_data CPU = 0.204 seconds
include /home/arz2/PolyJarvis/data/PEEK1/lammps/cell/emc_build.params
# LAMMPS parameters created by EMC v9.4.4, build Jul 31 2025 20:33:44

# Variables

variable	seed		index	-1
variable	ntotal		index	4096
variable	fshape		index	1
variable	output		index	emc_build
variable	field		index	pcff/pcff
variable	location1	index	/home/arz2/emc/field/
variable	nav		index	0.6022141179
variable	temperature	index	300
variable	radius		index	5
variable	nrelax		index	100
variable	weight_nonbond	index	0.0001
variable	weight_bond	index	0.0001
variable	weight_focus	index	1
variable	cutoff		index	9.5
variable	charge_cutoff	index	9.5
variable	kappa		index	4
variable	density1	index	0.66
variable	lprevious	index	0
variable	lphase		index	44.3248558022
variable	f_poly		index	8
variable	chem_repeat	index	*Oc1ccc(Oc2ccc(C(=O)c3ccc(cc3)*)cc2)cc1
variable	chem_cap	index	*[H]
variable	lg_repeat	index	34
variable	lg_cap		index	1
variable	norm_poly	index	100
variable	l_poly		index	512
variable	mg_repeat	index	260.29514
variable	mg_cap		index	0
variable	m_poly		index	3904.4271
variable	n_poly		index	8
variable	mtotal		index	34612.81032
variable	nphase1		index	4096
variable	mphase1		index	34612.81032
variable	vphase1		index	87084.7269122
variable	lbox		index	44.3248558022
variable	lphase1		index	44.3248558022
variable	lxx		index	44.3248558022
variable	lyy		index	44.3248558022
variable	lzz		index	44.3248558022
variable	lzy		index	0
variable	lzx		index	0
variable	lyx		index	0
variable	vtotal		index	87084.7269122
variable	nl_poly		index	8

# Types

variable	type_c_0	index	1
variable	type_cp		index	2
variable	type_hc		index	3
variable	type_ho		index	4
variable	type_o_1	index	5
variable	type_oc		index	6
variable	type_oh		index	7

variable	type_bond_c_0_cp index	1
variable	type_bond_c_0_o_1 index	2
variable	type_bond_cp_cp	index	3
variable	type_bond_cp_hc	index	4
variable	type_bond_cp_oc	index	5
variable	type_bond_cp_oh	index	6
variable	type_bond_ho_oh	index	7

variable	type_angle_c_0_cp_cp index	1
variable	type_angle_cp_c_0_cp index	2
variable	type_angle_cp_c_0_o_1 index	3
variable	type_angle_cp_cp_cp index	4
variable	type_angle_cp_cp_hc index	5
variable	type_angle_cp_cp_oc index	6
variable	type_angle_cp_cp_oh index	7
variable	type_angle_cp_oc_cp index	8
variable	type_angle_cp_oh_ho index	9

# Clusters

variable	n0_poly		index	1
variable	n1_poly		index	8
variable	nl_poly		index	8

# Flags

variable	flag_charged	index	1

# Masses

mass		1    12.01115  # c_0
mass		2    12.01115  # cp
mass		3     1.00797  # hc
mass		4     1.00797  # ho
mass		5    15.99940  # o_1
mass		6    15.99940  # oc
mass		7    15.99940  # oh

# Potentials

pair_modify	mix sixthpower tail yes
special_bonds	lj/coul 0 0 1

# Pair Coeffs

pair_coeff	 1  1    0.12000    3.30800  # c_0,c_0
pair_coeff	 2  2    0.06400    4.01000  # cp,cp
pair_coeff	 3  3    0.02000    2.99500  # hc,hc
pair_coeff	 4  4    0.01300    1.09800  # ho,ho
pair_coeff	 5  5    0.26700    3.30000  # o_1,o_1
pair_coeff	 6  6    0.24000    3.53500  # oc,oc
pair_coeff	 7  7    0.24000    3.53500  # oh,oh

# Bond Coeffs

bond_coeff	1    1.48900  339.35740 -655.72360  670.23620  # c_0,cp
bond_coeff	2    1.21600  823.79480 -1878.79400 2303.53110  # c_0,o_1
bond_coeff	3    1.41700  470.83610 -627.61790 1327.63450  # cp,cp
bond_coeff	4    1.09820  372.82510 -803.45260  894.31730  # cp,hc
bond_coeff	5    1.37680  428.87980 -738.23510 1114.96550  # cp,oc
bond_coeff	6    1.37680  428.87980 -738.23510 1114.96550  # cp,oh
bond_coeff	7    0.96500  532.50620 -1282.90500 2004.76580  # ho,oh

# Angle Coeffs

angle_coeff	1  108.40000   43.95940   -8.39240   -9.33790  # c_0,cp,cp
angle_coeff	2  110.58840   34.62140   -7.09390   -7.40320  # cp,c_0,cp
angle_coeff	3  119.30000   65.10160  -17.97660    0.00000  # cp,c_0,o_1
angle_coeff	4  118.90000   61.02260  -34.99310    0.00000  # cp,cp,cp
angle_coeff	5  117.94000   35.15580  -12.46820    0.00000  # cp,cp,hc
angle_coeff	6  123.42000   73.67810  -21.67870    0.00000  # cp,cp,oc
angle_coeff	7  123.42000   73.67810  -21.67870    0.00000  # cp,cp,oh
angle_coeff	8  109.50000   60.00000    0.00000    0.00000  # cp,oc,cp
angle_coeff	9  108.19000   53.12500   -8.50160    0.00000  # cp,oh,ho

# BondBond Coeffs

angle_coeff	1 bb    0.00000    1.48900    1.41700  # c_0,cp,cp
angle_coeff	2 bb    0.00000    1.48900    1.48900  # cp,c_0,cp
angle_coeff	3 bb    0.00000    1.48900    1.21600  # cp,c_0,o_1
angle_coeff	4 bb   68.28560    1.41700    1.41700  # cp,cp,cp
angle_coeff	5 bb    1.07950    1.41700    1.09820  # cp,cp,hc
angle_coeff	6 bb   48.47540    1.41700    1.37680  # cp,cp,oc
angle_coeff	7 bb   48.47540    1.41700    1.37680  # cp,cp,oh
angle_coeff	8 bb    0.00000    1.37680    1.37680  # cp,oc,cp
angle_coeff	9 bb   20.65770    1.37680    0.96500  # cp,oh,ho

# BondAngle Coeffs

angle_coeff	1 ba    0.00000    0.00000    1.48900    1.41700  # c_0,cp,cp
angle_coeff	2 ba    0.00000    0.00000    1.48900    1.48900  # cp,c_0,cp
angle_coeff	3 ba    0.00000    0.00000    1.48900    1.21600  # cp,c_0,o_1
angle_coeff	4 ba   28.87080   28.87080    1.41700    1.41700  # cp,cp,cp
angle_coeff	5 ba   20.00330   24.21830    1.41700    1.09820  # cp,cp,hc
angle_coeff	6 ba   58.47900  107.68060    1.41700    1.37680  # cp,cp,oc
angle_coeff	7 ba   58.47900  107.68060    1.41700    1.37680  # cp,cp,oh
angle_coeff	8 ba    0.00000    0.00000    1.37680    1.37680  # cp,oc,cp
angle_coeff	9 ba   53.86140   23.92240    1.37680    0.96500  # cp,oh,ho

# Dihedral Coeffs

dihedral_coeff	 1    0.00000    0.00000    4.62820    0.00000    0.00000    0.00000  # c_0,cp,cp,cp
dihedral_coeff	 2    0.00000    0.00000    2.16700    0.00000    0.00000    0.00000  # c_0,cp,cp,hc
dihedral_coeff	 3    0.00000    0.00000    2.50000    0.00000    0.00000    0.00000  # cp,c_0,cp,cp
dihedral_coeff	 4    0.00000    0.00000    0.90630    0.00000    0.00000    0.00000  # cp,cp,c_0,o_1
dihedral_coeff	 5    8.36670    0.00000    1.19320    0.00000    0.00000    0.00000  # cp,cp,cp,cp
dihedral_coeff	 6    0.00000    0.00000    3.96610    0.00000    0.00000    0.00000  # cp,cp,cp,hc
dihedral_coeff	 7    0.00000    0.00000    4.84980    0.00000    0.00000    0.00000  # cp,cp,cp,oc
dihedral_coeff	 8    0.00000    0.00000    4.84980    0.00000    0.00000    0.00000  # cp,cp,cp,oh
dihedral_coeff	 9    0.00000    0.00000    1.80000    0.00000    0.00000    0.00000  # cp,cp,oc,cp
dihedral_coeff	10   -0.69000    0.00000    0.50970    0.00000    0.00950    0.00000  # cp,cp,oh,ho
dihedral_coeff	11    0.00000    0.00000    1.87690    0.00000    0.00000    0.00000  # hc,cp,cp,hc
dihedral_coeff	12    0.00000    0.00000    1.72340    0.00000    0.00000    0.00000  # hc,cp,cp,oc
dihedral_coeff	13    0.00000    0.00000    1.72340    0.00000    0.00000    0.00000  # hc,cp,cp,oh

# MiddleBondTorsion Coeffs

dihedral_coeff	 1 mbt    0.00000    0.00000    0.00000    1.41700  # c_0,cp,cp,cp
dihedral_coeff	 2 mbt    0.00000    0.00000    0.00000    1.41700  # c_0,cp,cp,hc
dihedral_coeff	 3 mbt    0.00000    0.00000    0.00000    1.48900  # cp,c_0,cp,cp
dihedral_coeff	 4 mbt    0.00000    0.00000    0.00000    1.48900  # cp,cp,c_0,o_1
dihedral_coeff	 5 mbt   27.59890   -2.31200    0.00000    1.41700  # cp,cp,cp,cp
dihedral_coeff	 6 mbt    0.00000   -1.15210    0.00000    1.41700  # cp,cp,cp,hc
dihedral_coeff	 7 mbt    0.00000    4.82550    0.00000    1.41700  # cp,cp,cp,oc
dihedral_coeff	 8 mbt    0.00000    4.82550    0.00000    1.41700  # cp,cp,cp,oh
dihedral_coeff	 9 mbt    0.00000    0.00000    0.00000    1.37680  # cp,cp,oc,cp
dihedral_coeff	10 mbt    1.15800    3.26970    3.51320    1.37680  # cp,cp,oh,ho
dihedral_coeff	11 mbt    0.00000    4.82280    0.00000    1.41700  # hc,cp,cp,hc
dihedral_coeff	12 mbt    0.00000    5.54320    0.00000    1.41700  # hc,cp,cp,oc
dihedral_coeff	13 mbt    0.00000    5.54320    0.00000    1.41700  # hc,cp,cp,oh

# EndBondTorsion Coeffs

dihedral_coeff	 1 ebt    0.00000    0.00000    0.00000    0.00000    0.00000    0.00000    1.48900    1.41700  # c_0,cp,cp,cp
dihedral_coeff	 2 ebt    0.00000    0.00000    0.00000    0.00000    0.00000    0.00000    1.48900    1.09820  # c_0,cp,cp,hc
dihedral_coeff	 3 ebt    0.00000    0.00000    0.00000    0.00000    0.00000    0.00000    1.48900    1.41700  # cp,c_0,cp,cp
dihedral_coeff	 4 ebt    0.00000    0.00000    0.00000    0.00000    0.00000    0.00000    1.41700    1.21600  # cp,cp,c_0,o_1
dihedral_coeff	 5 ebt   -0.11850    6.32040    0.00000   -0.11850    6.32040    0.00000    1.41700    1.41700  # cp,cp,cp,cp
dihedral_coeff	 6 ebt    0.00000   -6.89580    0.00000    0.00000   -0.46690    0.00000    1.41700    1.09820  # cp,cp,cp,hc
dihedral_coeff	 7 ebt    0.00000    0.26550    0.00000    0.00000    4.89050    0.00000    1.41700    1.37680  # cp,cp,cp,oc
dihedral_coeff	 8 ebt    0.00000    0.26550    0.00000    0.00000    4.89050    0.00000    1.41700    1.37680  # cp,cp,cp,oh
dihedral_coeff	 9 ebt    0.00000    0.00000    0.00000    0.00000    0.00000    0.00000    1.41700    1.37680  # cp,cp,oc,cp
dihedral_coeff	10 ebt    0.90000   -1.34560    1.19000    3.41320    0.58730   -0.13230    1.41700    0.96500  # cp,cp,oh,ho
dihedral_coeff	11 ebt    0.00000   -0.68900    0.00000    0.00000   -0.68900    0.00000    1.09820    1.09820  # hc,cp,cp,hc
dihedral_coeff	12 ebt    0.00000   -1.58670    0.00000    0.00000    4.26410    0.00000    1.09820    1.37680  # hc,cp,cp,oc
dihedral_coeff	13 ebt    0.00000   -1.58670    0.00000    0.00000    4.26410    0.00000    1.09820    1.37680  # hc,cp,cp,oh

# AngleTorsion Coeffs

dihedral_coeff	 1 at    0.00000    0.00000    0.00000    0.00000    0.00000    0.00000  108.40000  118.90000  # c_0,cp,cp,cp
dihedral_coeff	 2 at    0.00000    0.00000    0.00000    0.00000    0.00000    0.00000  108.40000  117.94000  # c_0,cp,cp,hc
dihedral_coeff	 3 at    0.00000    0.00000    0.00000    0.00000    0.00000    0.00000  110.58840  108.40000  # cp,c_0,cp,cp
dihedral_coeff	 4 at    0.00000    0.00000    0.00000    0.00000    0.00000    0.00000  108.40000  119.30000  # cp,cp,c_0,o_1
dihedral_coeff	 5 at    1.97670    1.02390    0.00000    1.97670    1.02390    0.00000  118.90000  118.90000  # cp,cp,cp,cp
dihedral_coeff	 6 at    0.00000    2.50140    0.00000    0.00000    2.71470    0.00000  118.90000  117.94000  # cp,cp,cp,hc
dihedral_coeff	 7 at    0.00000   10.01550    0.00000    0.00000    1.74040    0.00000  118.90000  123.42000  # cp,cp,cp,oc
dihedral_coeff	 8 at    0.00000   10.01550    0.00000    0.00000    1.74040    0.00000  118.90000  123.42000  # cp,cp,cp,oh
dihedral_coeff	 9 at    0.00000    0.00000    0.00000    0.00000    0.00000    0.00000  123.42000  109.50000  # cp,cp,oc,cp
dihedral_coeff	10 at   -5.13600   -1.01220    0.00000    4.68520    0.02300   -0.59800  123.42000  108.19000  # cp,cp,oh,ho
dihedral_coeff	11 at    0.00000    2.45010    0.00000    0.00000    2.45010    0.00000  117.94000  117.94000  # hc,cp,cp,hc
dihedral_coeff	12 at    0.00000    1.87290    0.00000    0.00000    2.57060    0.00000  117.94000  123.42000  # hc,cp,cp,oc
dihedral_coeff	13 at    0.00000    1.87290    0.00000    0.00000    2.57060    0.00000  117.94000  123.42000  # hc,cp,cp,oh

# AngleAngleTorsion Coeffs

dihedral_coeff	 1 aat    0.00000  108.40000  118.90000  # c_0,cp,cp,cp
dihedral_coeff	 2 aat    0.00000  108.40000  117.94000  # c_0,cp,cp,hc
dihedral_coeff	 3 aat    0.00000  110.58840  108.40000  # cp,c_0,cp,cp
dihedral_coeff	 4 aat    0.00000  108.40000  119.30000  # cp,cp,c_0,o_1
dihedral_coeff	 5 aat    0.00000  118.90000  118.90000  # cp,cp,cp,cp
dihedral_coeff	 6 aat   -4.81410  118.90000  117.94000  # cp,cp,cp,hc
dihedral_coeff	 7 aat  -21.02470  118.90000  123.42000  # cp,cp,cp,oc
dihedral_coeff	 8 aat  -21.02470  118.90000  123.42000  # cp,cp,cp,oh
dihedral_coeff	 9 aat    0.00000  123.42000  109.50000  # cp,cp,oc,cp
dihedral_coeff	10 aat   -4.60720  123.42000  108.19000  # cp,cp,oh,ho
dihedral_coeff	11 aat    0.35980  117.94000  117.94000  # hc,cp,cp,hc
dihedral_coeff	12 aat    4.22960  117.94000  123.42000  # hc,cp,cp,oc
dihedral_coeff	13 aat    4.22960  117.94000  123.42000  # hc,cp,cp,oh

# BondBond13 Coeffs

dihedral_coeff	 1 bb13    0.00000    1.48900    1.41700  # c_0,cp,cp,cp
dihedral_coeff	 2 bb13    0.00000    1.48900    1.09820  # c_0,cp,cp,hc
dihedral_coeff	 3 bb13    0.00000    1.48900    1.41700  # cp,c_0,cp,cp
dihedral_coeff	 4 bb13    0.00000    1.41700    1.21600  # cp,cp,c_0,o_1
dihedral_coeff	 5 bb13   53.00000    1.41700    1.41700  # cp,cp,cp,cp
dihedral_coeff	 6 bb13   -6.27410    1.41700    1.09820  # cp,cp,cp,hc
dihedral_coeff	 7 bb13   -2.24360    1.41700    1.37680  # cp,cp,cp,oc
dihedral_coeff	 8 bb13   -2.24360    1.41700    1.37680  # cp,cp,cp,oh
dihedral_coeff	 9 bb13    0.00000    1.41700    1.37680  # cp,cp,oc,cp
dihedral_coeff	10 bb13    1.15900    1.41700    0.96500  # cp,cp,oh,ho
dihedral_coeff	11 bb13   -1.70770    1.09820    1.09820  # hc,cp,cp,hc
dihedral_coeff	12 bb13    2.05170    1.09820    1.37680  # hc,cp,cp,oc
dihedral_coeff	13 bb13    2.05170    1.09820    1.37680  # hc,cp,cp,oh

# Improper Coeffs

improper_coeff	1   38.79490    0.00000  # c_0,cp,cp,o_1
improper_coeff	2    0.00000    0.00000  # cp,c_0,cp,cp
improper_coeff	3    4.89120    0.00000  # cp,cp,cp,hc
improper_coeff	4   13.04210    0.00000  # cp,cp,cp,oc
improper_coeff	5   13.04210    0.00000  # cp,cp,cp,oh

# AngleAngle Coeffs

improper_coeff	1 aa    0.00000    0.00000    0.00000  110.58840  119.30000  119.30000  # c_0,cp,cp,o_1
improper_coeff	2 aa    0.00000    0.00000    0.00000  108.40000  108.40000  118.90000  # cp,c_0,cp,cp
improper_coeff	3 aa    0.00000    0.00000    0.00000  118.90000  117.94000  117.94000  # cp,cp,cp,hc
improper_coeff	4 aa    0.00000    0.00000    0.00000  118.90000  123.42000  123.42000  # cp,cp,cp,oc
improper_coeff	5 aa    0.00000    0.00000    0.00000  118.90000  123.42000  123.42000  # cp,cp,cp,oh


# --- Thermo: stress tensor (pxx/pyy/pzz) required for elastic constant extraction ---
thermo_style custom step time temp press pxx pyy pzz lx ly lz vol density etotal
thermo_modify flush yes
thermo 100

# --- Trajectory (disabled by default — log is sufficient for elastic analysis) ---
# Dump disabled (thermo-only run)

# Velocities read from data file
# SHAKE disabled

# ── Phase 1: NVT pre-equilibration ─────────────────────────────────────────
# Brief re-thermalisation at T_TARGET before applying strain.
timestep 1
fix nvt_eq all nvt temp 300.0 300.0 100.0
run 200000

CITE-CITE-CITE-CITE-CITE-CITE-CITE-CITE-CITE-CITE-CITE-CITE-CITE

Your simulation uses code contributions which should be cited:

- GPU package (short-range, long-range and three-body potentials): doi:10.1016/j.cpc.2010.12.021, doi:10.1016/j.cpc.2011.10.012, doi:10.1016/j.cpc.2013.08.002, doi:10.1016/j.commatsci.2014.10.068, doi:10.1016/j.cpc.2016.10.020, doi:10.3233/APC200086

@Article{Brown11,
 author = {W. M. Brown and P. Wang and S. J. Plimpton and A. N. Tharrington},
 title = {Implementing Molecular Dynamics on Hybrid High Performance Computers---Short Range Forces},
 journal = {Comput.\ Phys.\ Commun.},
 year =    2011,
 volume =  182,
 pages =   {898--911},
 doi =     {10.1016/j.cpc.2010.12.021}
}

@Article{Brown12,
 author = {W. M. Brown and A. Kohlmeyer and S. J. Plimpton and A. N. Tharrington},
 title = {Implementing Molecular Dynamics on Hybrid High Performance Computers - Particle-Particle Particle-Mesh},
 journal = {Comput.\ Phys.\ Commun.},
 year =    2012,
 volume =  183,
 doi =     {10.1016/j.cpc.2011.10.012},
 pages =   {449--459}
}

@Article{Brown13,
 author = {W. M. Brown and Y. Masako},
 title = {Implementing Molecular Dynamics on Hybrid High Performance Computers---Three-Body Potentials},
 journal = {Comput.\ Phys.\ Commun.},
 year =    2013,
 volume =  184,
 pages =   {2785--2793},
 doi =     {10.1016/j.cpc.2013.08.002},
}

@Article{Trung15,
 author = {T. D. Nguyen and S. J. Plimpton},
 title = {Accelerating Dissipative Particle Dynamics Simulations for Soft Matter Systems},
 journal = {Comput.\ Mater.\ Sci.},
 year =    2015,
 doi =     {10.1016/j.commatsci.2014.10.068},
 volume =  100,
 pages =   {173--180}
}

@Article{Trung17,
 author = {T. D. Nguyen},
 title = {{GPU}-Accelerated {T}ersoff Potentials for Massively Parallel
    Molecular Dynamics Simulations},
 journal = {Comput.\ Phys.\ Commun.},
 year =    2017,
 doi =     {10.1016/j.cpc.2016.10.020},
 volume =  212,
 pages =   {113--122}
}

@inproceedings{Nikolskiy19,
 author = {V. Nikolskiy and V. Stegailov},
 title = {{GPU} Acceleration of Four-Site Water Models in {LAMMPS}},
 booktitle = {Proceedings of the International Conference on Parallel
    Computing (ParCo 2019), Prague, Czech Republic},
 doi =     {10.3233/APC200086},
 year =    2019
}

CITE-CITE-CITE-CITE-CITE-CITE-CITE-CITE-CITE-CITE-CITE-CITE-CITE

PPPM initialization ...
  using 12-bit tables for long-range coulomb
  G vector (1/distance) = 0.31284831
  grid = 30 30 30
  stencil order = 5
  estimated absolute RMS force accuracy = 0.00027919675
  estimated relative force accuracy = 8.4079272e-07
  using double precision KISS FFT
  3d grid and FFT values/proc = 23273 9000
Generated 21 of 21 mixed pair_coeff terms from sixthpower/sixthpower mixing rule
Neighbor list info ...
  update: every = 1 steps, delay = 0 steps, check = yes
  max neighbors/atom: 4000, page size: 100000
  master list distance cutoff = 11.5
  ghost atom cutoff = 11.5
  binsize = 5.75, bins = 7 7 7
  1 neighbor lists, perpetual/occasional/extra = 1 0 0
  (1) pair lj/class2/coul/long/gpu, perpetual
      attributes: full, newton on
      pair build: full/bin
      stencil: full/bin/3d
      bin: standard
Per MPI rank memory allocation (min/avg/max) = 17.69 | 17.7 | 17.71 Mbytes
   Step          Time           Temp          Press           Pxx            Pyy            Pzz             Lx             Ly             Lz           Volume        Density         TotEng    
         0   0              301.32344      667.04622      1149.8071      2640.4882     -1789.1567      36.367642      36.367642      36.367642      48100.038      1.1949246      12685.933    
       100   100            293.95427      962.69613      600.7284       1532.7105      754.64949      36.367642      36.367642      36.367642      48100.038      1.1949246      12679.626    
       200   200            301.84722      96.825395      1010.2405     -1119.7352      399.97089      36.367642      36.367642      36.367642      48100.038      1.1949246      12679.277    
       300   300            302.95224     -1336.1152     -441.36069      142.63699     -3709.622       36.367642      36.367642      36.367642      48100.038      1.1949246      12719.683    
       400   400            302.18821     -567.90344      750.94319     -2109.938      -344.71555      36.367642      36.367642      36.367642      48100.038      1.1949246      12769.485    
       500   500            302.39159      506.74392      1643.7568     -604.67169      481.14666      36.367642      36.367642      36.367642      48100.038      1.1949246      12762.594    
       600   600            297.55725      1663.1302      2404.3695      333.51636      2251.5049      36.367642      36.367642      36.367642      48100.038      1.1949246      12651.243    
       700   700            302.46508      273.96034     -13.367523     -783.40277      1618.6513      36.367642      36.367642      36.367642      48100.038      1.1949246      12624.708    
       800   800            302.75871     -291.3661      -393.17293     -383.81398     -97.111382      36.367642      36.367642      36.367642      48100.038      1.1949246      12664.388    
       900   900            298.18211      1607.0612      2396.8936      2973.2469     -548.95671      36.367642      36.367642      36.367642      48100.038      1.1949246      12725.187    
      1000   1000           305.13951     -1837.2026     -693.93435     -1465.4275     -3352.2459      36.367642      36.367642      36.367642      48100.038      1.1949246      12777.992    
      1100   1100           306.47266      1621.5812      3249.8579      1052.4263      562.45942      36.367642      36.367642      36.367642      48100.038      1.1949246      12913.216    
      1200   1200           301.39582      800.69614      1742.1967      2518.6469     -1858.7552      36.367642      36.367642      36.367642      48100.038      1.1949246      12869.278    
      1300   1300           301.1352       77.879858      515.81316      987.50964     -1269.6832      36.367642      36.367642      36.367642      48100.038      1.1949246      12753.923    
      1400   1400           298.67085     -856.80355     -657.78219      793.42904     -2706.0575      36.367642      36.367642      36.367642      48100.038      1.1949246      12687.263    
      1500   1500           297.7015      -513.66695     -1170.2708      10.933318     -381.6634       36.367642      36.367642      36.367642      48100.038      1.1949246      12648.491    
      1600   1600           297.50088     -125.63859      2668.2455     -959.32796     -2085.8333      36.367642      36.367642      36.367642      48100.038      1.1949246      12630.621    
      1700   1700           297.38781     -96.850548      946.81242     -1015.7238     -221.64024      36.367642      36.367642      36.367642      48100.038      1.1949246      12691.861    
      1800   1800           303.83224      474.12205      1217.9856     -1195.5805      1399.9611      36.367642      36.367642      36.367642      48100.038      1.1949246      12783.496    
      1900   1900           303.94047      63.845597      1283.0682     -1533.9777      442.44634      36.367642      36.367642      36.367642      48100.038      1.1949246      12779.144    
      2000   2000           299.84993      88.240772      1081.5021     -1708.7467      891.96691      36.367642      36.367642      36.367642      48100.038      1.1949246      12666.587    
      2100   2100           295.96411     -931.75917     -1168.3024      31.311967     -1658.287       36.367642      36.367642      36.367642      48100.038      1.1949246      12615.544    
      2200   2200           295.68177     -160.11039     -323.66889      1235.7287     -1392.391       36.367642      36.367642      36.367642      48100.038      1.1949246      12661.011    
      2300   2300           298.34243     -609.74076     -351.14125      414.45649     -1892.5375      36.367642      36.367642      36.367642      48100.038      1.1949246      12731.528    
      2400   2400           297.68102     -280.95303     -1420.3837      1092.1965     -514.67186      36.367642      36.367642      36.367642      48100.038      1.1949246      12750.296    
      2500   2500           302.34676      23.580261      1294.1619     -952.54736     -270.8738       36.367642      36.367642      36.367642      48100.038      1.1949246      12680.563    
      2600   2600           292.6898       865.88376      1741.3911      3212.6979     -2356.4378      36.367642      36.367642      36.367642      48100.038      1.1949246      12562.658    
      2700   2700           295.82811      144.63676     -135.34141      1692.2393     -1122.9876      36.367642      36.367642      36.367642      48100.038      1.1949246      12613.483    
      2800   2800           299.27973      635.47301      1482.5267     -67.307337      491.19965      36.367642      36.367642      36.367642      48100.038      1.1949246      12691.95     
      2900   2900           300.27382     -644.54989     -1179.8286     -957.11679      203.29572      36.367642      36.367642      36.367642      48100.038      1.1949246      12724.811    
      3000   3000           302.50789      519.98409     -407.65956      1127.9434      839.66843      36.367642      36.367642      36.367642      48100.038      1.1949246      12707.187    
      3100   3100           285.97169     -1218.9247     -3365.7274     -254.78845     -36.258081      36.367642      36.367642      36.367642      48100.038      1.1949246      12594.953    
      3200   3200           302.01319     -1251.8056     -2193.823      -859.77156     -701.82237      36.367642      36.367642      36.367642      48100.038      1.1949246      12568.58     
      3300   3300           300.14775     -653.96823      817.15176     -2107.6546     -671.4019       36.367642      36.367642      36.367642      48100.038      1.1949246      12635.735    
      3400   3400           302.96371     -702.17605      89.997922     -2196.7407      0.21460592     36.367642      36.367642      36.367642      48100.038      1.1949246      12683.847    
      3500   3500           303.62258     -94.598672      511.72239      1634.5614     -2430.0798      36.367642      36.367642      36.367642      48100.038      1.1949246      12703.594    
      3600   3600           301.54789     -112.78291     -624.4067       853.05543     -566.99746      36.367642      36.367642      36.367642      48100.038      1.1949246      12717.897    
      3700   3700           299.35235     -777.05856     -1190.5385     -83.13226      -1057.5049      36.367642      36.367642      36.367642      48100.038      1.1949246      12714.813    
      3800   3800           299.17661     -1143.3073      37.490238     -2530.7341     -936.67804      36.367642      36.367642      36.367642      48100.038      1.1949246      12645.122    
      3900   3900           292.95162      572.0757       636.20494      1364.8491     -284.8269       36.367642      36.367642      36.367642      48100.038      1.1949246      12588.188    
      4000   4000           301.1734      -176.477        759.86563     -1042.2369     -247.05975      36.367642      36.367642      36.367642      48100.038      1.1949246      12643.881    
      4100   4100           296.31008     -2885.3614     -2554.3019     -3119.8843     -2981.8979      36.367642      36.367642      36.367642      48100.038      1.1949246      12743.57     
      4200   4200           299.75037      882.51672      1648.6482     -391.40298      1390.3049      36.367642      36.367642      36.367642      48100.038      1.1949246      12743.211    
      4300   4300           304.23433     -21.022645     -471.15135     -251.13443      659.21785      36.367642      36.367642      36.367642      48100.038      1.1949246      12698.706    
      4400   4400           299.39193      582.0196       970.3071       751.16566      24.586054      36.367642      36.367642      36.367642      48100.038      1.1949246      12637.422    
      4500   4500           292.98886     -2092.5064     -272.73246     -2585.8965     -3418.8902      36.367642      36.367642      36.367642      48100.038      1.1949246      12536.026    
      4600   4600           291.58976      1177.9784      2115.1877      771.19918      647.54832      36.367642      36.367642      36.367642      48100.038      1.1949246      12505.271    
      4700   4700           295.92981     -628.19536     -907.31247     -1058.0911      80.817523      36.367642      36.367642      36.367642      48100.038      1.1949246      12657.669    
      4800   4800           297.67291     -650.69659     -2090.5708      681.46673     -542.98567      36.367642      36.367642      36.367642      48100.038      1.1949246      12711.399    
      4900   4900           304.716       -272.6285      -953.78219      1057.6731     -921.77641      36.367642      36.367642      36.367642      48100.038      1.1949246      12744.739    
      5000   5000           301.39724      738.60143      1104.727       903.28014      207.79713      36.367642      36.367642      36.367642      48100.038      1.1949246      12700.004    
      5100   5100           298.87246     -976.36844     -1692.9386      1489.9365     -2726.1032      36.367642      36.367642      36.367642      48100.038      1.1949246      12629.212    
      5200   5200           296.55372     -495.4705      -1398.1576      11.20825      -99.462158      36.367642      36.367642      36.367642      48100.038      1.1949246      12616.037    
      5300   5300           302.52351     -1723.1336     -555.78885     -930.24364     -3683.3684      36.367642      36.367642      36.367642      48100.038      1.1949246      12753.56     
      5400   5400           299.05635      748.13521      552.5587       745.82008      946.02685      36.367642      36.367642      36.367642      48100.038      1.1949246      12782.013    
      5500   5500           297.43548      2044.825       3505.0011      938.54414      1690.9296      36.367642      36.367642      36.367642      48100.038      1.1949246      12710.033    
      5600   5600           297.86871     -510.42442     -222.34479     -56.15588      -1252.7726      36.367642      36.367642      36.367642      48100.038      1.1949246      12656.955    
      5700   5700           295.85541      1430.9429      812.13014      2602.4664      878.23225      36.367642      36.367642      36.367642      48100.038      1.1949246      12655.887    
      5800   5800           299.91507      540.93216      364.69917      1396.5766     -138.47926      36.367642      36.367642      36.367642      48100.038      1.1949246      12695.565    
      5900   5900           303.13735     -1660.5531     -3965.4006     -514.03233     -502.2264       36.367642      36.367642      36.367642      48100.038      1.1949246      12838.263    
      6000   6000           304.41754     -278.87581     -979.84768      1210.3192     -1067.0989      36.367642      36.367642      36.367642      48100.038      1.1949246      12838.836    
      6100   6100           304.48491     -355.37906      440.16001     -1621.5228      115.22557      36.367642      36.367642      36.367642      48100.038      1.1949246      12752.712    
      6200   6200           300.68617     -994.54333     -1066.2436      240.60126     -2157.9876      36.367642      36.367642      36.367642      48100.038      1.1949246      12684.34     
      6300   6300           300.17079      105.10975      918.50539      306.62547     -909.80161      36.367642      36.367642      36.367642      48100.038      1.1949246      12667.667    
      6400   6400           298.5127      -265.05831     -430.49598     -1739.5356      1374.8567      36.367642      36.367642      36.367642      48100.038      1.1949246      12678.607    
      6500   6500           306.47754      702.28884      1625.1394      141.33062      340.39651      36.367642      36.367642      36.367642      48100.038      1.1949246      12769.611    
      6600   6600           308.57479     -201.20894      1039.2942     -998.11934     -644.8017       36.367642      36.367642      36.367642      48100.038      1.1949246      12822.207    
      6700   6700           295.84015     -3043.4275     -3611.6868     -2251.6978     -3266.8981      36.367642      36.367642      36.367642      48100.038      1.1949246      12738.116    
      6800   6800           295.92865      577.30858      1317.1056      232.31295      182.50715      36.367642      36.367642      36.367642      48100.038      1.1949246      12688.419    
      6900   6900           303.54913      1392.3031      423.75316      863.84266      2889.3136      36.367642      36.367642      36.367642      48100.038      1.1949246      12689.021    
      7000   7000           291.13819      18.391593      641.23596     -891.47447      305.41328      36.367642      36.367642      36.367642      48100.038      1.1949246      12694.282    
      7100   7100           302.18241     -579.52773      76.190622     -1178.9198     -635.85396      36.367642      36.367642      36.367642      48100.038      1.1949246      12692.801    
      7200   7200           299.81281     -1014.8936     -657.39762     -1649.7084     -737.57462      36.367642      36.367642      36.367642      48100.038      1.1949246      12708.025    
      7300   7300           296.55654     -1247.5234      531.29905     -2037.0133     -2236.8558      36.367642      36.367642      36.367642      48100.038      1.1949246      12722.874    
      7400   7400           304.62738      895.51152      2076.3629     -1015.7581      1625.9298      36.367642      36.367642      36.367642      48100.038      1.1949246      12731.192    
      7500   7500           307.01576     -16.082002      342.24247     -928.45491      537.96643      36.367642      36.367642      36.367642      48100.038      1.1949246      12700.355    
      7600   7600           296.7301       570.40602      851.67724     -522.01054      1381.5514      36.367642      36.367642      36.367642      48100.038      1.1949246      12613.533    
      7700   7700           296.15753     -41.228819     -1172.2936     -283.40863      1332.0158      36.367642      36.367642      36.367642      48100.038      1.1949246      12600.956    
      7800   7800           298.20102      147.80902     -1072.3814      39.774974      1476.0335      36.367642      36.367642      36.367642      48100.038      1.1949246      12702.131    
      7900   7900           301.80104     -582.94372      293.98862     -1255.5226     -787.29714      36.367642      36.367642      36.367642      48100.038      1.1949246      12780.18     
      8000   8000           299.97301      474.72243      488.96692     -339.75214      1274.9525      36.367642      36.367642      36.367642      48100.038      1.1949246      12754.237    
      8100   8100           299.91172      676.11295      1606.961       131.51368      289.86417      36.367642      36.367642      36.367642      48100.038      1.1949246      12682.456    
      8200   8200           298.00455     -1317.1304     -905.05393     -881.84397     -2164.4934      36.367642      36.367642      36.367642      48100.038      1.1949246      12630.208    
      8300   8300           293.80906      595.21554      804.59867      693.48291      287.56503      36.367642      36.367642      36.367642      48100.038      1.1949246      12651.911    
      8400   8400           306.43387      1082.1531      499.6305       835.04466      1911.7843      36.367642      36.367642      36.367642      48100.038      1.1949246      12806.72     
      8500   8500           303.08471     -531.73121     -44.460892     -312.94988     -1237.7829      36.367642      36.367642      36.367642      48100.038      1.1949246      12807.006    
      8600   8600           308.75397      12.757044      1833.672      -303.76627     -1491.6346      36.367642      36.367642      36.367642      48100.038      1.1949246      12720.502    
      8700   8700           294.40518      150.79375      75.36796      -286.37167      663.38497      36.367642      36.367642      36.367642      48100.038      1.1949246      12657.167    
      8800   8800           300.89044     -1438.5541     -1646.4676     -220.2764      -2448.9183      36.367642      36.367642      36.367642      48100.038      1.1949246      12662.228    
      8900   8900           296.61836     -128.13196     -1414.5845      203.36579      826.8228       36.367642      36.367642      36.367642      48100.038      1.1949246      12709.463    
      9000   9000           310.22239     -838.17292     -1692.2791     -1017.7153      195.4756       36.367642      36.367642      36.367642      48100.038      1.1949246      12836.507    
      9100   9100           305.85019     -627.96963     -471.94264      379.66201     -1791.6283      36.367642      36.367642      36.367642      48100.038      1.1949246      12839.943    
      9200   9200           304.2457       1352.2804      2385.4842      317.84531      1353.5119      36.367642      36.367642      36.367642      48100.038      1.1949246      12753.014    
      9300   9300           297.83097     -560.45375     -2176.3072      1590.4132     -1095.4672      36.367642      36.367642      36.367642      48100.038      1.1949246      12699.423    
      9400   9400           298.97739      39.575609      402.67263     -415.85815      131.91235      36.367642      36.367642      36.367642      48100.038      1.1949246      12697.034    
      9500   9500           297.89148     -336.0277       266.30553     -524.88612     -749.5025       36.367642      36.367642      36.367642      48100.038      1.1949246      12701.581    
      9600   9600           299.59594      773.575        1384.1774      2341.8013     -1405.2537      36.367642      36.367642      36.367642      48100.038      1.1949246      12734.082    
      9700   9700           300.90095      2013.7875      3043.4743      2739.3882      258.50014      36.367642      36.367642      36.367642      48100.038      1.1949246      12760.589    
      9800   9800           305.39046     -1202.2969     -512.88102     -326.40237     -2767.6072      36.367642      36.367642      36.367642      48100.038      1.1949246      12711.756    
      9900   9900           294.73402     -265.4372      -165.47042      740.59739     -1371.4386      36.367642      36.367642      36.367642      48100.038      1.1949246      12628.437    
     10000   10000          297.39347     -241.35637      137.96055     -361.35887     -500.6708       36.367642      36.367642      36.367642      48100.038      1.1949246      12606.673    
     10100   10100          298.08844      905.2566       2096.6949      780.29546     -161.22055      36.367642      36.367642      36.367642      48100.038      1.1949246      12686.041    
     10200   10200          308.6         -823.00065     -1512.4816     -786.32693     -170.19347      36.367642      36.367642      36.367642      48100.038      1.1949246      12797.241    
     10300   10300          306.62856     -513.88307     -123.61507     -718.04357     -699.99058      36.367642      36.367642      36.367642      48100.038      1.1949246      12767.423    
     10400   10400          300.69121     -127.09415      2237.9333     -2094.7934     -524.42235      36.367642      36.367642      36.367642      48100.038      1.1949246      12689.613    
     10500   10500          300.29299      412.75895      499.20705      60.447488      678.62231      36.367642      36.367642      36.367642      48100.038      1.1949246      12643.661    
     10600   10600          301.08978      1364.6723      2164.881       1915.1079      14.028139      36.367642      36.367642      36.367642      48100.038      1.1949246      12664.783    
     10700   10700          301.9078       1115.8711      229.12333      1709.0665      1409.4234      36.367642      36.367642      36.367642      48100.038      1.1949246      12720.831    
     10800   10800          307.73571     -597.56141     -1905.4182      154.62081     -41.886823      36.367642      36.367642      36.367642      48100.038      1.1949246      12876.287    
     10900   10900          307.39411     -144.94668      389.42809     -274.33715     -549.93097      36.367642      36.367642      36.367642      48100.038      1.1949246      12887.578    
     11000   11000          299.60445      614.79773      997.21848      903.44098     -56.266266      36.367642      36.367642      36.367642      48100.038      1.1949246      12778.594    
     11100   11100          301.07193     -398.65693     -736.85065     -785.51952      326.39939      36.367642      36.367642      36.367642      48100.038      1.1949246      12698.385    
     11200   11200          300.64867      44.322657      1146.6122     -289.64799     -723.99628      36.367642      36.367642      36.367642      48100.038      1.1949246      12657.555    
     11300   11300          297.12675     -414.32222     -26.315826     -798.93993     -417.7109       36.367642      36.367642      36.367642      48100.038      1.1949246      12680.703    
     11400   11400          301.11278     -328.76673      394.91471      30.826458     -1412.0414      36.367642      36.367642      36.367642      48100.038      1.1949246      12773.627    
     11500   11500          304.96493     -816.94249      948.98279     -1286.6109     -2113.1994      36.367642      36.367642      36.367642      48100.038      1.1949246      12827.287    
     11600   11600          304.83309      2402.0146      3589.5125      819.53246      2796.9989      36.367642      36.367642      36.367642      48100.038      1.1949246      12735.192    
     11700   11700          299.6006      -144.47376     -1407.9785     -1433.6677      2408.2249      36.367642      36.367642      36.367642      48100.038      1.1949246      12632.982    
     11800   11800          297.69385     -82.220251     -1286.4887     -17.826797      1057.6547      36.367642      36.367642      36.367642      48100.038      1.1949246      12638.618    
     11900   11900          300.89887     -225.90508     -2037.5819      18.8459        1341.0208      36.367642      36.367642      36.367642      48100.038      1.1949246      12691.452    
     12000   12000          300.60889     -55.14088       1558.4756     -250.35526     -1473.543       36.367642      36.367642      36.367642      48100.038      1.1949246      12749.187    
     12100   12100          304.07976      1538.7502      1552.1112      2127.5922      936.54707      36.367642      36.367642      36.367642      48100.038      1.1949246      12797.764    
     12200   12200          307.06535      1391.0158      1384.674       1382.1754      1406.1979      36.367642      36.367642      36.367642      48100.038      1.1949246      12813.93     
     12300   12300          297.41211     -341.32565     -840.92572      572.33984     -755.39106      36.367642      36.367642      36.367642      48100.038      1.1949246      12685.632    
     12400   12400          295.72889      193.11985      1523.116      -388.47308     -555.28338      36.367642      36.367642      36.367642      48100.038      1.1949246      12646.09     
     12500   12500          299.16216     -133.28523      671.47754     -675.59968     -395.73355      36.367642      36.367642      36.367642      48100.038      1.1949246      12674.307    
     12600   12600          300.34294     -1217.7173      35.652574     -3276.9746     -411.82981      36.367642      36.367642      36.367642      48100.038      1.1949246      12769.7      
     12700   12700          305.5467      -23.285603     -452.74446      345.71297      37.174679      36.367642      36.367642      36.367642      48100.038      1.1949246      12779.103    
     12800   12800          301.04599      343.38107      1051.5543      415.49594     -436.90702      36.367642      36.367642      36.367642      48100.038      1.1949246      12708.503    
     12900   12900          292.18008     -1328.9547     -1641.5077      86.545568     -2431.9018      36.367642      36.367642      36.367642      48100.038      1.1949246      12586.974    
     13000   13000          298.48014      1778.7173      3013.9666      280.25753      2041.9278      36.367642      36.367642      36.367642      48100.038      1.1949246      12576.254    
     13100   13100          295.80333      523.58262      550.15544      296.38159      724.21082      36.367642      36.367642      36.367642      48100.038      1.1949246      12637.266    
     13200   13200          304.58017      225.45591      1276.9132      477.77475     -1078.3202      36.367642      36.367642      36.367642      48100.038      1.1949246      12705.41     
     13300   13300          300.83454     -638.12892     -236.6726       1612.3434     -3290.0576      36.367642      36.367642      36.367642      48100.038      1.1949246      12759.411    
     13400   13400          307.58915     -1456.1165     -1086.6188      508.19525     -3789.9258      36.367642      36.367642      36.367642      48100.038      1.1949246      12793.888    
     13500   13500          291.17471      1398.7087      2262.6099      359.63551      1573.8808      36.367642      36.367642      36.367642      48100.038      1.1949246      12733.291    
     13600   13600          300.71633      92.514771      790.19495      65.063451     -577.71409      36.367642      36.367642      36.367642      48100.038      1.1949246      12619.593    
     13700   13700          293.41844     -308.51836      95.5504       -343.84461     -677.26087      36.367642      36.367642      36.367642      48100.038      1.1949246      12625.617    
     13800   13800          304.11568     -1257.0101     -2032.2717     -1519.9263     -218.83252      36.367642      36.367642      36.367642      48100.038      1.1949246      12702.425    
     13900   13900          302.43095     -1322.5891      900.07371     -2060.5842     -2807.257       36.367642      36.367642      36.367642      48100.038      1.1949246      12729.349    
     14000   14000          299.92183     -296.8112       403.01358      739.78759     -2033.2348      36.367642      36.367642      36.367642      48100.038      1.1949246      12720.188    
     14100   14100          298.36577      2219.1104      3351.1147      2722.7978      583.41873      36.367642      36.367642      36.367642      48100.038      1.1949246      12708.82     
     14200   14200          297.87025     -1634.2591     -1773.9702     -1447.0084     -1681.7987      36.367642      36.367642      36.367642      48100.038      1.1949246      12703.901    
     14300   14300          301.43208      877.44008      1819.0304      1611.0334     -797.74355      36.367642      36.367642      36.367642      48100.038      1.1949246      12702.772    
     14400   14400          299.72151     -2087.3926     -2860.9194     -971.22292     -2430.0354      36.367642      36.367642      36.367642      48100.038      1.1949246      12706.04     
     14500   14500          302.94801      474.90389      449.148       -365.45867      1341.0223      36.367642      36.367642      36.367642      48100.038      1.1949246      12727.194    
     14600   14600          296.96528      1820.2042      2162.2986      2091.4255      1206.8885      36.367642      36.367642      36.367642      48100.038      1.1949246      12735.296    
     14700   14700          295.1414       1876.8449      1851.0307      3025.7881      753.71587      36.367642      36.367642      36.367642      48100.038      1.1949246      12707.513    
     14800   14800          293.50086     -77.820397      617.79867      661.95226     -1513.2121      36.367642      36.367642      36.367642      48100.038      1.1949246      12635.819    
     14900   14900          297.03495      841.71498      64.903333      3608.7754     -1148.5338      36.367642      36.367642      36.367642      48100.038      1.1949246      12619.24     
     15000   15000          298.76568     -2043.3343     -1510.406      -1902.8117     -2716.7853      36.367642      36.367642      36.367642      48100.038      1.1949246      12729.032    
     15100   15100          304.37333      914.99183      2143.509       450.08103      151.38547      36.367642      36.367642      36.367642      48100.038      1.1949246      12799.388    
     15200   15200          300.34299     -1098.2843     -864.33233     -1043.2187     -1387.3019      36.367642      36.367642      36.367642      48100.038      1.1949246      12743.009    
     15300   15300          294.83234      1493.2193      788.44178      2893.4045      797.81149      36.367642      36.367642      36.367642      48100.038      1.1949246      12660.12     
     15400   15400          302.49283      455.41314      2089.4504      2123.5567     -2846.7677      36.367642      36.367642      36.367642      48100.038      1.1949246      12656.749    
     15500   15500          301.52041     -376.04315      113.48315     -1217.9902     -23.622379      36.367642      36.367642      36.367642      48100.038      1.1949246      12685.538    
     15600   15600          304.292        1070.7409      792.60224      2097.8717      321.74887      36.367642      36.367642      36.367642      48100.038      1.1949246      12791.348    
     15700   15700          308.32673     -314.97523      444.8436      -1844.0996      454.33033      36.367642      36.367642      36.367642      48100.038      1.1949246      12851.704    
     15800   15800          304.17768      614.8476       292.2511       237.69295      1314.5987      36.367642      36.367642      36.367642      48100.038      1.1949246      12769.439    
     15900   15900          300.31536      555.07384      1112.5834     -285.41908      838.05726      36.367642      36.367642      36.367642      48100.038      1.1949246      12707.177    
     16000   16000          299.75466     -595.16502     -1320.0721     -472.73854      7.3155461      36.367642      36.367642      36.367642      48100.038      1.1949246      12677.75     
     16100   16100          297.29881     -781.2661      -395.3262      -1223.8331     -724.63896      36.367642      36.367642      36.367642      48100.038      1.1949246      12673.37     
     16200   16200          306.06251      438.56996      214.03697      2061.0014     -959.32847      36.367642      36.367642      36.367642      48100.038      1.1949246      12698.555    
     16300   16300          301.70775      1857.1924      2887.2134      563.36688      2120.9968      36.367642      36.367642      36.367642      48100.038      1.1949246      12751.768    
     16400   16400          302.16115      493.79066      1563.1974      1599.3207     -1681.1461      36.367642      36.367642      36.367642      48100.038      1.1949246      12785.724    
     16500   16500          304.80465      232.79741      1039.4867     -846.11865      505.02423      36.367642      36.367642      36.367642      48100.038      1.1949246      12782.542    
     16600   16600          299.23555      744.45597      731.47532      2589.6295     -1087.7369      36.367642      36.367642      36.367642      48100.038      1.1949246      12693.511    
     16700   16700          301.63694     -816.04267     -1664.1017      753.75549     -1537.7818      36.367642      36.367642      36.367642      48100.038      1.1949246      12609.056    
     16800   16800          298.93317      177.92576     -2643.5573      1165.7092      2011.6255      36.367642      36.367642      36.367642      48100.038      1.1949246      12621.922    
     16900   16900          300.71612      823.22325      1583.2292     -248.89397      1135.3346      36.367642      36.367642      36.367642      48100.038      1.1949246      12703.53     
     17000   17000          305.39161     -423.52458     -389.3806      -783.60546     -97.587684      36.367642      36.367642      36.367642      48100.038      1.1949246      12723.278    
     17100   17100          299.53362     -1101.0339     -2091.0849     -1222.6966      10.679632      36.367642      36.367642      36.367642      48100.038      1.1949246      12702.789    
     17200   17200          297.83086      415.13383      418.04803      488.12982      339.22363      36.367642      36.367642      36.367642      48100.038      1.1949246      12678.597    
     17300   17300          300.51373     -1430.1772     -1519.6477     -1876.6182     -894.26583      36.367642      36.367642      36.367642      48100.038      1.1949246      12654.36     
     17400   17400          297.54813      188.78549      1015.7883     -471.91896      22.487148      36.367642      36.367642      36.367642      48100.038      1.1949246      12667.249    
     17500   17500          303.01995      1326.8502      2251.5297     -128.9369       1857.9579      36.367642      36.367642      36.367642      48100.038      1.1949246      12741.227    
     17600   17600          299.89913      505.39161      1324.1552     -35.760395      227.78002      36.367642      36.367642      36.367642      48100.038      1.1949246      12770.009    
     17700   17700          299.7509       721.72525      976.36314      846.79604      342.01656      36.367642      36.367642      36.367642      48100.038      1.1949246      12697.943    
     17800   17800          294.98779     -155.91472     -113.92563      109.10188     -462.92042      36.367642      36.367642      36.367642      48100.038      1.1949246      12629.684    
     17900   17900          299.36699      511.05808     -235.30661      260.09715      1508.3837      36.367642      36.367642      36.367642      48100.038      1.1949246      12653.957    
     18000   18000          298.09902      1683.2657      1562.8296      1002.2705      2484.6971      36.367642      36.367642      36.367642      48100.038      1.1949246      12729.425    
     18100   18100          302.16243      22.403901     -279.79629      316.70232      30.30567       36.367642      36.367642      36.367642      48100.038      1.1949246      12743.769    
     18200   18200          296.74071     -412.7837      -370.64975     -260.13149     -607.56986      36.367642      36.367642      36.367642      48100.038      1.1949246      12611.413    
     18300   18300          298.79698      1021.7546      2954.1745      85.607539      25.481923      36.367642      36.367642      36.367642      48100.038      1.1949246      12570.985    
     18400   18400          294.94586      252.81604     -1413.4363      1125.3121      1046.5723      36.367642      36.367642      36.367642      48100.038      1.1949246      12640.396    
     18500   18500          299.21664     -289.03963      415.59406      2183.0128     -3465.7258      36.367642      36.367642      36.367642      48100.038      1.1949246      12731.57     
     18600   18600          304.69072      631.85115      1128.8317      1340.7669     -574.04514      36.367642      36.367642      36.367642      48100.038      1.1949246      12765.929    
     18700   18700          297.19069     -1439.4891     -327.96531     -1958.2707     -2032.2312      36.367642      36.367642      36.367642      48100.038      1.1949246      12721.342    
     18800   18800          297.18138      1894.7564      3730.3003      2037.4069     -83.437996      36.367642      36.367642      36.367642      48100.038      1.1949246      12615.89     
     18900   18900          295.96843      1270.4473      3096.8807      293.38376      421.07755      36.367642      36.367642      36.367642      48100.038      1.1949246      12597.584    
     19000   19000          303.11205     -1237.195      -245.79647     -726.95667     -2738.8318      36.367642      36.367642      36.367642      48100.038      1.1949246      12729.684    
     19100   19100          304.22322      1166.652       3170.9249      467.35146     -138.32032      36.367642      36.367642      36.367642      48100.038      1.1949246      12788.265    
     19200   19200          303.70451      504.35324     -535.87511     -231.74928      2280.6841      36.367642      36.367642      36.367642      48100.038      1.1949246      12716.49     
     19300   19300          299.98942     -185.93745     -162.79271      874.41115     -1269.4308      36.367642      36.367642      36.367642      48100.038      1.1949246      12645.634    
     19400   19400          304.02134      498.94786      1498.8635      318.13496     -320.15483      36.367642      36.367642      36.367642      48100.038      1.1949246      12634.515    
     19500   19500          300.68505     -717.14484     -269.73898      40.388048     -1922.0836      36.367642      36.367642      36.367642      48100.038      1.1949246      12698.873    
     19600   19600          298.35134      1084.1705      2348.8177      1373.9323     -470.2385       36.367642      36.367642      36.367642      48100.038      1.1949246      12808.032    
     19700   19700          301.97173     -2336.5682     -1122.0869     -2688.2952     -3199.3226      36.367642      36.367642      36.367642      48100.038      1.1949246      12797.391    
     19800   19800          299.98574     -151.63006     -143.05735      1030.26       -1342.0928      36.367642      36.367642      36.367642      48100.038      1.1949246      12744.014    
     19900   19900          298.45992      1191.6598      1470.8974      539.51156      1564.5703      36.367642      36.367642      36.367642      48100.038      1.1949246      12688.948    
     20000   20000          300.91938     -669.02266     -1768.0916      68.33172      -307.30808      36.367642      36.367642      36.367642      48100.038      1.1949246      12672.217    
     20100   20100          298.90546      729.41204      1621.7057     -1192.7453      1759.2757      36.367642      36.367642      36.367642      48100.038      1.1949246      12657.23     
     20200   20200          298.1225      -27.246786     -505.99393     -889.78851      1314.0421      36.367642      36.367642      36.367642      48100.038      1.1949246      12678.766    
     20300   20300          303.34635      671.97301      2835.3479      433.66685     -1253.0957      36.367642      36.367642      36.367642      48100.038      1.1949246      12807.345    
     20400   20400          304.35879      461.47955      404.38684     -143.83736      1123.8892      36.367642      36.367642      36.367642      48100.038      1.1949246      12782.81     
     20500   20500          300.01676     -1257.4016     -2364.084      -533.04138     -875.07961      36.367642      36.367642      36.367642      48100.038      1.1949246      12691.293    
     20600   20600          294.6752       158.33069      2165.9628      331.97547     -2022.9462      36.367642      36.367642      36.367642      48100.038      1.1949246      12661.948    
     20700   20700          298.15049      236.2123       984.89376     -1989.4552      1713.1984      36.367642      36.367642      36.367642      48100.038      1.1949246      12683.923    
     20800   20800          303.40717      1890.7771      1987.1626      1591.5005      2093.6681      36.367642      36.367642      36.367642      48100.038      1.1949246      12719.411    
     20900   20900          302.59513     -985.88852     -3267.5181     -235.96698      545.81956      36.367642      36.367642      36.367642      48100.038      1.1949246      12788.484    
     21000   21000          311.47862      962.06542      2047.3379      265.04531      573.81309      36.367642      36.367642      36.367642      48100.038      1.1949246      12855.538    
     21100   21100          304.84329      993.15684      2875.5967      1234.0064     -1130.1326      36.367642      36.367642      36.367642      48100.038      1.1949246      12749.989    
     21200   21200          298.33453      247.94986      4103.5722     -2397.0009     -962.72177      36.367642      36.367642      36.367642      48100.038      1.1949246      12680.509    
     21300   21300          297.93181      3031.4277      5376.0117      940.14943      2778.122       36.367642      36.367642      36.367642      48100.038      1.1949246      12671.33     
     21400   21400          297.78118     -540.96839     -448.47608     -1753.3569      578.92781      36.367642      36.367642      36.367642      48100.038      1.1949246      12652.91     
     21500   21500          300.20712      870.54924      877.69088     -231.05691      1965.0137      36.367642      36.367642      36.367642      48100.038      1.1949246      12610.878    
     21600   21600          292.94296     -1994.8885     -3801.0163     -1079.4706     -1104.1786      36.367642      36.367642      36.367642      48100.038      1.1949246      12579.827    
     21700   21700          292.34451      772.30965      351.85103      493.91087      1471.167       36.367642      36.367642      36.367642      48100.038      1.1949246      12657.9      
     21800   21800          302.608        1029.2585      1947.1608      1197.9072     -57.292557      36.367642      36.367642      36.367642      48100.038      1.1949246      12755.425    
     21900   21900          302.03852      506.66288      737.1542       1594.3063     -811.47182      36.367642      36.367642      36.367642      48100.038      1.1949246      12762.51     
     22000   22000          300.59218      56.804126      736.06394     -1504.8407      939.18911      36.367642      36.367642      36.367642      48100.038      1.1949246      12726.597    
     22100   22100          299.17326     -451.64938     -631.83033     -1056.0604      332.94257      36.367642      36.367642      36.367642      48100.038      1.1949246      12623.871    
     22200   22200          295.82727     -99.081256      871.73961     -941.92677     -227.05661      36.367642      36.367642      36.367642      48100.038      1.1949246      12582.726    
     22300   22300          294.6329       2385.4918      2774.8509      3256.9633      1124.6614      36.367642      36.367642      36.367642      48100.038      1.1949246      12629.319    
     22400   22400          296.80916     -1990.1422     -811.18132     -2257.0204     -2902.2248      36.367642      36.367642      36.367642      48100.038      1.1949246      12674.593    
     22500   22500          301.93221      988.18886      3654.609      -594.83569     -95.206716      36.367642      36.367642      36.367642      48100.038      1.1949246      12732.939    
     22600   22600          299.35016      139.00165     -524.74812      2852.5494     -1910.7963      36.367642      36.367642      36.367642      48100.038      1.1949246      12764.158    
     22700   22700          299.67538     -1492.4198     -1479.9363     -1155.7425     -1841.5806      36.367642      36.367642      36.367642      48100.038      1.1949246      12717.197    
     22800   22800          294.15443      1847.1739     -1071.2912      3028.871       3583.9418      36.367642      36.367642      36.367642      48100.038      1.1949246      12598.144    
     22900   22900          300.41876     -122.10951     -1668.4739      883.47634      418.66909      36.367642      36.367642      36.367642      48100.038      1.1949246      12610.284    
     23000   23000          300.29974     -733.06844     -226.32296     -910.62101     -1062.2614      36.367642      36.367642      36.367642      48100.038      1.1949246      12678.576    
     23100   23100          302.37815     -319.85642     -1319.8263      393.77043     -33.513352      36.367642      36.367642      36.367642      48100.038      1.1949246      12739.154    
     23200   23200          297.45068     -104.09954      1824.9012     -1357.1908     -780.00899      36.367642      36.367642      36.367642      48100.038      1.1949246      12738.419    
     23300   23300          299.40649      115.39592      258.13748      152.1057      -64.055419      36.367642      36.367642      36.367642      48100.038      1.1949246      12722.653    
     23400   23400          298.60969     -499.62409      1085.1451     -1359.0401     -1224.9773      36.367642      36.367642      36.367642      48100.038      1.1949246      12699.835    
     23500   23500          293.63839     -300.04976      235.77827     -239.16944     -896.7581       36.367642      36.367642      36.367642      48100.038      1.1949246      12588.341    
     23600   23600          292.47506      471.92257     -129.33459      639.56947      905.53282      36.367642      36.367642      36.367642      48100.038      1.1949246      12551.61     
     23700   23700          295.60927     -228.98243      1112.365      -1429.6064     -369.70595      36.367642      36.367642      36.367642      48100.038      1.1949246      12633.214    
     23800   23800          297.99283      820.93609      1523.9127      448.7436       490.15196      36.367642      36.367642      36.367642      48100.038      1.1949246      12675.659    
     23900   23900          305.81721      920.66396      1251.695      -284.11288      1794.4097      36.367642      36.367642      36.367642      48100.038      1.1949246      12715.494    
     24000   24000          302.14444      274.71536     -503.60702      1166.0487      161.70442      36.367642      36.367642      36.367642      48100.038      1.1949246      12749.533    
     24100   24100          302.84221     -765.13563     -658.53603     -495.0874      -1141.7835      36.367642      36.367642      36.367642      48100.038      1.1949246      12775.259    
     24200   24200          303.38122      12.2766        157.4174       1024.1799     -1144.7675      36.367642      36.367642      36.367642      48100.038      1.1949246      12726.888    
     24300   24300          296.46159      1260.7595      1307.5466      1302.5888      1172.1431      36.367642      36.367642      36.367642      48100.038      1.1949246      12627.701    
     24400   24400          294.30552      195.32047      918.27404     -651.68714      319.37451      36.367642      36.367642      36.367642      48100.038      1.1949246      12610.279    
     24500   24500          298.69516     -201.99065     -398.70192     -1651.6175      1444.3475      36.367642      36.367642      36.367642      48100.038      1.1949246      12675.154    
     24600   24600          302.14169      484.56256      1869.3424     -67.699818     -347.95494      36.367642      36.367642      36.367642      48100.038      1.1949246      12772.782    
     24700   24700          299.20412      521.80518      923.29738      1322.2265     -680.10836      36.367642      36.367642      36.367642      48100.038      1.1949246      12770.305    
     24800   24800          297.28686      1489.434       751.71473      152.16665      3564.4207      36.367642      36.367642      36.367642      48100.038      1.1949246      12721.825    
     24900   24900          297.97343      2098.6719      1857.8686      1728.6254      2709.5218      36.367642      36.367642      36.367642      48100.038      1.1949246      12679.512    
     25000   25000          296.5836      -4269.6206     -4445.8972     -4407.2574     -3955.7073      36.367642      36.367642      36.367642      48100.038      1.1949246      12659.832    
     25100   25100          302.51655      599.70352      2439.5054     -1288.6757      648.28086      36.367642      36.367642      36.367642      48100.038      1.1949246      12657.926    
     25200   25200          301.89848     -694.77493     -511.21754     -725.98628     -847.12098      36.367642      36.367642      36.367642      48100.038      1.1949246      12687.614    
     25300   25300          306.55258      1386.9427      1454.086       2303.5707      403.17126      36.367642      36.367642      36.367642      48100.038      1.1949246      12732.946    
     25400   25400          303.39984      2734.9927      4012.5711      2444.5831      1747.824       36.367642      36.367642      36.367642      48100.038      1.1949246      12767.696    
     25500   25500          306.66891     -1914.5915     -1363.5642      23.941512     -4404.1517      36.367642      36.367642      36.367642      48100.038      1.1949246      12746.557    
     25600   25600          297.98232      1051.9439      2749.0079      1154.533      -747.70917      36.367642      36.367642      36.367642      48100.038      1.1949246      12647.526    
     25700   25700          295.37116     -457.85229      127.91544     -10.689771     -1490.7825      36.367642      36.367642      36.367642      48100.038      1.1949246      12612.113    
     25800   25800          300.08287      376.34669     -863.73692      1696.4775      296.29947      36.367642      36.367642      36.367642      48100.038      1.1949246      12678.097    
     25900   25900          300.28784      1561.8479      1159.9514      2370.5692      1155.0231      36.367642      36.367642      36.367642      48100.038      1.1949246      12746.016    
     26000   26000          299.47732     -603.64997      163.75914      739.35823     -2714.0673      36.367642      36.367642      36.367642      48100.038      1.1949246      12740.73     
     26100   26100          297.93476     -49.864102     -278.67819      473.09693     -344.01105      36.367642      36.367642      36.367642      48100.038      1.1949246      12721.211    
     26200   26200          298.57748      421.68626      457.82885      1359.9277     -552.69773      36.367642      36.367642      36.367642      48100.038      1.1949246      12680.181    
     26300   26300          292.96407     -368.0788       1583.2862      123.84653     -2811.3691      36.367642      36.367642      36.367642      48100.038      1.1949246      12598.184    
     26400   26400          298.42608     -1147.8711      753.0187      -2309.0039     -1887.6282      36.367642      36.367642      36.367642      48100.038      1.1949246      12571.151    
     26500   26500          296.87946     -638.45731     -1793.5944      715.55313     -837.33071      36.367642      36.367642      36.367642      48100.038      1.1949246      12685.381    
     26600   26600          302.83363      1378.2346      1343.3026      2411.2828      380.11825      36.367642      36.367642      36.367642      48100.038      1.1949246      12759.383    
     26700   26700          306.65781      251.60947      1.8268426      2145.0968     -1392.0952      36.367642      36.367642      36.367642      48100.038      1.1949246      12749.574    
     26800   26800          297.6159       217.4717      -39.569964      393.31172      298.67334      36.367642      36.367642      36.367642      48100.038      1.1949246      12676.197    
     26900   26900          291.27876      1710.7179     -307.01509      1929.9079      3509.261       36.367642      36.367642      36.367642      48100.038      1.1949246      12606.575    
     27000   27000          297.21527      261.45502      54.954345      1032.1494     -302.73874      36.367642      36.367642      36.367642      48100.038      1.1949246      12638.012    
     27100   27100          299.39844      1059.9796      2511.5889      302.37993      365.96982      36.367642      36.367642      36.367642      48100.038      1.1949246      12674.648    
     27200   27200          300.2221      -1353.4856     -914.40192     -1650.5625     -1495.4925      36.367642      36.367642      36.367642      48100.038      1.1949246      12689.952    
     27300   27300          299.99491     -925.53503     -1337.9311     -1442.9176      4.2436207      36.367642      36.367642      36.367642      48100.038      1.1949246      12716.782    
     27400   27400          301.0069      -280.3343       760.43434     -952.07556     -649.36169      36.367642      36.367642      36.367642      48100.038      1.1949246      12748.909    
     27500   27500          307.64137     -181.71988     -12.295957      479.62682     -1012.4905      36.367642      36.367642      36.367642      48100.038      1.1949246      12828.583    
     27600   27600          307.43         349.47853      947.06976     -720.83567      822.20149      36.367642      36.367642      36.367642      48100.038      1.1949246      12829.996    
     27700   27700          306.02655      509.08995      315.74253      81.13257       1130.3947      36.367642      36.367642      36.367642      48100.038      1.1949246      12706.659    
     27800   27800          296.66751      1611.1033      232.45         2806.3493      1794.5105      36.367642      36.367642      36.367642      48100.038      1.1949246      12666.174    
     27900   27900          300.15403     -1482.9736     -2928.501       1614.6518     -3135.0714      36.367642      36.367642      36.367642      48100.038      1.1949246      12693.377    
     28000   28000          305.90721      544.46926      109.59986      651.33258      872.47534      36.367642      36.367642      36.367642      48100.038      1.1949246      12761.387    
     28100   28100          305.33684     -178.84598     -55.767822     -534.54623      53.776123      36.367642      36.367642      36.367642      48100.038      1.1949246      12814.855    
     28200   28200          303.0741      -1814.3452     -996.66492     -845.75467     -3600.6161      36.367642      36.367642      36.367642      48100.038      1.1949246      12847.307    
     28300   28300          301.07982     -1369.1113     -1354.809       54.272535     -2806.7973      36.367642      36.367642      36.367642      48100.038      1.1949246      12758.899    
     28400   28400          297.53521      376.9274       424.3812       834.64317     -128.24217      36.367642      36.367642      36.367642      48100.038      1.1949246      12660.892    
     28500   28500          297.79122     -1076.2959      199.537       -455.18474     -2973.2399      36.367642      36.367642      36.367642      48100.038      1.1949246      12634.348    
     28600   28600          302.19708      71.08266       674.75616     -1614.5545      1153.0463      36.367642      36.367642      36.367642      48100.038      1.1949246      12686.685    
     28700   28700          302.3872      -1903.4211     -1290.2596     -2198.4112     -2221.5925      36.367642      36.367642      36.367642      48100.038      1.1949246      12770.503    
     28800   28800          303.76357     -590.70196     -1853.676      -24.404112      105.97424      36.367642      36.367642      36.367642      48100.038      1.1949246      12772.751    
     28900   28900          297.807        1549.5357      1649.6811      1997.1513      1001.7747      36.367642      36.367642      36.367642      48100.038      1.1949246      12711.154    
     29000   29000          296.12176     -1334.0427     -2634.6065     -200.90483     -1166.6169      36.367642      36.367642      36.367642      48100.038      1.1949246      12577.428    
     29100   29100          293.48426      1669.5765      2876.0845      1028.7345      1103.9105      36.367642      36.367642      36.367642      48100.038      1.1949246      12510.619    
     29200   29200          298.61539     -268.64151      844.03622     -620.99184     -1028.9689      36.367642      36.367642      36.367642      48100.038      1.1949246      12602.019    
     29300   29300          300.42462     -696.31862      864.06548     -1252.1886     -1700.8327      36.367642      36.367642      36.367642      48100.038      1.1949246      12689.496    
     29400   29400          299.4127       1032.6345      441.77522      401.86789      2254.2603      36.367642      36.367642      36.367642      48100.038      1.1949246      12749.611    
     29500   29500          303.04605     -1540.1121      218.47706     -3293.9286     -1544.8846      36.367642      36.367642      36.367642      48100.038      1.1949246      12774.093    
     29600   29600          297.72088      2344.3084      3923.1465      843.73011      2266.0487      36.367642      36.367642      36.367642      48100.038      1.1949246      12681.791    
     29700   29700          292.39796     -795.98855     -1231.9721     -56.077519     -1099.916       36.367642      36.367642      36.367642      48100.038      1.1949246      12611.203    
     29800   29800          298.28369      602.32283      299.83393     -55.177843      1562.3124      36.367642      36.367642      36.367642      48100.038      1.1949246      12656.069    
     29900   29900          296.44299      1777.6978      2721.3081      291.00913      2320.7762      36.367642      36.367642      36.367642      48100.038      1.1949246      12703.217    
     30000   30000          301.10923     -485.15957      751.41688     -1648.9947     -557.90087      36.367642      36.367642      36.367642      48100.038      1.1949246      12730.713    
     30100   30100          304.74083      1628.9686      2934.5366      2998.19       -1045.8209      36.367642      36.367642      36.367642      48100.038      1.1949246      12732.031    
     30200   30200          296.93956     -1143.4117     -2678.8881      398.79691     -1150.1439      36.367642      36.367642      36.367642      48100.038      1.1949246      12625.321    
     30300   30300          296.72818     -920.45111     -1585.8135     -1005.0791     -170.46066      36.367642      36.367642      36.367642      48100.038      1.1949246      12580.224    
     30400   30400          293.85443      644.89271      2238.8613     -807.20735      503.02421      36.367642      36.367642      36.367642      48100.038      1.1949246      12669.274    
     30500   30500          299.57105      714.48944      1888.238      -168.76931      423.99962      36.367642      36.367642      36.367642      48100.038      1.1949246      12738.669    
     30600   30600          302.98582      1154.7798      1363.6698      880.95542      1219.7141      36.367642      36.367642      36.367642      48100.038      1.1949246      12724.559    
     30700   30700          300.08356     -115.68626      222.67385     -507.03006     -62.70258       36.367642      36.367642      36.367642      48100.038      1.1949246      12672.916    
     30800   30800          296.05217     -286.23756     -554.94985     -1649.9479      1346.1851      36.367642      36.367642      36.367642      48100.038      1.1949246      12596.201    
     30900   30900          289.12569      1048.984       2092.9708     -560.3493       1614.3306      36.367642      36.367642      36.367642      48100.038      1.1949246      12505.845    
     31000   31000          296.34599     -761.45746      512.04502     -1848.4641     -947.95334      36.367642      36.367642      36.367642      48100.038      1.1949246      12561.222    
     31100   31100          299.24212      567.38023      386.71121      2696.4214     -1380.9919      36.367642      36.367642      36.367642      48100.038      1.1949246      12673.319    
     31200   31200          305.26646      22.094317     -991.62099      2479.1094     -1421.2055      36.367642      36.367642      36.367642      48100.038      1.1949246      12722.79     
     31300   31300          304.69379     -286.55323      475.10189     -705.48431     -629.27728      36.367642      36.367642      36.367642      48100.038      1.1949246      12747.54     
     31400   31400          300.22335      2599.5495      2951.4002      3680.945       1166.3034      36.367642      36.367642      36.367642      48100.038      1.1949246      12696.145    
[...]
    490800   490800         298.33251     -1757.733      -2644.9004     -2488.5129     -139.78557      37.425213      36.367642      36.367642      49498.787      1.1611581      12746.49     
    490900   490900         300.04751     -1350.9211     -1161.5014     -2025.2754     -865.98637      37.425576      36.367642      36.367642      49499.268      1.1611468      12743.328    
    491000   491000         295.01067     -3022.9132     -3141.8904     -3321.3715     -2605.4776      37.42594       36.367642      36.367642      49499.749      1.1611356      12739.885    
    491100   491100         305.69025      396.62594      1247.0764     -487.82167      430.62311      37.426304      36.367642      36.367642      49500.23       1.1611243      12776.803    
    491200   491200         306.42725     -1052.3207      209.36013     -2291.9731     -1074.3492      37.426667      36.367642      36.367642      49500.711      1.161113       12834.298    
    491300   491300         301.45742     -1167.897      -2634.3018      358.32308     -1227.7123      37.427031      36.367642      36.367642      49501.192      1.1611017      12821.801    
    491400   491400         300.01976     -1639.2639     -2292.7008     -1196.5239     -1428.567       37.427395      36.367642      36.367642      49501.673      1.1610904      12707.489    
    491500   491500         293.85128     -3340.1356     -4307.3143     -3840.7295     -1872.3631      37.427759      36.367642      36.367642      49502.154      1.1610791      12685.746    
    491600   491600         296.73984      865.57944     -916.53256      1054.0178      2459.253       37.428122      36.367642      36.367642      49502.635      1.1610679      12707.257    
    491700   491700         300.23983     -549.76271     -1328.3388     -1406.228       1085.2787      37.428486      36.367642      36.367642      49503.116      1.1610566      12809.659    
    491800   491800         304.9922      -791.98805     -1045.9599     -212.97334     -1117.031       37.42885       36.367642      36.367642      49503.597      1.1610453      12886.025    
    491900   491900         306.78939      543.02647      297.46039      1261.7995      69.819506      37.429213      36.367642      36.367642      49504.078      1.161034       12841.621    
    492000   492000         302.14482     -4261.0785     -3329.3618     -4330.4407     -5123.4332      37.429577      36.367642      36.367642      49504.559      1.1610227      12769.773    
    492100   492100         294.97531     -866.14182     -35.839979      119.64613     -2682.2316      37.429941      36.367642      36.367642      49505.04       1.1610115      12724.338    
    492200   492200         297.79773     -1409.4811     -2017.1717     -925.41865     -1285.8528      37.430304      36.367642      36.367642      49505.521      1.1610002      12718.476    
    492300   492300         306.33556     -1543.4323     -1763.4402     -646.86833     -2219.9884      37.430668      36.367642      36.367642      49506.002      1.1609889      12810.843    
    492400   492400         301.10369     -903.523        16.255265      414.54837     -3141.3726      37.431032      36.367642      36.367642      49506.483      1.1609776      12891.511    
    492500   492500         300.03974     -3324.0813     -2562.6896     -3841.6303     -3567.9239      37.431395      36.367642      36.367642      49506.964      1.1609663      12823.306    
    492600   492600         302.19158     -1294.0913     -1890.3365     -997.89711     -994.04012      37.431759      36.367642      36.367642      49507.445      1.1609551      12761.871    
    492700   492700         298.98055     -659.76486     -3000.2608      268.72936      752.23689      37.432123      36.367642      36.367642      49507.926      1.1609438      12742.233    
    492800   492800         299.45022     -1259.6926     -1818.5615     -1006.8497     -953.66675      37.432486      36.367642      36.367642      49508.407      1.1609325      12748.437    
    492900   492900         299.26307     -274.83834     -1139.1575      932.28953     -617.64708      37.43285       36.367642      36.367642      49508.888      1.1609212      12732.221    
    493000   493000         291.36267     -1290.6772     -3306.5655     -450.74326     -114.72299      37.433214      36.367642      36.367642      49509.369      1.1609099      12644.697    
    493100   493100         292.97744     -390.25365     -2582.9356     -116.9812       1529.1559      37.433577      36.367642      36.367642      49509.85       1.1608987      12633.049    
    493200   493200         300.80988     -2209.6733     -2237.6959     -3219.8754     -1171.4485      37.433941      36.367642      36.367642      49510.331      1.1608874      12740.889    
    493300   493300         303.37468     -222.96736      394.27195     -910.09941     -153.07462      37.434305      36.367642      36.367642      49510.812      1.1608761      12788.175    
    493400   493400         299.3012      -1605.4961      148.08892     -4094.3805     -870.19686      37.434668      36.367642      36.367642      49511.293      1.1608648      12787.563    
    493500   493500         299.49279     -1569.8775     -1985.9247     -442.73762     -2280.9701      37.435032      36.367642      36.367642      49511.774      1.1608535      12751.249    
    493600   493600         292.86302     -1605.2058     -871.81331     -2215.4625     -1728.3416      37.435396      36.367642      36.367642      49512.255      1.1608423      12652.236    
    493700   493700         297.96836     -204.85699     -987.07735      589.77152     -217.26514      37.435759      36.367642      36.367642      49512.736      1.160831       12639.399    
    493800   493800         302.24602     -3828.6351     -4250.3986     -5316.8914     -1918.6152      37.436123      36.367642      36.367642      49513.217      1.1608197      12746.233    
    493900   493900         300.10151     -1639.8524     -1377.539      -1772.685      -1769.3332      37.436487      36.367642      36.367642      49513.698      1.1608084      12789.251    
    494000   494000         301.44609     -2185.5746     -2985.1667     -877.01184     -2694.5454      37.43685       36.367642      36.367642      49514.179      1.1607972      12778.143    
    494100   494100         295.56067     -1223.4592     -1081.3013     -1831.2397     -757.83671      37.437214      36.367642      36.367642      49514.66       1.1607859      12741.026    
    494200   494200         292.8546       1308.8261      1557.9175      1211.631       1156.9296      37.437578      36.367642      36.367642      49515.141      1.1607746      12678.278    
    494300   494300         294.62628     -3282.8756     -2667.761      -4232.7552     -2948.1106      37.437941      36.367642      36.367642      49515.622      1.1607633      12668.735    
    494400   494400         300.8213      -706.89655     -1492.0552     -710.91024      82.275815      37.438305      36.367642      36.367642      49516.103      1.1607521      12775.225    
    494500   494500         299.19493     -1061.1778     -928.95877     -1472.4576     -782.11716      37.438669      36.367642      36.367642      49516.584      1.1607408      12832.05     
    494600   494600         304.87615     -1675.278      -2895.3174     -2047.9867     -82.529963      37.439032      36.367642      36.367642      49517.065      1.1607295      12803.16     
    494700   494700         297.85172      571.12437     -820.90029      799.78884      1734.4846      37.439396      36.367642      36.367642      49517.546      1.1607182      12705.506    
    494800   494800         297.02579     -2606.0108     -1329.4931     -3800.321      -2688.2184      37.43976       36.367642      36.367642      49518.027      1.160707       12672.474    
    494900   494900         298.15217     -1944.6197     -2489.159      -1855.9588     -1488.7413      37.440124      36.367642      36.367642      49518.508      1.1606957      12704.447    
    495000   495000         299.24101     -1038.3225     -798.36089      191.98944     -2508.5961      37.440487      36.367642      36.367642      49518.989      1.1606844      12754.824    
    495100   495100         302.79287     -1119.6191     -1812.1353     -952.37662     -594.3454       37.440851      36.367642      36.367642      49519.47       1.1606731      12806.068    
    495200   495200         300.35034     -2072.2429      212.0556      -4033.5303     -2395.2539      37.441215      36.367642      36.367642      49519.951      1.1606619      12825.191    
    495300   495300         297.01041     -235.37426     -859.36079     -180.7088       333.94682      37.441578      36.367642      36.367642      49520.432      1.1606506      12709.246    
    495400   495400         296.36895     -694.98476     -666.27567     -424.91483     -993.76379      37.441942      36.367642      36.367642      49520.913      1.1606393      12653.002    
    495500   495500         293.5754      -1602.5783     -1720.1497     -1827.1784     -1260.4069      37.442306      36.367642      36.367642      49521.394      1.160628       12685.456    
    495600   495600         298.49611     -2754.0392     -1901.8613     -3169.0095     -3191.2468      37.442669      36.367642      36.367642      49521.875      1.1606168      12776.385    
    495700   495700         302.8643      -1438.782      -2173.685      -1380.7197     -761.94134      37.443033      36.367642      36.367642      49522.356      1.1606055      12791.074    
    495800   495800         300.7886      -1023.2129     -2195.5674      1043.509      -1917.5803      37.443397      36.367642      36.367642      49522.837      1.1605942      12766.146    
    495900   495900         293.12205     -83.674562     -935.12521      1247.9918     -563.89028      37.44376       36.367642      36.367642      49523.318      1.1605829      12740.495    
    496000   496000         298.54837     -1008.65        750.0019      -1327.4125     -2448.5395      37.444124      36.367642      36.367642      49523.799      1.1605717      12722.967    
    496100   496100         293.62664     -2029.534      -1605.2408     -1407.7485     -3075.6128      37.444488      36.367642      36.367642      49524.28       1.1605604      12672.974    
    496200   496200         295.82705     -3292.1518     -3458.6046     -2902.8877     -3514.9631      37.444851      36.367642      36.367642      49524.761      1.1605491      12661.263    
    496300   496300         300.85463     -2505.8647     -1309.1129     -2446.4176     -3762.0635      37.445215      36.367642      36.367642      49525.242      1.1605379      12752.532    
    496400   496400         305.22277     -104.27648      744.78618      1460.7285     -2518.3441      37.445579      36.367642      36.367642      49525.723      1.1605266      12814.716    
    496500   496500         300.80665     -112.78491     -624.80633      1824.8435     -1538.3919      37.445942      36.367642      36.367642      49526.204      1.1605153      12821.325    
    496600   496600         298.76387     -3123.5736     -1371.6615     -3687.4856     -4311.5736      37.446306      36.367642      36.367642      49526.685      1.160504       12746.674    
    496700   496700         292.84089     -1907.2827     -807.13654     -1366.6719     -3548.0395      37.44667       36.367642      36.367642      49527.166      1.1604928      12641.998    
    496800   496800         296.4048      -1575.1134     -2003.9772     -1645.3471     -1076.0158      37.447033      36.367642      36.367642      49527.647      1.1604815      12666.663    
    496900   496900         299.8715      -1470.8774     -1458.2999     -2619.5071     -334.82523      37.447397      36.367642      36.367642      49528.128      1.1604702      12733.364    
    497000   497000         305.91827     -1495.8962     -4545.149      -1007.7441      1065.2043      37.447761      36.367642      36.367642      49528.609      1.160459       12793.285    
    497100   497100         304.89147     -278.24785     -1620.2056      236.1075       549.35459      37.448124      36.367642      36.367642      49529.09       1.1604477      12832.064    
    497200   497200         299.36847     -1323.2225     -2966.2815     -897.60669     -105.77928      37.448488      36.367642      36.367642      49529.571      1.1604364      12778.357    
    497300   497300         294.09002     -1682.3451     -2303.6033     -2350.8482     -392.58374      37.448852      36.367642      36.367642      49530.052      1.1604252      12648.119    
    497400   497400         294.99239     -2301.6552     -2978.17       -2374.7666     -1552.029       37.449215      36.367642      36.367642      49530.533      1.1604139      12662.124    
    497500   497500         298.41658      113.01776     -211.99814      908.45136     -357.39993      37.449579      36.367642      36.367642      49531.014      1.1604026      12739.623    
    497600   497600         299.86182     -1095.2393     -656.14838     -387.67805     -2241.8914      37.449943      36.367642      36.367642      49531.495      1.1603914      12791.226    
    497700   497700         302.41422     -1320.3364     -1539.4665     -101.11305     -2320.4295      37.450306      36.367642      36.367642      49531.976      1.1603801      12783.409    
    497800   497800         297.5551      -2943.9648     -2410.367      -2566.0396     -3855.4876      37.45067       36.367642      36.367642      49532.457      1.1603688      12753.657    
    497900   497900         295.98716     -812.70633     -803.94411     -768.82952     -865.34537      37.451034      36.367642      36.367642      49532.938      1.1603575      12673.934    
    498000   498000         291.0648      -2619.6746     -3068.5177     -2848.9176     -1941.5884      37.451397      36.367642      36.367642      49533.419      1.1603463      12583.558    
    498100   498100         293.41497     -1400.6143     -2154.5587     -2419.4858      372.20173      37.451761      36.367642      36.367642      49533.9        1.160335       12664.743    
    498200   498200         298.8992      -1203.3809     -1702.3039     -621.89655     -1285.9422      37.452125      36.367642      36.367642      49534.381      1.1603237      12749.217    
    498300   498300         302.43645     -2237.9383     -2808.8689     -527.82687     -3377.1191      37.452489      36.367642      36.367642      49534.862      1.1603125      12782.895    
    498400   498400         300.89042     -314.12086     -1352.5648      905.73255     -495.53032      37.452852      36.367642      36.367642      49535.343      1.1603012      12783.957    
    498500   498500         301.07529     -3053.2789     -3455.7151     -1340.2587     -4363.8628      37.453216      36.367642      36.367642      49535.824      1.1602899      12721.474    
    498600   498600         290.88784     -1611.8473     -2278.2196     -728.42557     -1828.8968      37.45358       36.367642      36.367642      49536.305      1.1602787      12622.895    
    498700   498700         294.98871     -1998.8112     -2634.8971     -1887.4719     -1474.0644      37.453943      36.367642      36.367642      49536.786      1.1602674      12645.927    
    498800   498800         297.00321     -2462.9184     -1709.6583     -4969.2249     -709.87194      37.454307      36.367642      36.367642      49537.267      1.1602561      12748.573    
    498900   498900         304.67921     -619.32778      290.10234     -1167.4093     -980.67637      37.454671      36.367642      36.367642      49537.748      1.1602449      12780.099    
    499000   499000         300.41211     -2853.0393     -635.92128     -4655.5678     -3267.629       37.455034      36.367642      36.367642      49538.229      1.1602336      12793.475    
    499100   499100         300.66888     -1347.098      -2124.7984     -1279.5122     -636.9833       37.455398      36.367642      36.367642      49538.71       1.1602223      12762.119    
    499200   499200         301.39333     -454.6214      -1383.4687     -566.38124      585.98571      37.455762      36.367642      36.367642      49539.191      1.1602111      12678.471    
    499300   499300         289.11813     -3976.942      -4447.3353     -3697.9244     -3785.5662      37.456125      36.367642      36.367642      49539.672      1.1601998      12634.462    
    499400   499400         294.74897      163.31447      1466.5849     -1226.3597      249.71825      37.456489      36.367642      36.367642      49540.153      1.1601886      12745.919    
    499500   499500         303.46864     -4319.8126     -4834.3238     -4019.3907     -4105.7233      37.456853      36.367642      36.367642      49540.634      1.1601773      12806.811    
    499600   499600         301.36363     -1186.8796      300.56745     -1386.6459     -2474.5605      37.457216      36.367642      36.367642      49541.115      1.160166       12778.28     
    499700   499700         300.74769     -829.03672     -765.71028     -1434.7323     -286.66761      37.45758       36.367642      36.367642      49541.596      1.1601548      12741.291    
    499800   499800         297.06926     -2104.2567     -2074.7411     -1723.611      -2514.4179      37.457944      36.367642      36.367642      49542.077      1.1601435      12692.933    
    499900   499900         295.04127      443.54319      463.16551      1067.7751     -200.31099      37.458307      36.367642      36.367642      49542.558      1.1601322      12661.287    
    500000   500000         295.72257     -2638.2802     -2932.5941     -3227.7173     -1754.5293      37.458671      36.367642      36.367642      49543.039      1.160121       12707.263    
Loop time of 3304.98 on 3 procs for 300000 steps with 4096 atoms

Performance: 7.843 ns/day, 3.060 hours/ns, 90.772 timesteps/s, 371.803 katom-step/s
95.8% CPU use with 3 MPI tasks x 1 OpenMP threads

MPI task timing breakdown:
Section |  min time  |  avg time  |  max time  |%varavg| %total
---------------------------------------------------------------
Pair    | 209.04     | 211.87     | 214.47     |  15.3 |  6.41
Bond    | 1121       | 1134.1     | 1147.7     |  32.4 | 34.32
Kspace  | 1029.4     | 1042.5     | 1055.1     |  32.5 | 31.54
Neigh   | 226.33     | 230.11     | 234.2      |  21.2 |  6.96
Comm    | 75.152     | 75.487     | 75.766     |   2.9 |  2.28
Output  | 0.3867     | 0.59959    | 0.97958    |  34.8 |  0.02
Modify  | 573.37     | 581.09     | 589.37     |  27.2 | 17.58
Other   |            | 29.21      |            |       |  0.88

Nlocal:        1365.33 ave        1391 max        1344 min
Histogram: 1 0 0 1 0 0 0 0 0 1
Nghost:        9069.33 ave        9093 max        9054 min
Histogram: 1 1 0 0 0 0 0 0 0 1
Neighs:              0 ave           0 max           0 min
Histogram: 3 0 0 0 0 0 0 0 0 0
FullNghs:       718023 ave      741211 max      703612 min
Histogram: 1 1 0 0 0 0 0 0 0 1

Total # of neighbors = 2154068
Ave neighs/atom = 525.89551
Ave special neighs/atom = 5.6289062
Neighbor list builds = 7057
Dangerous builds = 0
unfix def
unfix nvt_def





write_data npt_deform_out.data
System init for write_data ...
PPPM initialization ...
  using 12-bit tables for long-range coulomb
  G vector (1/distance) = 0.31201005
  grid = 30 30 30
  stencil order = 5
  estimated absolute RMS force accuracy = 0.00028851693
  estimated relative force accuracy = 8.6886015e-07
  using double precision KISS FFT
  3d grid and FFT values/proc = 23273 9000
Generated 21 of 21 mixed pair_coeff terms from sixthpower/sixthpower mixing rule

print "STAGE COMPLETE: npt_deform T=300.0K rate=1e-07/fs steps=300000"
STAGE COMPLETE: npt_deform T=300.0K rate=1e-07/fs steps=300000
quit
