units real
atom_style full
boundary p p p

# --- Force Field (injected via PAIR_STYLE_BLOCK) ---
pair_style lj/class2/coul/cut 9.5 9.5
dielectric 1.000000
bond_style class2
angle_style class2
dihedral_style class2
improper_style class2
special_bonds lj/coul 0 0 1
pair_modify mix sixthpower tail yes
neighbor 2.0 bin
neigh_modify delay 0 every 1 check yes
neigh_modify one 4000
# KOKKOS: package loaded via -pk kokkos on the command line

read_data /home/alexzhao/PolyJarvis/data/PEG2/lammps/equil/nvt_softheat/nvt_softheat_out.data
Reading data file ...
  orthogonal box = (0 0 0) to (49.321133 49.321133 49.321133)
  1 by 1 by 1 MPI processor grid
WARNING: Pair style lj/class2/coul/long/kk in data file differs from currently defined pair style lj/class2/coul/cut/kk (src/read_data.cpp:811)
  reading atoms ...
  7020 atoms
  reading velocities ...
  7020 velocities
  scanning bonds ...
  4 = max bonds/atom
  scanning angles ...
  10 = max angles/atom
  scanning dihedrals ...
  16 = max dihedrals/atom
  scanning impropers ...
  7 = max impropers/atom
  orthogonal box = (0 0 0) to (49.321133 49.321133 49.321133)
  1 by 1 by 1 MPI processor grid
  reading bonds ...
  7010 bonds
  reading angles ...
  13000 angles
  reading dihedrals ...
  14970 dihedrals
  reading impropers ...
  8000 impropers
Finding 1-2 1-3 1-4 neighbors ...
  special bond factors lj:    0        0        1       
  special bond factors coul:  0        0        1       
     4 = max # of 1-2 neighbors
     6 = max # of 1-3 neighbors
     8 = max # of special neighbors
  special bonds CPU = 0.005 seconds
  read_data CPU = 0.320 seconds
include /home/alexzhao/PolyJarvis/data/PEG2/lammps/equil/emc_build.params
# LAMMPS parameters created by EMC v9.4.4, build Jul 31 2025 20:33:44

# Variables

variable	seed		index	533381
variable	ntotal		index	7020
variable	fshape		index	1
variable	output		index	emc_build
variable	field		index	pcff/pcff
variable	location1	index	~/emc/field/
variable	nav		index	0.6022141179
variable	temperature	index	300
variable	radius		index	5
variable	nrelax		index	100
variable	weight_nonbond	index	0.0001
variable	weight_bond	index	0.0001
variable	weight_focus	index	1
variable	cutoff		index	9.5
variable	charge_cutoff	index	9.5
variable	kappa		index	4
variable	density1	index	0.61
variable	lprevious	index	0
variable	lphase		index	49.3211329242
variable	f_poly		index	10
variable	chem_repeat	index	*CCO*
variable	chem_cap	index	*[H]
variable	lg_repeat	index	7
variable	lg_cap		index	1
variable	norm_poly	index	100
variable	l_poly		index	702
variable	mg_repeat	index	16.04303
variable	mg_cap		index	0
variable	m_poly		index	1604.303
variable	n_poly		index	10
variable	mtotal		index	44073.7394
variable	nphase1		index	7020
variable	mphase1		index	44073.7394
variable	vphase1		index	119977.313144
variable	lbox		index	49.3211329242
variable	lphase1		index	49.3211329242
variable	lxx		index	49.3211329242
variable	lyy		index	49.3211329242
variable	lzz		index	49.3211329242
variable	lzy		index	0
variable	lzx		index	0
variable	lyx		index	0
variable	vtotal		index	119977.313144
variable	nl_poly		index	10

# Types

variable	type_c		index	1
variable	type_hc		index	2
variable	type_ho		index	3
variable	type_oc		index	4
variable	type_oh		index	5

variable	type_bond_c_c	index	1
variable	type_bond_c_hc	index	2
variable	type_bond_c_oc	index	3
variable	type_bond_c_oh	index	4
variable	type_bond_ho_oh	index	5

variable	type_angle_c_c_hc index	1
variable	type_angle_c_c_oc index	2
variable	type_angle_c_c_oh index	3
variable	type_angle_c_oc_c index	4
variable	type_angle_c_oh_ho index	5
variable	type_angle_hc_c_hc index	6
variable	type_angle_hc_c_oc index	7
variable	type_angle_hc_c_oh index	8

# Clusters

variable	n0_poly		index	1
variable	n1_poly		index	10
variable	nl_poly		index	10

# Flags

variable	flag_charged	index	1

# Masses

mass		1    12.01115  # c
mass		2     1.00797  # hc
mass		3     1.00797  # ho
mass		4    15.99940  # oc
mass		5    15.99940  # oh

# Potentials

pair_modify	mix sixthpower tail yes
special_bonds	lj/coul 0 0 1

# Pair Coeffs

pair_coeff	 1  1    0.05400    4.01000  # c,c
pair_coeff	 2  2    0.02000    2.99500  # hc,hc
pair_coeff	 3  3    0.01300    1.09800  # ho,ho
pair_coeff	 4  4    0.24000    3.53500  # oc,oc
pair_coeff	 5  5    0.24000    3.53500  # oh,oh

# Bond Coeffs

bond_coeff	1    1.53000  299.67000 -501.77000  679.81000  # c,c
bond_coeff	2    1.10100  345.00000 -691.89000  844.60000  # c,hc
bond_coeff	3    1.42000  400.39540 -835.19510 1313.01420  # c,oc
bond_coeff	4    1.42000  400.39540 -835.19510 1313.01420  # c,oh
bond_coeff	5    0.96500  532.50620 -1282.90500 2004.76580  # ho,oh

# Angle Coeffs

angle_coeff	1  110.77000   41.45300  -10.60400    5.12900  # c,c,hc
angle_coeff	2  111.27000   54.53810   -8.36420  -13.08380  # c,c,oc
angle_coeff	3  111.27000   54.53810   -8.36420  -13.08380  # c,c,oh
angle_coeff	4  104.50000   35.74540  -10.00670   -6.27290  # c,oc,c
angle_coeff	5  105.80000   52.70610  -12.10900   -9.86810  # c,oh,ho
angle_coeff	6  107.66000   39.64100  -12.92100   -2.43180  # hc,c,hc
angle_coeff	7  108.72800   58.54460  -10.80880  -12.40060  # hc,c,oc
angle_coeff	8  108.72800   58.54460  -10.80880  -12.40060  # hc,c,oh

# BondBond Coeffs

angle_coeff	1 bb    3.38720    1.53000    1.10100  # c,c,hc
angle_coeff	2 bb   11.43180    1.53000    1.42000  # c,c,oc
angle_coeff	3 bb   11.43180    1.53000    1.42000  # c,c,oh
angle_coeff	4 bb   -7.11310    1.42000    1.42000  # c,oc,c
angle_coeff	5 bb   -9.68790    1.42000    0.96500  # c,oh,ho
angle_coeff	6 bb    5.33160    1.10100    1.10100  # hc,c,hc
angle_coeff	7 bb   23.19790    1.10100    1.42000  # hc,c,oc
angle_coeff	8 bb   23.19790    1.10100    1.42000  # hc,c,oh

# BondAngle Coeffs

angle_coeff	1 ba   20.75400   11.42100    1.53000    1.10100  # c,c,hc
angle_coeff	2 ba    2.68680   20.40330    1.53000    1.42000  # c,c,oc
angle_coeff	3 ba    2.68680   20.40330    1.53000    1.42000  # c,c,oh
angle_coeff	4 ba   -2.81120   -2.81120    1.42000    1.42000  # c,oc,c
angle_coeff	5 ba   28.58000   18.92770    1.42000    0.96500  # c,oh,ho
angle_coeff	6 ba   18.10300   18.10300    1.10100    1.10100  # hc,c,hc
angle_coeff	7 ba    4.61890   55.32700    1.10100    1.42000  # hc,c,oc
angle_coeff	8 ba    4.61890   55.32700    1.10100    1.42000  # hc,c,oh

# Dihedral Coeffs

dihedral_coeff	1   -0.52030    0.00000   -0.30280    0.00000   -0.34500    0.00000  # c,c,oc,c
dihedral_coeff	2   -0.67320    0.00000   -0.47780    0.00000   -0.16700    0.00000  # c,c,oh,ho
dihedral_coeff	3    0.53020    0.00000    0.00000    0.00000   -0.39660    0.00000  # c,oc,c,hc
dihedral_coeff	4   -0.14320    0.00000    0.06170    0.00000   -0.10830    0.00000  # hc,c,c,hc
dihedral_coeff	5   -0.14350    0.00000    0.25300    0.00000   -0.09050    0.00000  # hc,c,c,oc
dihedral_coeff	6   -0.14350    0.00000    0.25300    0.00000   -0.09050    0.00000  # hc,c,c,oh
dihedral_coeff	7    0.18630    0.00000   -0.43380    0.00000   -0.21210    0.00000  # hc,c,oh,ho
dihedral_coeff	8   -0.18200    0.00000   -0.10840    0.00000   -0.70470    0.00000  # oc,c,c,oc
dihedral_coeff	9   -0.18200    0.00000   -0.10840    0.00000   -0.70470    0.00000  # oc,c,c,oh

# MiddleBondTorsion Coeffs

dihedral_coeff	1 mbt   -5.92880   -2.70070   -0.31750    1.42000  # c,c,oc,c
dihedral_coeff	2 mbt    1.24720    0.00000    0.74850    1.42000  # c,c,oh,ho
dihedral_coeff	3 mbt   -6.80070   -4.65460   -1.41010    1.42000  # c,oc,c,hc
dihedral_coeff	4 mbt  -14.26100   -0.53220   -0.48640    1.53000  # hc,c,c,hc
dihedral_coeff	5 mbt  -16.79750   -1.22960   -0.27500    1.53000  # hc,c,c,oc
dihedral_coeff	6 mbt  -16.79750   -1.22960   -0.27500    1.53000  # hc,c,c,oh
dihedral_coeff	7 mbt    0.00000    0.92410   -0.58890    1.42000  # hc,c,oh,ho
dihedral_coeff	8 mbt  -17.25850   -3.61570   -0.83640    1.53000  # oc,c,c,oc
dihedral_coeff	9 mbt  -17.25850   -3.61570   -0.83640    1.53000  # oc,c,c,oh

# EndBondTorsion Coeffs

dihedral_coeff	1 ebt   -0.24560    1.05170   -0.77950    0.47410    1.26350    0.55760    1.53000    1.42000  # c,c,oc,c
dihedral_coeff	2 ebt   -0.58000    0.90040    0.00000    0.00000    0.53430    0.90250    1.53000    0.96500  # c,c,oh,ho
dihedral_coeff	3 ebt   -0.16200    0.15640   -1.14080   -0.60540    1.33390    0.96480    1.42000    1.10100  # c,oc,c,hc
dihedral_coeff	4 ebt    0.21300    0.31200    0.07770    0.21300    0.31200    0.07770    1.10100    1.10100  # hc,c,c,hc
dihedral_coeff	5 ebt    0.96810    0.95510    0.04360    0.59030    0.66690    0.85840    1.10100    1.42000  # hc,c,c,oc
dihedral_coeff	6 ebt    0.96810    0.95510    0.04360    0.59030    0.66690    0.85840    1.10100    1.42000  # hc,c,c,oh
dihedral_coeff	7 ebt   -1.75540    1.31450    0.22630    0.24930    0.68030    0.00000    1.10100    0.96500  # hc,c,oh,ho
dihedral_coeff	8 ebt    1.01650    0.75530   -0.46090    1.01650    0.75530   -0.46090    1.42000    1.42000  # oc,c,c,oc
dihedral_coeff	9 ebt    1.01650    0.75530   -0.46090    1.01650    0.75530   -0.46090    1.42000    1.42000  # oc,c,c,oh

# AngleTorsion Coeffs

dihedral_coeff	1 at   -2.74660    1.48770   -0.89550    0.56760    0.94500    0.07030  111.27000  104.50000  # c,c,oc,c
dihedral_coeff	2 at   -3.59030    2.52250    0.48880    0.87260   -0.35770    0.38880  111.27000  105.80000  # c,c,oh,ho
dihedral_coeff	3 at   -0.77770    0.43400   -0.66530   -1.82340    1.63930    0.51440  104.50000  108.72800  # c,oc,c,hc
dihedral_coeff	4 at   -0.80850    0.55690   -0.24660   -0.80850    0.55690   -0.24660  110.77000  110.77000  # hc,c,c,hc
dihedral_coeff	5 at    2.36680    2.49200   -1.01220   -0.18920    0.49180    0.72730  110.77000  111.27000  # hc,c,c,oc
dihedral_coeff	6 at    2.36680    2.49200   -1.01220   -0.18920    0.49180    0.72730  110.77000  111.27000  # hc,c,c,oh
dihedral_coeff	7 at   -3.40600    1.63960    0.07370    0.00000   -0.28100   -0.59440  108.72800  105.80000  # hc,c,oh,ho
dihedral_coeff	8 at    0.55110    0.97370   -0.66730    0.55110    0.97370   -0.66730  111.27000  111.27000  # oc,c,c,oc
dihedral_coeff	9 at    0.55110    0.97370   -0.66730    0.55110    0.97370   -0.66730  111.27000  111.27000  # oc,c,c,oh

# AngleAngleTorsion Coeffs

dihedral_coeff	1 aat  -19.00590  111.27000  104.50000  # c,c,oc,c
dihedral_coeff	2 aat  -12.10380  111.27000  105.80000  # c,c,oh,ho
dihedral_coeff	3 aat  -16.44380  104.50000  108.72800  # c,oc,c,hc
dihedral_coeff	4 aat  -12.56400  110.77000  110.77000  # hc,c,c,hc
dihedral_coeff	5 aat  -20.20060  110.77000  111.27000  # hc,c,c,oc
dihedral_coeff	6 aat  -20.20060  110.77000  111.27000  # hc,c,c,oh
dihedral_coeff	7 aat  -10.50930  108.72800  105.80000  # hc,c,oh,ho
dihedral_coeff	8 aat  -14.04840  111.27000  111.27000  # oc,c,c,oc
dihedral_coeff	9 aat  -14.04840  111.27000  111.27000  # oc,c,c,oh

# BondBond13 Coeffs

dihedral_coeff	1 bb13    0.00000    1.53000    1.42000  # c,c,oc,c
dihedral_coeff	2 bb13    0.00000    1.53000    0.96500  # c,c,oh,ho
dihedral_coeff	3 bb13    0.00000    1.42000    1.10100  # c,oc,c,hc
dihedral_coeff	4 bb13    0.00000    1.10100    1.10100  # hc,c,c,hc
dihedral_coeff	5 bb13    0.00000    1.10100    1.42000  # hc,c,c,oc
dihedral_coeff	6 bb13    0.00000    1.10100    1.42000  # hc,c,c,oh
dihedral_coeff	7 bb13    0.00000    1.10100    0.96500  # hc,c,oh,ho
dihedral_coeff	8 bb13    0.00000    1.42000    1.42000  # oc,c,c,oc
dihedral_coeff	9 bb13    0.00000    1.42000    1.42000  # oc,c,c,oh

# Improper Coeffs

improper_coeff	1    0.00000    0.00000  # c,c,hc,hc
improper_coeff	2    0.00000    0.00000  # c,c,hc,oc
improper_coeff	3    0.00000    0.00000  # c,c,oc,hc
improper_coeff	4    0.00000    0.00000  # c,c,oh,hc
improper_coeff	5    0.00000    0.00000  # c,hc,hc,hc
improper_coeff	6    0.00000    0.00000  # c,hc,hc,oc
improper_coeff	7    0.00000    0.00000  # c,hc,hc,oh

# AngleAngle Coeffs

improper_coeff	1 aa    0.27380   -0.48250    0.27380  110.77000  110.77000  107.66000  # c,c,hc,hc
improper_coeff	2 aa    3.91770    2.59260    0.16890  110.77000  111.27000  108.72800  # c,c,hc,oc
improper_coeff	3 aa    0.16890    2.59260    3.91770  111.27000  110.77000  108.72800  # c,c,oc,hc
improper_coeff	4 aa    0.16890    2.59260    3.91770  111.27000  110.77000  108.72800  # c,c,oh,hc
improper_coeff	5 aa   -0.31570   -0.31570   -0.31570  107.66000  107.66000  107.66000  # c,hc,hc,hc
improper_coeff	6 aa    2.42590    2.42590    2.12830  107.66000  108.72800  108.72800  # c,hc,hc,oc
improper_coeff	7 aa    2.42590    2.42590    2.12830  107.66000  108.72800  108.72800  # c,hc,hc,oh


# --- Thermo Output ---
thermo_style custom step time temp press enthalpy etotal ke pe ebond eangle edihed eimp evdwl ecoul vol lx ly lz density pxx pyy pzz
thermo_modify flush yes
thermo 1000

# --- Trajectory ---
dump dump_comp all custom 2000 npt_compress.dump id type mol x y z ix iy iz vx vy vz

restart 10000 compress_1.rst compress_2.rst
velocity all create 600.0 222185 mom yes rot yes dist gaussian
# SHAKE disabled

# --- NPT Compression ---
# High pressure compresses the cell from low to target density
# P ramp: 1.0 -> 50000.0 atm
timestep 0.5
fix npt_comp all npt temp 580.0 580.0 100.0 iso 1.0 50000.0 1000.0

run 500000
Generated 10 of 10 mixed pair_coeff terms from sixthpower/sixthpower mixing rule
Neighbor list info ...
  update: every = 1 steps, delay = 0 steps, check = yes
  max neighbors/atom: 4000, page size: 100000
  master list distance cutoff = 11.5
  ghost atom cutoff = 11.5
  binsize = 11.5, bins = 5 5 5
  1 neighbor lists, perpetual/occasional/extra = 1 0 0
  (1) pair lj/class2/coul/cut/kk, perpetual
      attributes: full, newton off, kokkos_device
      pair build: full/bin/kk/device
      stencil: full/bin/3d
      bin: kk/device
Per MPI rank memory allocation (min/avg/max) = 21.53 | 21.53 | 21.53 Mbytes
   Step          Time           Temp          Press         Enthalpy        TotEng         KinEng         PotEng         E_bond        E_angle        E_dihed        E_impro         E_vdwl         E_coul         Volume           Lx             Ly             Lz          Density          Pxx            Pyy            Pzz      
         0   0              600            257.16351      19278.752      18828.781      12553.383      6275.398       4539.9253      8269.0771     -7723.2206     -103.72276     -932.63992      2225.9789      119977.31      49.321133      49.321133      49.321133      0.60999999     713.40455     -182.61863      240.7046     
      1000   500            578.80213      857.50434      19714.432      18249.515      12109.875      6139.6399      4443.201       8387.1294     -7783.9728     -96.298106     -933.04059      2122.6209      117138.79      48.929064      48.929064      48.929064      0.62478159     1017.0104      686.59007      868.91254    
      2000   1000           577.1962      -520.97842      16940.727      17802.332      12076.275      5726.0568      4480.8178      8383.225      -7789.2097     -101.54837     -1044.6469      1797.4191      113399.93      48.40285       48.40285       48.40285       0.64538098    -57.019229     -567.51537     -938.40066    
      3000   1500           579.93644      779.87674      19262.49       18020.226      12133.608      5886.6186      4523.6486      8086.4043     -7736.1648     -86.955162     -1100.4838      2200.1696      109222.47      47.801039      47.801039      47.801039      0.67006504     1925.8416      109.7049       304.08377    
      4000   2000           586.13038      147.89089      18188.183      17960.484      12263.199      5697.2849      4464.4679      8274.7179     -7790.7039     -94.474165     -1131.7613      1975.0385      105570.73      47.262263      47.262263      47.262263      0.6932429     -505.96654     -353.76064      1303.3999    
      5000   2500           590.90893     -780.84625      17126.351      18291.02       12363.177      5927.8431      4547.286       8362.8137     -7782.3048     -97.521287     -1228.9436      2126.513       102273.08      46.764946      46.764946      46.764946      0.71559557    -1944.842       465.50801     -863.20474    
      6000   3000           575.56744     -317.90066      17194.806      17653.706      12042.198      5611.5076      4470.0213      8138.9434     -7745.9631     -94.105825     -1197.4801      2040.0919      98980.75       46.257652      46.257652      46.257652      0.73939791     499.03024     -336.31909     -1116.4131    
      7000   3500           582.52066      695.91176      18835.27       17863.555      12187.675      5675.8793      4551.7264      8192.4182     -7673.3511     -95.320508     -1310.1526      2010.5589      95743.406      45.747738      45.747738      45.747738      0.76439895     1076.2006     -9.4369683      1020.9716    
      8000   4000           575.66385     -448.97418      17006.533      17611.717      12044.215      5567.5023      4532.1757      8239.2803     -7660.9095     -99.486943     -1336.4978      1892.9406      92425.136      45.213004      45.213004      45.213004      0.7918426     -346.57057     -1084.7066      84.354676    
      9000   4500           582.50235      356.1615       17885.944      17420.632      12187.292      5233.3402      4510.887       8215.401      -7733.9875     -96.684325     -1475.0426      1812.7667      89581.995      44.74456       44.74456       44.74456       0.81697399     882.83046     -32.042991      217.69702    
     10000   5000           579.58658     -279.40479      17065.579      17419.769      12126.288      5293.4818      4463.8911      8156.6409     -7636.0764     -93.978387     -1534.5609      1937.5656      86921.536      44.297151      44.297151      44.297151      0.8419796      1594.826      -1883.1971     -549.84326    
     11000   5500           570.17516     -409.45075      16679.854      17181.868      11929.379      5252.4894      4408.9099      8127.8205     -7634.1511     -90.289731     -1519.1706      1959.3704      84069.591      43.807282      43.807282      43.807282      0.8705426     -3227.7515      1065.6921      933.70716    
     12000   6000           577.45282      188.78157      17317.618      17091.64       12081.645      5009.9956      4421.7233      8134.8672     -7666.4654     -97.612437     -1649.7285      1867.2114      82078.743      43.458717      43.458717      43.458717      0.8916579      1071.9157     -634.19751      128.62655    
     13000   6500           573.7647       1113.2942      18293.717      16991.389      12004.48       4986.9083      4399.0611      8216.9315     -7811.6591     -92.227882     -1698.1645      1972.9671      80211.112      43.126563      43.126563      43.126563      0.91241921    -389.9562       946.78767      2783.051     
     14000   7000           584.05872      1172.2468      18650.638      17292.968      12219.855      5073.1126      4472.664       8142.878      -7687.4906     -95.563736     -1825.4665      2066.0915      79414.441      42.983307      42.983307      42.983307      0.92157243     899.09792      552.727        2064.9156    
     15000   7500           586.86955      3277.3948      21071.121      17347.766      12278.664      5069.102       4465.8296      8180.8563     -7702.4909     -94.515457     -1792.4311      2011.8536      77898.626      42.708069      42.708069      42.708069      0.93950515     4795.4083      2717.8574      2318.9187    
     16000   8000           585.66863      2196.1814      19627.058      17160.993      12253.538      4907.4552      4352.2033      8268.3338     -7763.6834     -96.840391     -1835.0885      1982.5303      76994.606      42.542215      42.542215      42.542215      0.95053619     2729.0912      1814.5064      2044.9466    
     17000   8500           579.92592      2990.2428      20506.865      17170.006      12133.387      5036.6192      4359.5317      8173.6588     -7719.8349     -95.506822     -1805.9305      2124.7009      76516.553      42.453985      42.453985      42.453985      0.95647487     3091.3609      1758.968       4120.3994    
     18000   9000           572.18478      882.44706      18127.374      17139.145      11971.425      5167.7203      4507.7225      8273.9083     -7745.3417     -93.80466      -1875.8202      2101.056       76787.915      42.504113      42.504113      42.504113      0.95309476     176.7739       961.2055       1509.3618    
     19000   9500           582.90478      2568.0354      20165.171      17330.058      12195.712      5134.346       4561.904       8233.76       -7629.2313     -92.345612     -1946.7668      2007.0257      75699.58       42.30235       42.30235       42.30235       0.96679744     1966.6688      3245.572       2491.8655    
     20000   10000          589.72964      1794.8648      19201.526      17235.761      12338.504      4897.2572      4403.0609      8256.8638     -7718.7604     -93.711198     -2018.0787      2067.8828      75097.252      42.189853      42.189853      42.189853      0.97455177     2431.1922      1055.4123      1897.9901    
     21000   10500          584.04633      2238.7072      19489.814      17048.528      12219.596      4828.9318      4509.5665      8228.4668     -7700.0397     -94.57199      -1935.2618      1820.772       74773.131      42.129068      42.129068      42.129068      0.97877618     1000.3792      3578.0106      2137.7319    
     22000   11000          575.14501      3426.287       20322.416      16599.552      12033.36       4566.1923      4407.7827      7955.6986     -7648.7975     -96.993565     -1895.7626      1844.2646      74503.647      42.078396      42.078396      42.078396      0.98231647     4737.8238      3089.5457      2451.4915    
     23000   11500          582.73787      1949.0042      18992.955      16894.427      12192.22       4702.2073      4496.2026      8257.7674     -7752.6985     -91.001108     -2044.5769      1836.5138      73828.852      41.950973      41.950973      41.950973      0.99129483     1213.2249      3474.0353      1159.7524    
     24000   12000          581.01711      1497.4144      18302.517      16698.26       12156.218      4542.0426      4542.1061      8011.6303     -7602.5596     -90.706523     -2064.8435      1746.4158      73460.878      41.88116       41.88116       41.88116       0.99626034     1258.11        1966.9424      1267.1908    
     25000   12500          585.25844      2195.0687      19018.407      16661.652      12244.956      4416.6958      4403.2314      8127.9695     -7709.4633     -91.295994     -2010.6046      1696.8589      73619.099      41.911207      41.911207      41.911207      0.9941192      4083.9422      1199.6839      1301.58      
     26000   13000          577.28094      2515.0985      19309.201      16627.549      12078.048      4549.5011      4510.1831      8139.3816     -7681.7763     -97.433482     -2087.3693      1766.5155      73109.103      41.814203      41.814203      41.814203      1.001054       1340.5887      2515.766       3688.9407    
     27000   13500          578.33439      2082.2087      19122.412      16921.379      12100.089      4821.2903      4477.2148      8311.6658     -7738.5419     -96.254361     -2066.9227      1934.1287      72481.365      41.694182      41.694182      41.694182      1.0097238      1573.3485      3178.9601      1494.3174    
     28000   14000          579.29857      3186.0244      20202.876      16820.335      12120.262      4700.0733      4481.5198      8314.5591     -7680.8459     -92.902036     -2033.5771      1711.3194      72797.762      41.754762      41.754762      41.754762      1.0053353      3192.4299      2001.1112      4364.5322    
     29000   14500          572.57198      4408.4418      21201.513      16577.171      11979.526      4597.6452      4376.9335      8293.3946     -7710.1746     -98.221663     -2122.4743      1858.1876      71926.497      41.587515      41.587515      41.587515      1.0175132      5307.1381      1948.7036      5969.4836    
     30000   15000          578.49119      2070.0119      18810.999      16625.693      12103.37       4522.3239      4513.6706      8099.1901     -7678.3757     -96.541787     -2178.928       1863.3087      72387.486      41.676173      41.676173      41.676173      1.0110333     -103.76607      3502.1195      2811.6823    
     31000   15500          581.02115      3851.0871      20840.804      16809.971      12156.302      4653.669       4515.3661      8150.2913     -7646.4683     -94.418549     -2057.1941      1786.0925      71768.779      41.557095      41.557095      41.557095      1.0197493      3108.6454      3882.3138      4562.3022    
     32000   16000          579.24829      3287.3374      19744.835      16313.864      12119.21       4194.6541      4454.4072      8000.044      -7627.8104     -96.869845     -2211.0072      1675.8903      71564.377      41.517606      41.517606      41.517606      1.0226619      3431.3171      2191.975       4238.72      
     33000   16500          580.88873      3051.0946      19687.134      16510.856      12153.532      4357.3245      4339.6768      8248.3582     -7731.6533     -93.768207     -2184.8497      1779.5608      71381.718      41.482253      41.482253      41.482253      1.0252788      5810.0692     -95.647306      3438.8618    
     34000   17000          586.35225      3227.2055      20201.22       16850.487      12267.841      4582.6461      4523.8356      8238.1344     -7692.1851     -92.680785     -2184.0749      1789.6169      71192.998      41.445663      41.445663      41.445663      1.0279966      3160.4259      3076.2627      3444.9279    
     35000   17500          590.6258       1639.0164      19061.428      17366.262      12357.253      5009.0085      4531.271       8210.8567     -7615.6022     -91.731201     -2218.7168      2192.931       70917.443      41.392122      41.392122      41.392122      1.031991       1148.0375      1685.1997      2083.8119    
     36000   18000          579.5119       2949.1265      19919.281      16876.972      12124.725      4752.2463      4517.8596      8269.3934     -7723.9015     -103.75977     -2194.1342      1986.7888      70734.956      41.356587      41.356587      41.356587      1.0346534      4032.8725      500.35648      4314.1504    
     37000   18500          582.55066      4691.8226      21444.079      16629.27       12188.303      4440.9667      4471.4707      8092.8589     -7715.1074     -96.350564     -2102.7414      1790.8365      70365.791      41.284515      41.284515      41.284515      1.0400815      4637.9248      3998.2888      5439.2542    
     38000   19000          578.8291       3965.8995      20653.316      16558.506      12110.439      4448.0667      4443.7441      8261.16       -7750.0701     -98.185909     -2215.2254      1806.6439      70797.215      41.368717      41.368717      41.368717      1.0337435      5216.9666      2789.114       3891.6177    
     39000   19500          581.49589      4440.8264      20607.269      16059.631      12166.235      3893.3959      4352.2428      8051.529      -7782.4311     -92.856384     -2115.9343      1480.8459      70217.638      41.255521      41.255521      41.255521      1.042276       6379.351       4037.9212      2905.2071    
     40000   20000          573.60554      4101.2276      20752.788      16572.102      12001.151      4570.9518      4444.9072      8226.5964     -7689.4322     -95.667373     -2193.9877      1878.5355      69896.865      41.192603      41.192603      41.192603      1.0470593      5016.0401      5069.3946      2218.2481    
     41000   20500          571.65692      4325.0699      20703.722      16297.059      11960.381      4336.6777      4417.3687      8136.4041     -7764.2631     -93.531197     -2179.8798      1820.5791      69861.968      41.185746      41.185746      41.185746      1.0475823      5776.693       3709.4366      3489.08      
     42000   21000          583.13186      6023.1032      22446.079      16353.961      12200.463      4153.4978      4395.4127      8100.7165     -7815.2016     -89.945633     -2245.7932      1808.309       69354.102      41.085703      41.085703      41.085703      1.0552535      6667.5012      5736.5799      5665.2286    
     43000   21500          577.21177      3480.0665      19856.237      16307.463      12076.601      4230.8619      4356.5287      8044.2301     -7675.2844     -93.360036     -2142.303       1741.0505      69922.175      41.197574      41.197574      41.197574      1.0466803      4819.7787      1984.2361      3636.1848    
     44000   22000          578.63928      2106.038       18579.111      16452.834      12106.468      4346.3659      4370.9756      8130.4992     -7728.1911     -93.627693     -2199.7923      1866.5022      69227.352      41.060658      41.060658      41.060658      1.0571856      3330.829       2376.1331      611.15184    
     45000   22500          580.78574      3289.0094      19889.123      16555.217      12151.377      4403.8398      4454.4078      8116.275      -7711.9509     -95.507655     -2250.0865      1890.702       69504.412      41.115363      41.115363      41.115363      1.0529714      3564.9952      3251.6501      3050.3829    
     46000   23000          586.50143      6151.2604      23030.407      16841.801      12270.962      4570.8385      4385.1825      8212.6373     -7775.8851     -91.237241     -2279.8556      2119.9967      68984.714      41.01263       41.01263       41.01263       1.060904       6926.9133      6131.0714      5395.7964    
     47000   23500          584.05411      4275.4066      20998.956      16694.695      12219.759      4474.9359      4407.7045      8106.5578     -7801.5649     -95.258282     -2287.449       2144.9459      69031.184      41.021837      41.021837      41.021837      1.0601898      4205.791       4066.6102      4553.8186    
     48000   24000          584.81335      2567.6614      18969.387      16390.564      12235.644      4154.9208      4506.6589      8080.4108     -7732.8635     -95.938296     -2266.0527      1662.7056      68866.471      40.989184      40.989184      40.989184      1.0627256      3721.8543      3653.008       328.12177    
     49000   24500          579.66988      6104.421       22511.921      16396.936      12128.031      4268.9053      4567.0913      8081.2972     -7758.4645     -96.015764     -2293.247       1768.2441      68687.08       40.953562      40.953562      40.953562      1.0655011      4385.5739      7468.8241      6458.8649    
     50000   25000          585.35959      4576.1023      21469.314      16860.927      12247.072      4613.8549      4427.2406      8193.5528     -7737.621      -99.077101     -2202.8495      2032.609       69052.174      41.025995      41.025995      41.025995      1.0598676      4420.0218      4166.98        5141.3051    
     51000   25500          583.56404      5759.6887      22297.023      16562.55       12209.505      4353.0444      4398.1188      7967.5281     -7657.3258     -94.21595      -2225.6815      1964.6207      68268.233      40.870149      40.870149      40.870149      1.0720383      5521.5132      4967.0215      6790.5316    
     52000   26000          571.52912      5446.0099      21867.065      16398.282      11957.707      4440.5754      4425.6474      8049.0856     -7678.0581     -96.75746      -2245.4799      1986.1379      68855.142      40.986937      40.986937      40.986937      1.0629004      2621.4078      4925.5799      8791.0419    
     53000   26500          579.25274      6071.0515      22459.97       16414.023      12119.303      4294.7196      4384.2902      8043.2676     -7669.456      -99.008279     -2241.5586      1877.1846      68284.881      40.873471      40.873471      40.873471      1.0717769      6237.0757      5577.0954      6398.9833    
     54000   27000          579.44757      5152.7429      21904.143      16777.351      12123.379      4653.9714      4489.1139      8138.1898     -7774.2686     -90.249714     -2162.4198      2053.6058      68223.086      40.861138      40.861138      40.861138      1.0727477      5039.6923      6418.1816      4000.3549    
     55000   27500          584.12029      6235.0683      22777.449      16581.608      12221.143      4360.4646      4379.0681      8114.2898     -7688.0194     -91.307877     -2207.2657      1853.6997      68137.023      40.843948      40.843948      40.843948      1.0741027      4847.402       9245.6316      4612.1714    
     56000   28000          581.9153       5863.3584      22679.262      16889.015      12175.01       4714.0054      4517.505       8275.1634     -7728.4266     -94.882199     -2276.407       2021.0528      67713.416      40.75913       40.75913       40.75913       1.0808222      5953.8942      6278.2751      5357.9058    
     57000   28500          577.46341      7992.9521      24474.414      16577.262      12081.866      4495.3956      4603.0517      7928.1806     -7640.4127     -90.10269      -2244.1991      1938.8779      67746.586      40.765785      40.765785      40.765785      1.080293       8445.5943      8078.9835      7454.2786    
     58000   29000          573.76461      5638.3088      21869.701      16342.148      12004.479      4337.6692      4318.1449      8026.0878     -7731.9519     -96.743865     -2170.3118      1992.4441      67221.492      40.660188      40.660188      40.660188      1.0887316      5163.1603      5548.6157      6203.1503    
     59000   29500          573.24259      4987.675       20942.567      16031.542      11993.557      4037.9851      4386.0122      8033.9443     -7715.3177     -93.95908      -2389.6084      1816.9138      67514.663      40.719212      40.719212      40.719212      1.0840039      3493.162       6283.4686      5186.3944    
     60000   30000          572.86016      5489.597       21646.227      16251.192      11985.555      4265.6364      4291.1584      8112.4296     -7745.3676     -92.505231     -2252.4221      1952.3434      67387.278      40.693587      40.693587      40.693587      1.0860531      5088.309       6166.8615      5213.6206    
     61000   30500          579.9977       7354.1219      23681.05       16545.642      12134.889      4410.753       4391.7983      8219.9598     -7773.633      -96.39726      -2311.3785      1980.4037      66529.17       40.520118      40.520118      40.520118      1.1000612      8282.6086      7611.5984      6168.1587    
     62000   31000          579.69667      5659.3828      22017.462      16462.162      12128.591      4333.571       4460.1434      8268.0531     -7787.9378     -95.241579     -2372.8954      1861.4494      67307.356      40.677493      40.677493      40.677493      1.0873427      4096.936       5972.1908      6909.0215    
     63000   31500          579.88086      6022.563       22661.325      16780.471      12132.445      4648.0263      4523.3329      8253.8838     -7673.7137     -101.49852     -2331.9609      1977.9828      66955.021      40.60639       40.60639       40.60639       1.0930645      6976.7167      5012.7058      6078.2665    
     64000   32000          587.04531      5421.495       21970.554      16693.016      12282.342      4410.6742      4428.0893      8447.9207     -7752.0878     -104.67631     -2385.3558      1776.7842      66747.725      40.56444       40.56444       40.56444       1.0964592      6586.3555      2598.8333      7079.2964    
     65000   32500          579.50288      6960.8814      23186.526      16405.616      12124.536      4281.0798      4432.3358      8222.636      -7671.9463     -99.979822     -2303.2956      1701.3297      66795.596      40.574136      40.574136      40.574136      1.0956734      7223.1341      6233.998       7425.5122    
     66000   33000          578.40172      6051.0216      22236.016      16342.133      12101.498      4240.6357      4412.3081      8205.2382     -7761.7539     -91.627561     -2307.546       1784.0168      66787.758      40.572549      40.572549      40.572549      1.095802       5268.708       5804.3145      7080.0424    
     67000   33500          569.43825      4721.584       20714.591      16130.289      11913.961      4216.3276      4331.6754      8037.7314     -7708.8302     -91.526933     -2414.6266      2061.9045      66574.758      40.529371      40.529371      40.529371      1.0993079      3774.6228      5092.964       5297.1652    
     68000   34000          572.09255      6939.5084      23072.999      16351.044      11969.495      4381.5491      4366.8412      8088.4235     -7723.2801     -95.185563     -2304.2477      2048.9977      66418.789      40.497696      40.497696      40.497696      1.1018894      7656.2225      4865.9569      8296.346     
     69000   34500          579.24325      5746.7464      21836.214      16307.779      12119.104      4188.6747      4324.4357      8206.9115     -7759.2929     -98.39842      -2343.852       1858.8709      65963.593      40.404968      40.404968      40.404968      1.1094932      4582.7387      6986.0495      5671.4509    
     70000   35000          580.43318      7243.0251      23679.691      16651.99       12144          4507.9894      4398.5918      8207.0888     -7721.8211     -95.672658     -2371.3008      2091.1033      66529.98       40.520283      40.520283      40.520283      1.1000478      5696.4502      7990.5389      8042.0862    
     71000   35500          586.44492      5730.3315      21641.631      16099.754      12269.78       3829.9745      4254.6709      8156.7077     -7784.0875     -93.568227     -2337.5912      1633.8429      66313.381      40.476261      40.476261      40.476261      1.1036409      6043.1028      6186.0834      4961.8084    
     72000   36000          576.92067      8927.2893      24653.98       16062.553      12070.511      3992.0423      4320.0637      8033.0814     -7778.6927     -89.858898     -2209.1148      1716.5635      65988.736      40.410101      40.410101      40.410101      1.1090705      8671.8204      10647.228      7462.8196    
     73000   36500          572.38569      7737.7978      23582.187      16104.745      11975.628      4129.1167      4380.4816      8019.173      -7751.5505     -92.108459     -2363.918       1937.039       66261.273      40.465657      40.465657      40.465657      1.1045088      8389.4344      6465.5343      8358.4246    
     74000   37000          580.37643      5934.4599      22087.918      16402.602      12142.813      4259.7893      4346.9139      8045.7756     -7719.2584     -97.272729     -2311.4539      1995.0847      65689.734      40.348974      40.348974      40.348974      1.1141187      5901.9496      7169.8162      4731.6138    
     75000   37500          587.54444      7732.3469      24029.486      16568.655      12292.784      4275.8707      4395.1166      8106.8813     -7733.4671     -91.52198      -2329.8323      1928.6942      66160.686      40.44517       40.44517       40.44517       1.106188       6245.7833      9649.073       7302.1845    
     76000   38000          585.22313      9546.1582      25644.597      16556.629      12244.217      4312.412       4402.2099      8236.2058     -7700.1953     -93.017006     -2333.8176      1801.0262      65277.314      40.264356      40.264356      40.264356      1.1211576      8856.5728      9257.6576      10524.244    
     77000   38500          580.84332      8332.2338      24389.992      16380.271      12152.582      4227.6893      4390.1338      7952.1024     -7693.169      -97.431872     -2281.0317      1957.0856      65914.366      40.394915      40.394915      40.394915      1.1103218      8264.7782      7155.7395      9576.1836    
     78000   39000          576.20919      6483.1603      22555.725      16352.599      12055.625      4296.9745      4523.8772      7875.2833     -7679.827      -92.089354     -2318.5269      1988.2571      65606.664      40.331959      40.331959      40.331959      1.1155294      4145.8286      6814.1315      8489.5209    
     79000   39500          578.78933      8105.8958      23967.21       16194.25       12109.607      4084.6428      4322.9141      8014.7274     -7735.0277     -89.525433     -2329.2008      1900.7552      65752.083      40.361736      40.361736      40.361736      1.1130622      7024.2941      8255.69        9037.7033    
     80000   40000          587.1793       7389.6627      23480.192      16392.814      12285.145      4107.6691      4303.172       8013.7982     -7733.319      -95.018128     -2274.7127      1893.7488      65763.526      40.364077      40.364077      40.364077      1.1128685      6691.3744      8207.4411      7270.1726    
     81000   40500          580.0935       7888.1588      23765.389      16249.359      12136.893      4112.4652      4245.4258      8062.7574     -7689.692      -95.291816     -2369.3658      1958.6316      65333.658      40.275938      40.275938      40.275938      1.1201907      10510.734      6866.2852      6287.4572    
     82000   41000          580.05744      6898.6995      22651.227      16053.105      12136.139      3916.9655      4441.2585      7999.6873     -7722.3269     -94.818215     -2377.5535      1670.7183      65580.879      40.326675      40.326675      40.326675      1.115968       7070.1591      6421.2156      7204.7237    
     83000   41500          578.77317      5623.1952      21743.155      16405.879      12109.269      4296.6095      4469.7652      7999.6618     -7732.7728     -97.924132     -2429.475       2087.3544      65081.956      40.224149      40.224149      40.224149      1.1245231      6689.4797      3925.1374      6254.9686    
     84000   42000          582.773        7868.9405      24043.57       16566.215      12192.955      4373.2603      4336.4852      8048.5145     -7760.4494     -96.746328     -2287.4442      2132.9005      65156.211      40.239441      40.239441      40.239441      1.1232415      7838.9427      7192.8218      8575.0571    
     85000   42500          583.25425      8727.2386      24807.247      16556.004      12203.024      4352.9797      4401.4791      8054.3866     -7646.6515     -91.511274     -2307.3294      1942.6063      64828.604      40.171886      40.171886      40.171886      1.1289177      9616.2578      7254.9365      9310.5214    
     86000   43000          577.35826      7598.4308      23803.221      16607.22       12079.666      4527.5535      4472.9086      8222.0285     -7690.0766     -100.55507     -2254.4518      1877.6999      64936.882      40.194239      40.194239      40.194239      1.1270353      8866.316       7229.7416      6699.2347    
     87000   43500          581.69967      9623.8066      25545.464      16444.757      12170.498      4274.2592      4374.2753      8064.9793     -7699.3415     -94.602165     -2325.229       1954.1771      64841.391      40.174527      40.174527      40.174527      1.1286951      8570.5307      10919.913      9380.9763    
     88000   44000          576.92829      8195.9139      24112.423      16351.212      12070.67       4280.5421      4336.7611      8070.4822     -7645.6681     -97.285066     -2295.6314      1911.8833      64931.615      40.193152      40.193152      40.193152      1.1271267      7709.8418      9541.1888      7336.7112    
     89000   44500          578.1519       8090.7048      23846.509      16254.151      12096.271      4157.8798      4368.1572      8122.8489     -7751.6398     -95.398753     -2325.846       1839.7583      64344.945      40.071735      40.071735      40.071735      1.1374034      7490.3954      9411.8725      7369.8466    
     90000   45000          587.81137      8652.2352      24762.626      16580.343      12298.369      4281.9735      4377.638       8132.3761     -7640.8612     -97.027126     -2424.6751      1934.5228      64844.075      40.175081      40.175081      40.175081      1.1286484      9658.0911      8948.5814      7350.033     
     91000   45500          581.20346      9354.0185      25609.617      16841.616      12160.116      4681.4997      4470.9128      8159.618      -7632.4433     -94.060566     -2269.9012      2047.374       64272.687      40.056729      40.056729      40.056729      1.1386821      7926.3203      9547.1947      10588.54     
     92000   46000          579.37603      6952.7825      22869.197      16324.486      12121.882      4202.6035      4333.3264      8139.3006     -7711.7266     -96.950901     -2373.6248      1912.2789      64544.013      40.113016      40.113016      40.113016      1.1338954      6160.0826      9200.0306      5498.2343    
     93000   46500          573.83132      8821.4776      24367.7        16107.661      12005.874      4101.7872      4299.9928      8103.3971     -7684.0658     -98.411114     -2284.75        1765.6241      64204.408      40.04254       40.04254       40.04254       1.1398931      8525.9933      8195.8191      9742.6203    
     94000   47000          576.01513      8816.6624      24441.123      16186.076      12051.565      4134.5111      4488.4658      7903.6509     -7793.3127     -86.853017     -2333.0679      1955.628       64200.657      40.04176       40.04176       40.04176       1.1399597      4280.8337      10823.245      11345.909    
     95000   47500          570.34291      8730.6598      24388.597      16227.98       11932.889      4295.0909      4293.8881      8058.3301     -7743.6992     -96.88663      -2278.7512      2062.2097      64091.442      40.019041      40.019041      40.019041      1.1419022      8777.1877      9584.4857      7830.306     
     96000   48000          584.07368      9634.2737      25818.892      16841.564      12220.168      4621.3958      4480.3694      8130.7459     -7820.441      -91.143195     -2330.613       2252.4777      63892.847      39.977664      39.977664      39.977664      1.1454515      9532.2283      10088.476      9282.1172    
     97000   48500          585.76967      8357.0799      24247.516      16464.161      12255.652      4208.5085      4400.3772      8020.5335     -7679.8618     -92.226505     -2365.8732      1925.5592      63861.099      39.971041      39.971041      39.971041      1.146021       8068.7657      6129.9916      10872.482    
     98000   49000          579.1874       9082.5581      24629.609      16160.274      12117.936      4042.338       4293.0666      8038.4539     -7777.0919     -91.987105     -2382.7514      1962.6479      63938.916      39.98727       39.98727       39.98727       1.1446262      6679.9752      9443.8643      11123.835    
     99000   49500          573.95762      9564.7982      25594.175      16688.508      12008.517      4679.9914      4358.9948      8082.2526     -7777.8429     -89.657823     -2343.7726      2450.0174      63843.213      39.967309      39.967309      39.967309      1.146342       11953.757      8892.3975      7848.2402    
    100000   50000          589.68265      11277.513      26816.914      16342.27       12337.521      4004.7492      4312.8611      7921.2991     -7698.0895     -97.159604     -2336.6234      1902.4614      63686.895      39.934663      39.934663      39.934663      1.1491557      10492.465      10970.311      12369.761    
    101000   50500          581.22163      7998.4414      23909.974      16468.319      12160.497      4307.8223      4335.3527      8184.676      -7814.8452     -90.562045     -2381.8426      2075.0435      63795.239      39.957296      39.957296      39.957296      1.1472041      8256.1427      7987.541       7751.6404    
    102000   51000          577.52671      8739.527       24275.607      16175.791      12083.19       4092.6009      4315.4196      8093.1205     -7696.1473     -91.529429     -2369.3885      1841.126       63549.381      39.9059        39.9059        39.9059        1.1516424      8625.9206      7660.3863      9932.2742    
    103000   51500          581.95353      9929.0346      25561.191      16358.292      12175.81       4182.4826      4334.5239      8204.716      -7803.9127     -98.704387     -2351.9598      1897.8194      63553.833      39.906832      39.906832      39.906832      1.1515617      9596.3264      10310.745      9880.0324    
    104000   52000          583.62651      10888.328      26545.825      16465.275      12210.812      4254.4632      4336.3124      8148.0876     -7653.3534     -95.774822     -2342.5975      1861.789       63481.493      39.891685      39.891685      39.891685      1.152874       10398.816      10690.287      11575.881    
    105000   52500          582.47267      10423.169      26244.321      16611.828      12186.671      4425.1562      4404.7551      8033.161      -7689.7501     -100.51141     -2360.8682      2138.3699      63366.984      39.867684      39.867684      39.867684      1.1549573      11530.337      9628.1113      10111.059    
    106000   53000          577.26695      9398.7467      24903.687      16185.18       12077.756      4107.4239      4391.5805      7954.7255     -7728.9853     -90.920548     -2383.5673      1964.5911      63605.743      39.917694      39.917694      39.917694      1.1506219      10309.073      8184.3535      9702.8139    
    107000   53500          572.63124      10312.875      25863.342      16382.195      11980.766      4401.4291      4367.0855      7962.2634     -7680.6809     -83.234708     -2294.0203      2130.0161      63038.407      39.798656      39.798656      39.798656      1.1609773      13143.469      9745.2832      8049.8726    
    108000   54000          583.91849      10104.245      25825.955      16510.952      12216.921      4294.0309      4432.0161      8294.3602     -7803.1273     -95.225005     -2387.8157      1853.8227      63212.539      39.835268      39.835268      39.835268      1.1577792      9329.5889      11543.911      9439.2349    
    109000   54500          581.05765      10271.724      26411.373      16949.223      12157.066      4792.1569      4357.9009      8180.9676     -7714.1994     -94.650686     -2283.4937      2345.6322      63164.143      39.8251        39.8251        39.8251        1.1586662      11282.061      10832.798      8700.3143    
    110000   55000          579.60735      12934.387      28225.461      16329.754      12126.722      4203.0321      4405.644       8039.77       -7747.8053     -95.151407     -2310.5288      1911.1037      63062.11       39.803644      39.803644      39.803644      1.1605409      14311.6        13065.548      11426.013    
    111000   55500          575.83146      11748.06       26904.093      16150.92       12047.722      4103.1978      4387.6803      7927.0451     -7750.5666     -93.553546     -2243.1884      1875.7809      62761.685      39.740336      39.740336      39.740336      1.1660962      12174.581      11187.446      11882.153    
    112000   56000          579.5713       9371.4438      24706.202      16082.133      12125.968      3956.1648      4272.9752      8115.6611     -7690.1063     -102.6167      -2419.6882      1779.9396      63100.073      39.81163       39.81163       39.81163       1.1598427      9634.8729      8463.5813      10015.877    
    113000   56500          578.06337      10344.238      25756.592      16280.975      12094.419      4186.5567      4405.5619      8109.9286     -7834.809      -94.422869     -2361.3648      1961.6629      62810.622      39.750662      39.750662      39.750662      1.1651876      10197.925      10646.459      10188.33     
    114000   57000          592.38294      10890.967      26442.127      16469.298      12394.017      4075.2806      4306.2891      8286.9205     -7920.4676     -97.317717     -2372.0445      1871.9009      62787.912      39.745871      39.745871      39.745871      1.1656091      9922.8253      11201.574      11548.501    
    115000   57500          586.92264      11286.574      26985.954      16623.61       12279.775      4343.8349      4370.0317      8251.8141     -7741.7158     -97.562187     -2370.297       1931.5643      62953.514      39.780783      39.780783      39.780783      1.1625429      10595.784      11511.408      11752.53     
    116000   58000          580.8948       13241.189      28621.986      16554.305      12153.659      4400.6462      4323.4305      7888.1039     -7657.3618     -89.702593     -2210.7025      2146.8786      62491.503      39.683228      39.683228      39.683228      1.1711378      13720.866      14302.812      11699.889    
    117000   58500          581.45581      11778.226      27318.536      16522.432      12165.396      4357.0357      4327.2613      8062.0344     -7748.8425     -91.246529     -2334.3744      2142.2034      62850.868      39.75915       39.75915       39.75915       1.1644415      9514.5847      12429.203      13390.891    
    118000   59000          573.5904       10801.863      26349.601      16497.827      12000.834      4496.9934      4361.3908      8030.3089     -7707.0048     -89.687276     -2358.6631      2260.6488      62537.406      39.692942      39.692942      39.692942      1.1702781      11734.591      11875.402      8795.595     
    119000   59500          576.20602      11720.831      27285.79       16587.972      12055.558      4532.4131      4465.3039      8170.2793     -7756.1963     -106.02975     -2330.8997      2089.9556      62583.656      39.702725      39.702725      39.702725      1.1694133      11590.164      11398.063      12174.265    
    120000   60000          587.72545      9469.7561      25692.789      17046.82       12296.572      4750.248       4410.4233      8232.9833     -7797.614      -99.43786      -2356.0131      2359.9063      62603.557      39.706932      39.706932      39.706932      1.1690416      7742.8253      9404.993       11261.45     
    121000   60500          587.47213      13047.808      28576.637      16724.931      12291.271      4433.6593      4340.4966      8189.3913     -7794.2407     -98.070456     -2264.0621      2060.1446      62282.699      39.63898       39.63898       39.63898       1.175064       12666.765      13866.09       12610.57     
    122000   61000          581.05895      12385.522      27682.108      16379.02       12157.093      4221.927       4350.3979      7885.1198     -7715.2634     -92.35948      -2319.0159      2113.0481      62575.872      39.701078      39.701078      39.701078      1.1695588      12989.149      11961.718      12205.698    
    123000   61500          586.74118      12517.687      27608.397      16310.457      12275.978      4034.4782      4318.4295      7823.7896     -7765.4858     -90.763265     -2248.3654      1996.8736      61886.984      39.554853      39.554853      39.554853      1.1825776      12183.929      12028.686      13340.445    
    124000   62000          582.25065      14479.874      29868.725      16700.679      12182.026      4518.653       4414.0359      8173.683      -7810.4816     -95.861148     -2398.9291      2236.2059      62356.342      39.654597      39.654597      39.654597      1.1736763      14654.6        14400.829      14384.194    
    125000   62500          588.45153      12231.774      27577.911      16539.729      12311.763      4227.9666      4423.0955      8101.5641     -7757.8717     -95.64098      -2383.2819      1940.1015      61877.423      39.552816      39.552816      39.552816      1.1827603      11222.757      13229.331      12243.233    
    126000   63000          585.45725      12517.564      27954.186      16615.09       12249.116      4365.9747      4367.8657      8165.1435     -7773.0266     -92.197128     -2458.5765      2156.7657      62113.032      39.602954      39.602954      39.602954      1.1782738      12076.341      11439.925      14036.426    
    127000   63500          586.34978      14140.463      29100.752      16368.559      12267.789      4100.7697      4355.616       7972.7268     -7761.6452     -90.661084     -2297.074       1921.8071      61739.581      39.523424      39.523424      39.523424      1.185401       13732.593      15247.839      13440.959    
    128000   64000          583.35385      12306.621      27697.259      16543.83       12205.108      4338.7221      4401.6203      7950.5916     -7777.1645     -99.781145     -2289.7915      2153.2474      62143.217      39.609368      39.609368      39.609368      1.1777015      12512.258      12602.674      11804.93     
    129000   64500          570.44382      12120.741      27108.144      16143.753      11935          4208.7526      4314.5254      8165.0612     -7808.6798     -100.48375     -2398.0091      2036.3387      62026.809      39.58462       39.58462       39.58462       1.1799117      11211.867      11964.918      13185.439    
    130000   65000          569.76868      13065.032      27900.282      16123.987      11920.875      4203.1125      4307.6         8043.6172     -7863.3012     -94.774798     -2309.1365      2119.1079      61804.812      39.537338      39.537338      39.537338      1.1841499      13407.679      10710.891      15076.525    
    131000   65500          585.62931      14272.889      29529.791      16629.047      12252.715      4376.3313      4440.3763      7847.2388     -7700.4965     -91.649567     -2252.7244      2133.5866      61976.494      39.573914      39.573914      39.573914      1.1808696      14155.843      15465.738      13197.085    
    132000   66000          582.78786      14684.341      29952.539      16821.257      12193.266      4627.9915      4307.0501      7978.0508     -7652.2575     -91.688723     -2192.3109      2279.1477      61316.416      39.432918      39.432918      39.432918      1.1935818      14076.321      14646.826      15329.878    
    133000   66500          583.1081       12295.745      27358.478      16233.954      12199.966      4033.9877      4363.1052      7907.2447     -7761.0252     -90.132426     -2268.1607      1882.9562      62036.99       39.586786      39.586786      39.586786      1.1797181      15614.443      12209.169      9063.624     
    134000   67000          581.64207      14003.696      29136.554      16556.75       12169.293      4387.4572      4369.7485      8057.55       -7810.9451     -100.10142     -2282.527       2153.7321      61596.397      39.492846      39.492846      39.492846      1.1881565      15483.255      12497.004      14030.828    
    135000   67500          571.00063      12330.621      27539.789      16428.105      11946.65       4481.4556      4453.8221      8058.7262     -7776.3274     -91.935595     -2255.7817      2092.952       61790.122      39.534206      39.534206      39.534206      1.1844314      14432.478      13223.966      9335.4171    
    136000   68000          576.57264      14478.044      29575.977      16617.596      12063.229      4554.3666      4316.024       8014.395      -7730.5917     -94.781173     -2224.0096      2273.3302      61371.253      39.44467       39.44467       39.44467       1.1925153      15060.97       14394.88       13978.281    
    137000   68500          580.79406      10956.964      26463.981      16580.301      12151.551      4428.7498      4382.8042      8101.0279     -7776.3418     -98.940017     -2299.1385      2119.338       61851.832      39.547362      39.547362      39.547362      1.1832497      11856.937      9551.4194      11462.534    
    138000   69000          583.59905      14332.951      29699.182      16892.794      12210.238      4682.5559      4406.0622      8036.8382     -7713.4887     -98.635787     -2246.5168      2298.2968      61265.388      39.421977      39.421977      39.421977      1.194576       13603.178      15122.817      14272.857    
    139000   69500          585.09403      15050.521      30130.153      16676.556      12241.516      4435.0395      4424.594       8124.1611     -7738.3867     -97.130303     -2274.2334      1996.0348      61293.019      39.427902      39.427902      39.427902      1.1940374      11619.24       15882.608      17649.714    
    140000   70000          578.98573      15225.034      30339.917      16757.654      12113.716      4643.9372      4416.2146      8003.729      -7670.3338     -94.399251     -2182.2394      2170.9662      61169.93       39.401492      39.401492      39.401492      1.1964401      14824.397      15930.283      14920.423    
    141000   70500          578.87316      13841.628      28697.157      16351.565      12111.361      4240.2038      4325.2725      7825.1313     -7721.9268     -94.601659     -2213.4411      2119.7695      61157.375      39.398796      39.398796      39.398796      1.1966857      13277.536      13723.173      14524.176    
    142000   71000          576.58239      13234.704      28176.724      16337.07       12063.433      4273.6366      4426.8368      8045.4683     -7750.458      -92.666291     -2303.0827      1947.5385      61340.727      39.438129      39.438129      39.438129      1.1931088      10191.855      13829.07       15683.186    
    143000   71500          579.97937      15614.821      30279.952      16384.185      12134.506      4249.6798      4338.2375      8001.9857     -7798.1426     -88.4419       -2225.6897      2021.7307      61019.638      39.369196      39.369196      39.369196      1.199387       16270.703      14937.271      15636.488    
    144000   72000          579.3966       14278.169      29343.924      16591.792      12122.313      4469.4789      4413.9014      8174.3674     -7723.5806     -99.761613     -2232.3953      1936.9477      61239.889      39.416507      39.416507      39.416507      1.1950734      14195.697      14245.017      14393.794    
    145000   72500          584.26257      13218.829      28477.237      16695.47       12224.12       4471.3497      4468.9782      7992.7237     -7739.3905     -96.909119     -2236.9639      2082.9113      61114.12       39.389505      39.389505      39.389505      1.1975327      11841.105      12734.524      15080.86     
    146000   73000          586.80416      14135.543      29049.859      16451.199      12277.296      4173.9027      4368.4603      8007.6329     -7674.3941     -97.4522       -2274.1869      1843.8426      61113.338      39.389337      39.389337      39.389337      1.1975481      13714.804      14599.909      14091.915    
    147000   73500          580.56938      14590.941      29428.233      16449.387      12146.85       4302.5365      4309.4899      8074.7744     -7699.9362     -94.010132     -2385.6775      2097.896       60992.569      39.363373      39.363373      39.363373      1.1999193      14491.036      15510.127      13771.659    
    148000   74000          577.64797      14510.369      29046.045      16232.119      12085.727      4146.3914      4272.5137      7925.3644     -7632.9144     -91.843959     -2234.801       1908.0726      60551.912      39.268347      39.268347      39.268347      1.2086515      14262.318      14750.43       14518.36     
    149000   74500          576.03188      13704.081      28638.908      16385.699      12051.915      4333.7835      4501.5011      8137.2176     -7725.6766     -91.75196      -2333.613       1846.1063      61308.976      39.431324      39.431324      39.431324      1.1937267      13316.583      13546.538      14249.121    
    150000   75000          593.29308      18553.196      33093.927      16688.301      12413.059      4275.2415      4338.3233      7980.0258     -7660.1296     -95.829609     -2121.8705      1834.7222      60631.482      39.28554       39.28554       39.28554       1.2070653      19297.237      17722.721      18639.631    
    151000   75500          584.44484      16354.411      31184.198      16649.456      12227.934      4421.5228      4409.9545      7984.7019     -7673.4114     -94.515943     -2257.4497      2052.2434      60939.167      39.351882      39.351882      39.351882      1.2009708      14048.022      17627.764      17387.446    
    152000   76000          574.88774      16235.628      30625.886      16274.869      12027.977      4246.8916      4304.385       8120.7618     -7747.7383     -101.23999     -2195.0362      1865.7593      60609.082      39.280702      39.280702      39.280702      1.2075114      15170.791      17306.135      16229.959    
    153000   76500          577.28454      14627.629      29696.593      16724.602      12078.124      4646.4787      4400.1349      8095.5991     -7715.1231     -96.476976     -2251.5863      2213.931       60807.453      39.32351       39.32351       39.32351       1.2035722      16624.479      12195.6        15062.806    
    154000   77000          586.14045      16613.076      31614.836      16942.511      12263.41       4679.101       4451.5748      8132.5613     -7776.3892     -96.517029     -2229.9121      2197.7833      60558.203      39.269707      39.269707      39.269707      1.2085259      16379.731      15942.729      17516.768    
    155000   77500          586.63963      14937.155      29866.421      16755.192      12273.854      4481.3378      4458.3966      8086.6745     -7737.0835     -98.26845      -2246.6695      2018.2882      60186.573      39.189213      39.189213      39.189213      1.2159882      14846.37       13504.65       16460.446    
    156000   78000          580.51854      17883.541      32069.835      16304.14       12145.786      4158.3539      4475.1993      7990.026      -7808.5722     -90.497325     -2272.5816      1864.7798      60448.246      39.245925      39.245925      39.245925      1.2107243      17012.904      20573.191      16064.53     
    157000   78500          574.40878      14592.865      29166.431      16290.353      12017.956      4272.3973      4349.2749      8133.1692     -7747.0703     -92.589338     -2293.4073      1923.02        60501.64       39.257477      39.257477      39.257477      1.2096558      17230.328      13175.373      13372.894    
    158000   79000          584.42256      16100.914      30666.721      16442.354      12227.467      4214.8864      4339.3606      8006.6395     -7696.0996     -94.758087     -2337.3533      1997.0972      60576.832      39.273733      39.273733      39.273733      1.2081543      16281.287      15792.948      16228.507    
    159000   79500          578.21157      18551.218      33015.409      16762.075      12097.519      4664.5553      4244.7295      8032.6994     -7692.2019     -92.789619     -2159.8319      2331.9498      60075.051      39.164993      39.164993      39.164993      1.2182455      18095.666      19398.059      18159.929    
    160000   80000          580.04804      17552.481      31512.795      16057.275      12135.942      3921.3328      4237.7139      7905.9009     -7754.31       -91.710376     -2252.1114      1875.8497      60376.677      39.23043       39.23043       39.23043       1.2121594      15925.572      18626.001      18105.869    
    161000   80500          576.06746      16518.114      30669.485      16161.834      12052.66       4109.1745      4313.1347      7864.8314     -7693.0449     -95.153587     -2105.9464      1825.3533      60222.774      39.197068      39.197068      39.197068      1.2152572      16643.914      15931.182      16979.245    
    162000   81000          574.88975      14762.642      29356.093      16407.891      12028.019      4379.8724      4414.3738      7943.1212     -7766.1613     -99.622462     -2174.4958      2062.657       60140.84       39.179284      39.179284      39.179284      1.2169128      16249.52       13597.527      14440.878    
    163000   81500          577.38617      16750.222      31030.1        16324.117      12080.25       4243.867       4370.7681      7930.3904     -7788.1657     -96.470815     -2241.9091      2069.254       60200.155      39.19216       39.19216       39.19216       1.2157138      17320.848      15471.874      17457.943    
    164000   82000          575.86756      15095.512      29440.281      16227.025      12048.477      4178.5483      4345.3921      7844.6734     -7695.2839     -100.72707     -2181.8403      1966.334       60018.632      39.152728      39.152728      39.152728      1.2193907      15172.881      13804.738      16308.917    
    165000   82500          577.98948      16892.021      31036.815      16214.688      12092.873      4121.8154      4323.1982      7898.3307     -7783.0171     -91.584278     -2179.1546      1954.0426      60166.263      39.184804      39.184804      39.184804      1.2163986      16718.741      15910.331      18046.99     
    166000   83000          588.60146      15451.799      29896.937      16378.056      12314.9        4063.1562      4263.3925      8024.9244     -7705.6877     -100.39504     -2161.5331      1742.4551      59990.957      39.146709      39.146709      39.146709      1.2199532      16600.334      13020.026      16735.039    
    167000   83500          582.57463      14908.247      29552.004      16526.233      12188.805      4337.4281      4270.2973      8037.2245     -7688.9433     -89.834107     -2211.8382      2020.5218      59910.231      39.129143      39.129143      39.129143      1.221597       15808.959      14216.473      14699.308    
    168000   84000          582.58647      18372.692      32707.62       16673.514      12189.052      4484.4614      4207.3944      8302.6664     -7755.1356     -105.15577     -2130.9613      1965.6533      59840.619      39.113981      39.113981      39.113981      1.2230181      19127.189      18067.739      17923.147    
    169000   84500          581.79312      18478.885      33012.653      16871.428      12172.454      4698.9746      4436.1712      8241.6572     -7722.4756     -98.602237     -2194.4776      2036.7016      59894.209      39.125654      39.125654      39.125654      1.2219238      16894.472      20326.791      18215.391    
    170000   85000          584.23977      14778.552      29788.44       16867.329      12223.643      4643.6862      4386.0644      8096.8909     -7699.2101     -100.89603     -2211.6655      2172.5025      59950.4        39.137886      39.137886      39.137886      1.2207785      14576.902      14446.265      15312.489    
    171000   85500          581.88624      15040.568      29618.288      16477.522      12174.402      4303.1198      4289.3942      7790.1076     -7690.0413     -91.318873     -2178.5241      2183.5022      59907.413      39.128529      39.128529      39.128529      1.2216545      18045.285      12391.329      14685.09     
    172000   86000          572.15049      16918.676      31305.843      16573.781      11970.707      4603.0732      4357.1503      7958.5408     -7766.5971     -97.753651     -2143.3899      2295.1228      59706.456      39.084728      39.084728      39.084728      1.2257663      16592.977      17009.817      17153.233    
    173000   86500          579.50288      17448.981      31993.142      16737.617      12124.537      4613.0805      4358.7732      7990.6464     -7634.7239     -96.151381     -2253.7338      2248.27        59948.9        39.137559      39.137559      39.137559      1.220809       17873.695      16434.687      18038.56     
    174000   87000          574.52823      15627.479      30068.01       16446.721      12020.455      4426.2652      4374.2352      8046.1024     -7754.8443     -86.544473     -2151.1605      1998.4769      59765.89       39.097693      39.097693      39.097693      1.2245473      14363.266      15483.225      17035.947    
    175000   87500          571.96938      17904.783      31968.285      16312.767      11966.918      4345.8487      4248.324       8049.8299     -7803.4831     -100.45616     -2112.7474      2064.3814      59954.599      39.138799      39.138799      39.138799      1.220693       15908.343      16956.466      20849.539    
    176000   88000          579.41322      17235.125      31571.464      16608.729      12122.661      4486.0685      4356.0438      8167.9688     -7836.5788     -98.151788     -2148.4197      2045.2062      59527.913      39.04573       39.04573       39.04573       1.2294427      19262.765      15388.592      17054.017    
    177000   88500          586.63274      16435.537      31283.662      16963.536      12273.71       4689.8265      4297.4085      8136.9916     -7662.2139     -97.948547     -2239.5171      2255.106       59743.005      39.092702      39.092702      39.092702      1.2250164      16225.271      17371.165      15710.175    
    178000   89000          580.0663       17855.293      32290.549      16774.231      12136.324      4637.9062      4414.7421      8041.6328     -7721.3948     -96.75194      -2179.2619      2178.9398      59586.216      39.058474      39.058474      39.058474      1.2282398      15989.698      17303.747      20272.434    
    179000   89500          579.163        17697.821      31938.173      16573.713      12117.425      4456.2877      4383.6158      7961.6438     -7708.1906     -95.712909     -2222.1754      2137.1071      59528.043      39.045759      39.045759      39.045759      1.22944        19663.735      16666.456      16763.272    
    180000   90000          587.39107      18520.025      32665.121      16583.218      12289.576      4293.6421      4223.7173      8155.2208     -7822.4349     -99.743292     -2280.0033      2116.8855      59541.531      39.048708      39.048708      39.048708      1.2291615      17955.061      18105.694      19499.32     
    181000   90500          582.05469      16504.559      30988.592      16669.35       12177.926      4491.4233      4247.0872      7993.4504     -7752.2552     -96.497074     -2240.1342      2339.7722      59489.488      39.037327      39.037327      39.037327      1.2302368      17055.199      16029.011      16429.468    
    182000   91000          584.18353      18853.671      32766.372      16440.26       12222.466      4217.7933      4261.9947      7751.8438     -7709.3549     -89.870759     -2198.8373      2202.0178      59376.003      39.012488      39.012488      39.012488      1.2325882      21313.202      17785.961      17461.849    
    183000   91500          572.65111      18462.662      32526.437      16514.09       11981.182      4532.9086      4343.2051      8243.0853     -7836.0008     -94.993294     -2175.0616      2052.6739      59468.198      39.03267       39.03267       39.03267       1.2306773      20570.611      16411.47       18405.905    
    184000   92000          582.97295      17748.329      31885.101      16519.4        12197.138      4322.2623      4296.3402      8192.3521     -7747.5034     -98.556188     -2192.0474      1871.6769      59363.433      39.009735      39.009735      39.009735      1.2328492      20093.383      13756.168      19395.437    
    185000   92500          581.15397      18816.835      32982.281      16781.938      12159.081      4622.8568      4286.7242      8092.4019     -7670.3957     -94.382768     -2176.8516      2185.3607      59033.937      38.937427      38.937427      38.937427      1.2397303      20019.572      17315.484      19115.45     
    186000   93000          580.53743      17899.359      32150.28       16646.745      12146.182      4500.5632      4297.2994      8045.8311     -7740.2711     -99.617472     -2131.9783      2129.2996      59390.553      39.015675      39.015675      39.015675      1.2322862      17234.828      17517.917      18945.331    
    187000   93500          581.2646       18516.789      32773.877      16858.483      12161.396      4697.087       4317.9055      7966.3967     -7692.5891     -89.587355     -2178.5657      2373.5269      58935.344      38.915738      38.915738      38.915738      1.2418042      18243.23       20016.609      17290.53     
    188000   94000          575.69095      16487.876      30901.134      16663.14       12044.782      4618.3582      4374.2285      7935.9972     -7739.0172     -95.734088     -2296.1342      2439.018       59211.789      38.97649       38.97649       38.97649       1.2360066      16575.998      16110.05       16777.579    
    189000   94500          587.86932      17618.647      31573.201      16398.82       12299.582      4099.2379      4210.8921      7881.4748     -7652.313      -96.379721     -2305.0518      2060.6155      59055.8        38.942233      38.942233      38.942233      1.2392713      18493.424      15515.264      18847.254    
    190000   95000          583.3735       18314.193      32526.889      16808.82       12205.519      4603.3011      4318.46        7953.814      -7695.4586     -96.419035     -2142.7462      2265.651       58848.519      38.896618      38.896618      38.896618      1.2436364      18356.88       16981.468      19604.229    
    191000   95500          581.7603       18733.854      32844.537      16771.07       12171.767      4599.3032      4275.8074      8158.4319     -7677.1488     -97.284258     -2125.6932      2065.1901      58831.041      38.892767      38.892767      38.892767      1.2440058      17302.928      19782.011      19116.624    
    192000   96000          582.40713      19254.976      33417.071      16940.197      12185.3        4754.8967      4292.943       8026.9266     -7645.1073     -100.10609     -2067.8711      2248.1117      58675.388      38.858436      38.858436      38.858436      1.2473059      17231.08       19527.795      21006.051    
    193000   96500          579.494        16897.874      30938.556      16379.07       12124.351      4254.7195      4255.8086      7970.6342     -7760.2881     -90.682949     -2241.5341      2120.7818      59079.675      38.94748       38.94748       38.94748       1.2387705      17852.512      15279.601      17561.508    
    194000   97000          581.52824      19779.346      33493.171      16582.715      12166.912      4415.8032      4129.9143      7863.1185     -7665.4922     -97.071747     -2096.7461      2282.0805      58622.929      38.846853      38.846853      38.846853      1.2484221      19830.195      18440.804      21067.038    
    195000   97500          571.90538      21641.943      34780.934      16179.762      11965.579      4214.1826      4071.6259      7957.0134     -7652.7185     -91.658295     -2206.6138      2136.5339      58934.305      38.91551       38.91551       38.91551       1.2418261      20907.401      22049.949      21968.479    
    196000   98000          582.92509      19284.836      33524.904      16950.258      12196.137      4754.1213      4382.0073      7949.0546     -7762.1467     -87.639854     -2145.6153      2418.4613      58932.166      38.915039      38.915039      38.915039      1.2418712      17289.028      18739.6        21825.879    
    197000   98500          585.62497      20143.066      34073.806      16811.342      12252.625      4558.7176      4274.8704      8005.7241     -7677.4653     -97.854391     -2104.6786      2158.1213      58762.641      38.877689      38.877689      38.877689      1.2454539      20892.019      19143.986      20393.194    
    198000   99000          585.07195      17625.372      32085.615      16937.684      12241.054      4696.6294      4424.3063      7984.6419     -7649.2189     -96.259929     -2240.0834      2273.2433      58930.368      38.914643      38.914643      38.914643      1.2419091      16773.866      18601.975      17500.275    
    199000   99500          582.51107      19855.585      33792.989      16820.105      12187.475      4632.6298      4202.5201      7980.6461     -7783.9401     -96.899129     -2084.8795      2415.1822      58613.42       38.844752      38.844752      38.844752      1.2486246      20148.522      20112.21       19306.023    
    200000   100000         578.25992      20206.933      33985.265      16657.518      12098.531      4558.987       4159.5685      8293.4671     -7699.3158     -97.01956      -2263.3863      2165.673       58798.441      38.885582      38.885582      38.885582      1.2446956      21934.468      16808.102      21878.231    
[...]
    449000   224500         582.9792       43795.361      51474.096      17680.847      12197.269      5483.5776      4163.8695      7635.6428     -7668.9604     -89.120289     -819.08151      2261.2274      52908.562      37.541243      37.541243      37.541243      1.3832574      42627.667      45245.287      43513.127    
    450000   225000         568.87466      41152.184      49363.382      17592.3        11902.17       5690.1305      4215.1286      8098.5379     -7736.2279     -95.671812     -998.28329      2206.647       52937.475      37.548081      37.548081      37.548081      1.3825019      41875.816      41285.575      40295.161    
    451000   225500         577.23269      44468.005      52065.438      17826.329      12077.039      5749.2905      4172.4034      7942.9139     -7721.4135     -95.54949      -880.31793      2331.254       52795.744      37.514541      37.514541      37.514541      1.3862132      46477.852      44427.277      42498.885    
    452000   226000         576.5051       45572.625      52938.452      18002.434      12061.816      5940.6176      4118.9588      7958.5628     -7786.1897     -96.084452     -739.41514      2484.7853      52564.614      37.459717      37.459717      37.459717      1.3923085      42293.595      45588.979      48835.3      
    453000   226500         577.58673      46604.872      53874.745      18209.017      12084.446      6124.5707      4187.027       7969.8975     -7730.9304     -97.033412     -743.33593      2538.946       52473.966      37.438171      37.438171      37.438171      1.3947137      47771.683      46155.126      45887.807    
    454000   227000         580.09729      46499.573      53761.458      18117.517      12136.973      5980.5441      4213.4121      7871.4646     -7673.956      -97.457484     -734.73356      2401.8145      52560.666      37.458779      37.458779      37.458779      1.3924131      44807.175      47330.214      47361.329    
    455000   227500         586.52072      43848.964      51623.505      18007.072      12271.366      5735.7064      4222.0484      7868.9494     -7733.4212     -94.667191     -818.43865      2291.2356      52567.388      37.460376      37.460376      37.460376      1.392235       42706.116      42606.107      46234.67     
    456000   228000         575.24644      46416.787      53471.19       17917.93       12035.482      5882.4476      4230.7198      8064.9333     -7769.9762     -97.740202     -768.08099      2222.5919      52520.453      37.449224      37.449224      37.449224      1.3934792      45866.97       44940.443      48442.949    
    457000   228500         585.58822      44184.85       51935.103      18083.854      12251.856      5831.9984      4118.9332      7835.1234     -7745.4125     -86.832373     -823.64433      2533.831       52532.179      37.452011      37.452011      37.452011      1.3931682      42069.306      45119.429      45365.815    
    458000   229000         578.38047      44487.731      52078.971      17990.817      12101.053      5889.7638      4054.6242      7811.6462     -7707.3625     -94.455524     -742.07096      2567.3823      52539.671      37.453791      37.453791      37.453791      1.3929695      46953.425      43351.15       43158.617    
    459000   229500         573.56572      44860.829      52215.423      17698.58       12000.317      5698.2623      4243.9841      7906.1917     -7769.1992     -93.650724     -881.8355       2292.772       52757.947      37.505587      37.505587      37.505587      1.3872064      43992.469      44882.151      45707.868    
    460000   230000         582.08108      43247.908      51444.793      18164.085      12178.478      5985.6065      4277.7708      7849.8132     -7738.8534     -90.295683     -928.64341      2615.8149      52765.684      37.50742       37.50742       37.50742       1.387003       41352.764      44126.405      44264.555    
    461000   230500         588.04825      45384.164      52970.832      18269.023      12303.325      5965.6979      4332.0038      7858.0925     -7864.5877     -92.274377     -770.77514      2503.2388      52429.038      37.427484      37.427484      37.427484      1.3959089      44246.273      47240.598      44665.619    
    462000   231000         578.66042      49792.435      56107.083      18188.479      12106.91       6081.569       4181.5965      7848.2333     -7756.2803     -100.70189     -597.89264      2506.6139      52217.14       37.376993      37.376993      37.376993      1.4015735      48540.185      50061.915      50775.204    
    463000   231500         582.74449      45104.455      52580.779      18089.039      12192.358      5896.6808      4189.655       7946.1065     -7751.5188     -100.24186     -695.73086      2308.4108      52434.82       37.428859      37.428859      37.428859      1.395755       46284.858      47014.517      42013.989    
    464000   232000         592.00532      47312.951      54623.431      18464.956      12386.116      6078.8397      4176.5687      7945.3652     -7741.5705     -95.695916     -658.07769      2452.2499      52402.761      37.42123       37.42123       37.42123       1.3966088      45604.182      50454.674      45879.998    
    465000   232500         579.66919      43890.156      51947.559      18273.01       12128.016      6144.9942      4175.3659      8039.9598     -7739.7293     -100.95682     -759.64196      2529.9966      52608.845      37.470221      37.470221      37.470221      1.3911379      43148.523      46584.008      41937.939    
    466000   233000         581.88233      45479.806      53299.257      18537.187      12174.32       6362.8672      4184.3444      7971.5053     -7746.1372     -97.272844     -786.72206      2837.1497      52409.634      37.422866      37.422866      37.422866      1.3964257      42631.424      45765.918      48042.076    
    467000   233500         572.29905      46834.052      54006.875      18283.194      11973.816      6309.3782      4139.932       7897.2563     -7764.4911     -96.626311     -589.74638      2723.0537      52302.034      37.397238      37.397238      37.397238      1.3992985      45120.067      50178.638      45203.451    
    468000   234000         581.84903      46293.869      53418.235      18103.439      12173.623      5929.8159      4167.7658      7828.454      -7742.1684     -94.671174     -658.38903      2428.8246      52306.701      37.39835       37.39835       37.39835       1.3991737      45670.917      48475.838      44734.853    
    469000   234500         587.01696      48273.078      55407.319      18508.424      12281.748      6226.6758      4159.5847      7914.382      -7650.1973     -97.100438     -682.24874      2582.2556      52412.21       37.423479      37.423479      37.423479      1.3963571      46840.786      47661.042      50317.407    
    470000   235000         583.15973      45785.387      52710.389      17871.471      12201.046      5670.4248      3965.1423      7728.0787     -7688.0345     -95.388991     -620.76523      2381.3926      52174.93       37.366919      37.366919      37.366919      1.4027074      46674.613      44522.313      46159.235    
    471000   235500         579.35849      44356.428      52031.491      18119.072      12121.515      5997.5566      4185.9762      7939.1547     -7766.7056     -91.642472     -782.44979      2513.2235      52423.537      37.426175      37.426175      37.426175      1.3960554      44765.169      44759.749      43544.367    
    472000   236000         583.05243      46824.936      53864.566      18073.957      12198.801      5875.1562      4125.8328      7923.6516     -7704.5352     -98.478281     -760.37122      2389.0565      52410.223      37.423006      37.423006      37.423006      1.39641        44983.637      47050.038      48441.132    
    473000   236500         580.27519      47114.329      53903.99       17963.958      12140.695      5823.2628      4198.9165      7745.9762     -7719.9111     -95.499002     -727.7232       2421.5034      52305.766      37.398127      37.398127      37.398127      1.3991987      46586.698      49580.301      45175.988    
    474000   237000         574.76157      45229.02       52324.922      17923.98       12025.337      5898.6422      4145.3517      7874.1654     -7752.148      -93.797345     -692.82124      2417.8917      52152.758      37.361625      37.361625      37.361625      1.4033037      44236.657      43934.509      47515.895    
    475000   237500         582.57653      48641.037      55298.505      18355.944      12188.844      6167.0992      4156.2135      7926.6472     -7717.9246     -95.535406     -620.54336      2518.2418      52077.28       37.343593      37.343593      37.343593      1.4053376      47025.575      49217.102      49680.434    
    476000   238000         579.88871      50426.365      56651.901      18325.857      12132.609      6193.2483      4122.9902      7945.3477     -7845.7533     -88.169777     -550.67543      2609.509       52114.724      37.352541      37.352541      37.352541      1.4043279      49663.884      50991.357      50623.853    
    477000   238500         572.44381      46427.639      53372.288      17979.557      11976.844      6002.7131      4074.7936      7935.641      -7741.6604     -98.841707     -729.03427      2561.8149      52271.093      37.389862      37.389862      37.389862      1.4001268      46938.748      45440.548      46903.621    
    478000   239000         580.22238      47909.145      54519.883      17868.583      12139.59       5728.9928      4153.5817      7926.9532     -7719.1593     -93.788931     -796.40713      2257.8134      52455.988      37.433896      37.433896      37.433896      1.3951917      48380.878      49194.74       46151.818    
    479000   239500         575.82239      48150.004      54655.091      17899.534      12047.532      5852.0022      4240.6694      7902.8745     -7781.7765     -92.981226     -737.15192      2320.368       52342.057      37.406775      37.406775      37.406775      1.3982286      51010.04       49447.587      43992.384    
    480000   240000         572.75968      47658.401      54350.137      18098.148      11983.453      6114.6946      4080.622       7964.0582     -7677.1628     -92.23249      -716.36532      2555.775       52157.466      37.36275       37.36275       37.36275       1.403177       49504.604      47380          46090.6      
    481000   240500         571.37516      47768.308      54340.125      18145.372      11954.486      6190.8858      4124.6585      8034.3356     -7790.0244     -92.005153     -576.34647      2490.2677      51955.301      37.314414      37.314414      37.314414      1.408637       48128.845      46482.516      48693.564    
    482000   241000         585.65685      48576.73       55200.728      18280.923      12253.292      6027.6312      4279.9301      7823.9609     -7721.8319     -94.355631     -637.17591      2377.1037      52114.099      37.352391      37.352391      37.352391      1.4043447      52247.934      47770.365      45711.892    
    483000   241500         589.66252      50642.723      56522.816      17982.368      12337.099      5645.2683      4152.096       7885.2216     -7761.3604     -93.964815     -712.81058      2176.0865      52182.372      37.368696      37.368696      37.368696      1.4025073      51338.826      51030.812      49558.532    
    484000   242000         577.36887      49283.831      55678.087      18198.983      12079.888      6119.0947      4250.5269      7830.3227     -7724.882      -92.142        -612.67921      2467.9483      52144.542      37.359663      37.359663      37.359663      1.4035248      50026.781      48751.447      49073.263    
    485000   242500         577.41935      50136.866      56272.993      18240.907      12080.944      6159.9626      4114.474       7837.0751     -7772.7919     -90.626993     -633.88027      2705.7126      52013.619      37.32837       37.32837       37.32837       1.4070576      49622.864      51133.656      49654.079    
    486000   243000         577.70721      47358.397      54206.905      18277.543      12086.967      6190.5756      4169.5761      7941.9321     -7784.4874     -96.428753     -499.95369      2459.9372      52020.752      37.330076      37.330076      37.330076      1.4068647      47255.23       48432.816      46387.146    
    487000   243500         581.65211      50630.809      56907.144      18394.347      12169.503      6224.8441      4258.6089      7912.9911     -7815.6531     -97.904596     -585.41555      2552.2173      52157.203      37.362687      37.362687      37.362687      1.4031841      51613.745      49850.98       50427.703    
    488000   244000         580.32733      50667.044      56957.867      18354.702      12141.786      6212.9161      4349.9021      7965.6251     -7778.6005     -98.418878     -660.64265      2435.051       52242.2        37.382971      37.382971      37.382971      1.4009012      50278.627      52298.416      49424.088    
    489000   244500         588.53124      48610.724      55522.17       18453.712      12313.431      6140.2813      4156.4469      7973.3565     -7787.5446     -93.444742     -774.26108      2665.7284      52287.339      37.393735      37.393735      37.393735      1.3996918      46578.339      52032.328      47221.504    
    490000   245000         577.55676      47984.807      54738.524      18224.646      12083.819      6140.8267      4140.0038      7883.8375     -7857.2225     -89.925709     -592.84838      2656.9821      52176.906      37.367391      37.367391      37.367391      1.4026543      49796.758      47819.149      46338.514    
    491000   245500         582.92466      48997.844      55628.046      18417.834      12196.128      6221.7058      4221.9053      7794.0182     -7833.6987     -89.955257     -588.65265      2718.0889      52072.603      37.342475      37.342475      37.342475      1.4054638      49121.73       49728.836      48142.967    
    492000   246000         588.67393      49215.387      55964.38       18507.398      12316.416      6190.982       4133.1159      7934.3251     -7778.111      -92.516818     -624.05816      2618.2271      52186.238      37.369618      37.369618      37.369618      1.4024034      48794.171      47634.23       51217.759    
    493000   246500         587.09254      48624.978      55278.015      18367.957      12283.33       6084.627       4111.2548      7831.1797     -7787.2687     -94.336558     -579.17117      2602.969       52048.645      37.336747      37.336747      37.336747      1.4061107      51666.554      48045.55       46162.829    
    494000   247000         583.29019      53348.762      58647.57       18223.336      12203.776      6019.5601      4074.2108      7751.7447     -7710.927      -92.538264     -422.05331      2419.1232      51956.701      37.314749      37.314749      37.314749      1.4085991      53947.443      53320.137      52778.706    
    495000   247500         586.33831      51354.756      57400.389      18423.602      12267.549      6156.0522      4077.0791      7955.4289     -7763.1377     -94.464817     -499.26167      2480.4085      52041.461      37.335029      37.335029      37.335029      1.4063049      50283.636      54920.363      48860.269    
    496000   248000         580.08564      50023.62       56670.022      18642.386      12136.729      6505.657       4179.0308      8018.3884     -7694.8104     -93.284101     -565.10338      2661.4356      52125.271      37.35506       37.35506       37.35506       1.4040437      50993.142      48556.987      50520.731    
    497000   248500         576.91166      49710.39       55949.116      18308.117      12070.322      6237.7953      4232.9364      7826.5117     -7669.5876     -96.778019     -529.48291      2474.1958      51920.405      37.306058      37.306058      37.306058      1.4095838      47666.32       50776.862      50687.988    
    498000   249000         577.30268      51062.112      57019.512      18509.225      12078.503      6430.7214      4157.9307      8013.9633     -7735.021      -94.210372     -484.61032      2572.6691      51713.282      37.256384      37.256384      37.256384      1.4152295      49056.207      52212.176      51917.953    
    499000   249500         572.71668      50900.872      56844.629      18393.859      11982.554      6411.3059      4275.2053      7965.2762     -7817.6777     -88.320999     -424.69236      2501.5154      51796.918      37.276458      37.276458      37.276458      1.4129443      50665.635      52390.267      49646.713    
    500000   250000         581.94855      48772.892      55360.26       18391.502      12175.706      6215.7964      4187.1068      8015.3453     -7864.2918     -103.12955     -477.31123      2458.0769      51973.321      37.318727      37.318727      37.318727      1.4081486      48608.596      49183.925      48526.155    
Loop time of 433.329 on 1 procs for 500000 steps with 7020 atoms

Performance: 49.847 ns/day, 0.481 hours/ns, 1153.857 timesteps/s, 8.100 Matom-step/s
99.9% CPU use with 1 MPI tasks x 1 OpenMP threads

MPI task timing breakdown:
Section |  min time  |  avg time  |  max time  |%varavg| %total
---------------------------------------------------------------
Pair    | 129.15     | 129.15     | 129.15     |   0.0 | 29.80
Bond    | 111.62     | 111.62     | 111.62     |   0.0 | 25.76
Neigh   | 63.753     | 63.753     | 63.753     |   0.0 | 14.71
Comm    | 12.797     | 12.797     | 12.797     |   0.0 |  2.95
Output  | 2.936      | 2.936      | 2.936      |   0.0 |  0.68
Modify  | 96.315     | 96.315     | 96.315     |   0.0 | 22.23
Other   |            | 16.75      |            |       |  3.87

Nlocal:           7020 ave        7020 max        7020 min
Histogram: 1 0 0 0 0 0 0 0 0 0
Nghost:          22688 ave       22688 max       22688 min
Histogram: 1 0 0 0 0 0 0 0 0 0
Neighs:              0 ave           0 max           0 min
Histogram: 1 0 0 0 0 0 0 0 0 0
FullNghs:  5.99009e+06 ave 5.99009e+06 max 5.99009e+06 min
Histogram: 1 0 0 0 0 0 0 0 0 0

Total # of neighbors = 5990090
Ave neighs/atom = 853.28917
Ave special neighs/atom = 5.7008547
Neighbor list builds = 12188
Dangerous builds = 0

unfix npt_comp

undump dump_comp

write_dump all custom npt_compress_last.dump id type mol x y z xu yu zu vx vy vz modify sort id
write_data /home/alexzhao/PolyJarvis/data/PEG2/lammps/equil/npt_compress/npt_compress_out.data
System init for write_data ...
Generated 10 of 10 mixed pair_coeff terms from sixthpower/sixthpower mixing rule

print "STAGE COMPLETE: NPT compression P=1.0->50000.0atm density target reached"
STAGE COMPLETE: NPT compression P=1.0->50000.0atm density target reached
quit
3     | 63.753     | 63.753     |   0.0 | 14.71
Comm    | 12.797     | 12.797     | 12.797     |   0.0 |  2.95
Output  | 2.936      | 2.936      | 2.936      |   0.0 |  0.68
Modify  | 96.315     | 96.315     | 96.315     |   0.0 | 22.23
Other   |            | 16.75      |            |       |  3.87

Nlocal:           7020 ave        7020 max        7020 min
Histogram: 1 0 0 0 0 0 0 0 0 0
Nghost:          22688 ave       22688 max       22688 min
Histogram: 1 0 0 0 0 0 0 0 0 0
Neighs:              0 ave           0 max           0 min
Histogram: 1 0 0 0 0 0 0 0 0 0
FullNghs:  5.99009e+06 ave 5.99009e+06 max 5.99009e+06 min
Histogram: 1 0 0 0 0 0 0 0 0 0

Total # of neighbors = 5990090
Ave neighs/atom = 853.28917
Ave special neighs/atom = 5.7008547
Neighbor list builds = 12188
Dangerous builds = 0
System init for write_data ...
Generated 10 of 10 mixed pair_coeff terms from sixthpower/sixthpower mixing rule
STAGE COMPLETE: NPT compression P=1.0->50000.0atm density target reached
