LAMMPS data file via write_data, version 22 Jul 2025, timestep = 1000000, units = real

8720 atoms
7 atom types
9480 bonds
7 bond types
15104 angles
9 angle types
22512 dihedrals
13 dihedral types
4864 impropers
5 improper types

4.0683329401341375 52.98719560987202 xlo xhi
4.0683329401341375 52.98719560987202 ylo yhi
4.0683329401341375 52.98719560987202 zlo zhi

Masses

1 12.01115
2 12.01115
3 1.00797
4 1.00797
5 15.9994
6 15.9994
7 15.9994

Pair Coeffs # lj/class2/coul/long/kk

1 0.12 3.308
2 0.064 4.01
3 0.02 2.995
4 0.013 1.098
5 0.267 3.3
6 0.24 3.535
7 0.24 3.535

Bond Coeffs # class2/kk

1 1.489 339.357 -655.724 670.236
2 1.216 823.795 -1878.79 2303.53
3 1.417 470.836 -627.618 1327.63
4 1.0982 372.825 -803.453 894.317
5 1.3768 428.88 -738.235 1114.97
6 1.3768 428.88 -738.235 1114.97
7 0.965 532.506 -1282.9 2004.77

Angle Coeffs # class2/kk

1 108.4 43.9594 -8.3924 -9.3379
2 110.588 34.6214 -7.0939 -7.4032
3 119.3 65.1016 -17.9766 0
4 118.9 61.0226 -34.9931 0
5 117.94 35.1558 -12.4682 0
6 123.42 73.6781 -21.6787 0
7 123.42 73.6781 -21.6787 0
8 109.5 60 0 0
9 108.19 53.125 -8.5016 0

BondBond Coeffs

1 0 1.489 1.417
2 0 1.489 1.489
3 0 1.489 1.216
4 68.2856 1.417 1.417
5 1.0795 1.417 1.0982
6 48.4754 1.417 1.3768
7 48.4754 1.417 1.3768
8 0 1.3768 1.3768
9 20.6577 1.3768 0.965

BondAngle Coeffs

1 0 0 1.489 1.417
2 0 0 1.489 1.489
3 0 0 1.489 1.216
4 28.8708 28.8708 1.417 1.417
5 20.0033 24.2183 1.417 1.0982
6 58.479 107.681 1.417 1.3768
7 58.479 107.681 1.417 1.3768
8 0 0 1.3768 1.3768
9 53.8614 23.9224 1.3768 0.965

Dihedral Coeffs # class2/kk

1 0 0 4.6282 0 0 0
2 0 0 2.167 0 0 0
3 0 0 2.5 0 0 0
4 0 0 0.9063 0 0 0
5 8.3667 0 1.1932 0 0 0
6 0 0 3.9661 0 0 0
7 0 0 4.8498 0 0 0
8 0 0 4.8498 0 0 0
9 0 0 1.8 0 0 0
10 -0.69 0 0.5097 0 0.0095 0
11 0 0 1.8769 0 0 0
12 0 0 1.7234 0 0 0
13 0 0 1.7234 0 0 0

AngleAngleTorsion Coeffs

1 0 108.4 118.9
2 0 108.4 117.94
3 0 110.588 108.4
4 0 108.4 119.3
5 0 118.9 118.9
6 -4.8141 118.9 117.94
7 -21.0247 118.9 123.42
8 -21.0247 118.9 123.42
9 0 123.42 109.5
10 -4.6072 123.42 108.19
11 0.3598 117.94 117.94
12 4.2296 117.94 123.42
13 4.2296 117.94 123.42

EndBondTorsion Coeffs

1 0 0 0 0 0 0 1.489 1.417
2 0 0 0 0 0 0 1.489 1.0982
3 0 0 0 0 0 0 1.489 1.417
4 0 0 0 0 0 0 1.417 1.216
5 -0.1185 6.3204 0 -0.1185 6.3204 0 1.417 1.417
6 0 -6.8958 0 0 -0.4669 0 1.417 1.0982
7 0 0.2655 0 0 4.8905 0 1.417 1.3768
8 0 0.2655 0 0 4.8905 0 1.417 1.3768
9 0 0 0 0 0 0 1.417 1.3768
10 0.9 -1.3456 1.19 3.4132 0.5873 -0.1323 1.417 0.965
11 0 -0.689 0 0 -0.689 0 1.0982 1.0982
12 0 -1.5867 0 0 4.2641 0 1.0982 1.3768
13 0 -1.5867 0 0 4.2641 0 1.0982 1.3768

MiddleBondTorsion Coeffs

1 0 0 0 1.417
2 0 0 0 1.417
3 0 0 0 1.489
4 0 0 0 1.489
5 27.5989 -2.312 0 1.417
6 0 -1.1521 0 1.417
7 0 4.8255 0 1.417
8 0 4.8255 0 1.417
9 0 0 0 1.3768
10 1.158 3.2697 3.5132 1.3768
11 0 4.8228 0 1.417
12 0 5.5432 0 1.417
13 0 5.5432 0 1.417

BondBond13 Coeffs

1 0 1.489 1.417
2 0 1.489 1.0982
3 0 1.489 1.417
4 0 1.417 1.216
5 53 1.417 1.417
6 -6.2741 1.417 1.0982
7 -2.2436 1.417 1.3768
8 -2.2436 1.417 1.3768
9 0 1.417 1.3768
10 1.159 1.417 0.965
11 -1.7077 1.0982 1.0982
12 2.0517 1.0982 1.3768
13 2.0517 1.0982 1.3768

AngleTorsion Coeffs

1 0 0 0 0 0 0 108.4 118.9
2 0 0 0 0 0 0 108.4 117.94
3 0 0 0 0 0 0 110.588 108.4
4 0 0 0 0 0 0 108.4 119.3
5 1.9767 1.0239 0 1.9767 1.0239 0 118.9 118.9
6 0 2.5014 0 0 2.7147 0 118.9 117.94
7 0 10.0155 0 0 1.7404 0 118.9 123.42
8 0 10.0155 0 0 1.7404 0 118.9 123.42
9 0 0 0 0 0 0 123.42 109.5
10 -5.136 -1.0122 0 4.6852 0.023 -0.598 123.42 108.19
11 0 2.4501 0 0 2.4501 0 117.94 117.94
12 0 1.8729 0 0 2.5706 0 117.94 123.42
13 0 1.8729 0 0 2.5706 0 117.94 123.42

Improper Coeffs # class2/kk

1 38.7949 0
2 0 0
3 4.8912 0
4 13.0421 0
5 13.0421 0

AngleAngle Coeffs

1 0 0 0 110.588 119.3 119.3
2 0 0 0 108.4 108.4 118.9
3 0 0 0 118.9 117.94 117.94
4 0 0 0 118.9 123.42 123.42
5 0 0 0 118.9 123.42 123.42

Atoms # full/kk

3941 4 2 -0.1268 9.3696630957891 5.007174346867862 5.02161428591501 1 0 0
1741 2 2 -0.1268 6.964053208620704 9.115840093917388 10.02211166768596 1 0 1
1769 2 2 -0.1268 8.430130718307954 9.222505427689196 7.862280024831567 1 0 1
1724 2 2 0.0265 5.8095334714268425 8.106806364810552 6.059154572889635 1 0 1
1722 2 2 -0.1268 5.061694736642967 7.277490644294366 5.084268239580332 1 0 1
1743 2 2 0.0265 8.19701160755828 9.845342704826919 10.031211070439436 1 0 1
1723 2 3 0.1268 5.545021399136448 6.282689816039726 4.79240522638805 1 0 1
1726 2 3 0.1268 5.712247887106665 10.054280285406282 6.881368956645279 1 0 1
1738 2 2 0.0265 7.281434869713854 8.466469805814206 7.759752431681554 1 0 1
1767 2 2 -0.1268 8.843730965537805 10.058074095929303 8.831314096517243 1 0 1
1770 2 3 0.1268 8.954498758720618 9.116047108864606 6.895962223148234 1 0 1
3951 4 6 -0.053 7.348681094724343 4.68893785878901 8.102306598990259 1 0 0
1737 2 6 -0.053 6.98021528621284 7.782847119181239 6.620559022805575 1 0 1
3952 4 2 0.0265 8.39300473947024 4.543812588244104 8.94482604075281 1 0 0
1725 2 2 -0.1268 5.202378468359176 9.331160535555025 6.216461408220925 1 0 1
3984 4 3 0.1268 7.909143619827206 6.465337929050069 9.54942961587907 1 0 0
3983 4 2 -0.1268 8.542005723566678 5.647182486391989 9.788307121390055 1 0 0
1739 2 2 -0.1268 6.426058349074213 8.550633485511927 8.854229184977696 1 0 1
1740 2 3 0.1268 5.473811083826552 8.037590498070568 8.98201312770688 1 0 1
3938 4 2 0.0265 7.822778200293518 4.438308208478577 6.82442068731666 1 0 0
3939 4 2 -0.1268 8.743827007642722 5.271813714028391 6.220758320870417 1 0 0
3940 4 3 0.1268 8.73622312436476 6.337987613542902 6.678819724937788 1 0 0
8076 8 3 0.1268 14.884143900399962 6.059083760472551 4.753104357585061 0 1 0
8075 8 2 -0.1268 15.377790560371038 5.056059661985053 4.60948685605356 0 1 0
3942 4 3 0.1268 10.20775050259126 5.5505699374275945 4.772591572126625 1 0 0
8065 8 2 -0.1268 14.67541322288801 9.985575163443478 7.518203166293349 0 1 0
8052 8 2 0 13.983400398757814 9.92863014378629 8.765082963084355 0 1 0
8064 8 3 0.1268 10.951846567747126 7.150099823945247 8.07674383487708 0 1 0
8054 8 5 -0.3964 12.313997357722679 8.749196874374894 10.116373309672406 0 1 0
8053 8 1 0.3964 13.014335406498173 8.690913244540019 9.167814946787551 0 1 0
7560 7 3 0.1268 13.725356719862821 8.23933714541983 4.61484226444545 1 1 1
8055 8 2 0 13.216495371019679 7.325456869045508 8.394645316112758 0 1 0
7559 7 2 -0.1268 14.162064492872249 9.220916056103697 4.411516639195138 1 1 1
8063 8 2 -0.1268 12.099251198264168 6.847523077547164 7.7197631387603804 0 1 0
8062 8 3 0.1268 11.390646642037435 4.905263655597798 6.823885029658647 0 1 0
8061 8 2 -0.1268 12.320658242973588 5.656656014853509 6.943410348935245 0 1 0
8056 8 2 -0.1268 14.549580785502904 6.997275006330732 8.085904899569119 0 1 0
8060 8 2 0.0265 13.623209972906407 5.155959322600703 6.884934382600241 0 1 0
8066 8 3 0.1268 14.48581938727877 9.214381310915272 6.765103072651105 0 1 0
8058 8 2 -0.1268 14.752384354114575 5.8441438405054456 7.396849328881408 0 1 0
3961 4 3 0.1268 12.559110023221832 4.2591321796931085 9.150543112192086 1 0 0
8059 8 3 0.1268 15.829866045543499 5.588971714499976 7.250112007308146 0 1 0
8057 8 3 0.1268 15.511718387656206 7.371231945746347 8.538131784990238 0 1 0
3262 3 3 0.1268 17.822586050169562 8.812571477468035 10.08924941349 2 0 -1
7552 7 3 0.1268 21.478991550350443 7.339746217811625 4.247207507557379 1 1 1
7556 7 3 0.1268 17.905687972918827 8.886230931897902 4.275097031114697 1 1 1
3257 3 2 -0.1268 18.657218517188827 5.494968036462577 8.59768618339523 2 0 -1
3258 3 3 0.1268 17.787052347991185 4.809992107675448 8.708640076570399 2 0 -1
3259 3 2 -0.1268 19.21784911341795 6.4088831855086505 9.509651779941604 2 0 -1
3249 3 1 0.3964 20.470166200694443 8.566433271882381 10.047817771218329 2 0 -1
3252 3 2 -0.1268 20.27463420576705 7.51671145416114 7.793347360053257 2 0 -1
3250 3 5 -0.3964 21.589995738979148 9.023615328387605 9.860986247566755 2 0 -1
3256 3 2 -0.1268 18.911393680257103 5.577377196744271 7.1656219157016 2 0 -1
3251 3 2 0 19.99926770496942 7.508103190335315 9.11666144151914 2 0 -1
3253 3 3 0.1268 20.86167663108015 8.309393034921577 7.373145576249541 2 0 -1
3255 3 3 0.1268 20.046838321892707 6.883361059077332 5.7705375608180605 2 0 -1
7554 7 3 0.1268 20.15204393130144 8.557002940592149 4.3481013233093995 1 1 1
3254 3 2 -0.1268 19.875751031880583 6.564621880524359 6.911668900333604 2 0 -1
3270 3 3 0.1268 18.656500933048612 4.789885671451776 6.419594387732118 2 0 -1
7550 7 3 0.1268 22.38266031641764 5.818566521658245 5.714205385069873 1 1 1
7544 7 2 -0.1268 24.376386581563285 8.877507980737166 4.260719400525063 1 1 1
7543 7 2 0 22.997177904929995 8.842408913394282 4.129912303086719 1 1 1
1650 2 5 -0.3964 26.209545595585436 4.760517407598015 4.260591356666599 0 0 1
1649 2 1 0.3964 27.44978773547492 4.679378558727869 4.14443975430804 0 0 1
7551 7 2 -0.1268 22.455392545328884 7.534918381215279 4.480602614001042 1 1 1
7567 7 2 0.0265 22.742215438428534 4.178503238652793 9.11440217360749 1 1 1
7549 7 2 -0.1268 22.99580969257797 6.670582739311907 5.315398631729624 1 1 1
1651 2 2 0 28.395732888402932 6.066696509848253 4.353272178177834 0 0 1
4106 4 2 -0.1268 24.453577040006614 9.928241324929036 7.641715286350493 1 0 0
4107 4 3 0.1268 24.233549675287634 9.115828363722219 8.420771356019253 1 0 0
7591 7 2 -0.1268 23.451259790244407 5.328587863833292 9.420457292265462 1 1 1
4121 4 6 -0.053 26.74999976758379 9.710988377119595 8.190198325981106 1 0 0
7594 7 3 0.1268 24.663253137770784 6.966626194237616 8.614341753354598 1 1 1
7593 7 2 -0.1268 24.18723865923833 6.009558065008317 8.48014950192332 1 1 1
7548 7 2 0.0265 24.352342508577028 6.9300212887918935 5.682262987606939 1 1 1
7561 7 6 -0.053 25.140373321918247 6.013340999607435 6.429411118819169 1 1 1
7547 7 3 0.1268 26.086566396822885 8.25630452393148 5.2168780214426915 1 1 1
7546 7 2 -0.1268 25.01081938044351 8.142153424614293 5.104766326075301 1 1 1
7562 7 2 0.0265 24.415333613367338 5.294350752490977 7.355081754945793 1 1 1
3820 4 3 0.1268 30.61653055966856 7.361642297028974 9.532430409225011 1 0 0
6561 7 3 0.1268 34.238409877036176 9.40690727412666 6.5527880881697484 0 0 0
4123 4 2 -0.1268 28.913579009980683 9.90955549264822 9.362873996190192 1 0 0
1653 2 3 0.1268 29.755231088646276 5.145235679230608 5.923545889701371 0 0 1
1669 2 6 -0.053 30.313438052232144 9.691715377343957 5.189681896922508 0 0 1
1670 2 2 0.0265 31.599080870925686 9.796009453272028 4.5261128309254826 0 0 1
1656 2 2 0.0265 29.77997289415886 8.494575645428235 4.9274221761359485 0 0 1
4124 4 3 0.1268 29.360176062495036 8.924161118423644 8.966728566198102 1 0 0
1652 2 2 -0.1268 29.430043093983567 6.102567633737162 5.248557613172595 0 0 1
1654 2 2 -0.1268 30.147875332894127 7.28336848011463 5.4719831855307275 0 0 1
6568 7 3 0.1268 32.66215432501864 4.599998958343052 9.838323253130262 0 0 0
1655 2 3 0.1268 31.022396590049397 7.190818614536514 6.188648779854094 0 0 1
6559 7 3 0.1268 33.59900413656652 7.28005860306729 5.712920903021682 0 0 0
6556 7 5 -0.3964 34.12334104284896 4.569251511332036 5.768405446728936 0 0 0
6555 7 1 0.3964 33.832386334979546 4.913989848523344 6.918880820806836 0 0 0
6557 7 2 0 34.331584209771016 6.1989743618352655 7.429349376630888 0 0 0
6558 7 2 -0.1268 34.16560034442571 7.369539854013997 6.618291270982898 0 0 0
6560 7 2 -0.1268 34.513311745716535 8.530371981453548 7.101420378111206 0 0 0
1611 2 3 0.1268 38.677840332179485 5.131761508410983 9.355944032560204 0 0 1
6575 7 6 -0.053 36.07062896823001 9.859277986161466 8.465887659307743 0 0 0
6564 7 3 0.1268 36.31572553333773 7.426491542580463 9.897448408464541 0 0 0
6566 7 3 0.1268 35.67895793620167 5.360288277098916 8.921077115139001 0 0 0
6565 7 2 -0.1268 35.22553100267692 6.208479728494787 8.462240227294961 0 0 0
6563 7 2 -0.1268 35.67595685910527 7.424985474070285 8.897445237888675 0 0 0
6562 7 2 0.0265 35.42982491371069 8.617395683916541 8.196503913291071 0 0 0
1630 2 3 0.1268 37.65130597984516 5.390460781511952 5.211483794861271 0 0 1
1606 2 3 0.1268 39.821309894642795 9.296583636046229 6.846597405429209 0 0 1
1605 2 2 -0.1268 40.235511780963606 8.49304901697439 6.372661652557186 0 0 1
1629 2 2 -0.1268 37.89991371929621 4.760643450243764 6.064289444005453 0 0 1
1609 2 2 0.0265 38.41982313858776 5.464958319116788 7.18619226659845 0 0 1
1610 2 2 -0.1268 38.33790653717766 4.733385050909479 8.388929349985506 0 0 1
1608 2 6 -0.053 38.78613323757418 6.825202168004049 7.2046875932883845 0 0 1
1607 2 2 0.0265 39.932639523885854 7.183016756974599 6.582406317341582 0 0 1
1632 2 3 0.1268 40.66319811957375 5.162842240611894 6.148126710676761 0 0 1
1631 2 2 -0.1268 40.75635617292943 6.197301531862449 5.903590276133259 0 0 1
1975 2 6 -0.053 46.08456163664928 6.8163884322833 6.892096194811819 0 0 1
1964 2 3 0.1268 46.04841544851847 4.676815369826919 5.39101683396896 0 0 1
1977 2 2 -0.1268 46.75382058468254 9.080652954042716 6.081243284835737 0 0 1
1976 2 2 0.0265 45.902473291203535 8.291596755546887 6.698726269702761 0 0 1
175 1 2 -0.1268 42.018859256726174 7.906347817917654 10.033656412570313 -1 0 0
173 1 2 -0.1268 41.93605160125968 6.487897705863498 9.932151468624161 -1 0 0
1604 2 3 0.1268 41.55154604409546 9.85048264820054 5.3651726246310245 0 0 1
1603 2 2 -0.1268 41.24994101558069 8.87034863369537 5.494429283564507 0 0 1
176 1 3 0.1268 41.74747378502646 8.657578409501223 9.180941181207201 -1 0 0
174 1 3 0.1268 41.19252976991088 6.118662719547082 9.216536861401021 -1 0 0
157 1 3 0.1268 43.40198471294181 4.592726989062096 8.241509095778119 -1 0 0
1602 2 2 0.0265 41.97210835584137 7.940641956718947 4.745595957756636 0 0 1
1634 2 3 0.1268 42.39813084506268 5.758094499409094 4.815658565993893 0 0 1
1633 2 2 -0.1268 41.71770433201293 6.596876757864099 4.985516698738947 0 0 1
2005 2 2 -0.1268 44.473577720595046 10.144219329589358 7.084366145247172 0 0 1
2007 2 2 -0.1268 44.786321095178835 8.873374090705688 7.431638422896199 0 0 1
2008 2 3 0.1268 43.913129834156166 8.193148665374377 7.789153298765864 0 0 1
1962 2 2 0.0265 47.2343960226483 6.202241319587284 6.348198505936624 0 0 1
1963 2 2 -0.1268 47.10247452724313 5.0769585585458215 5.506349118959238 0 0 1
1727 2 2 -0.1268 52.914982394443015 9.614039851787783 5.688664357043856 0 0 1
1958 2 2 -0.1268 49.704954154952816 5.783801572192756 6.479184626612381 0 0 1
1719 2 2 0 52.19853425271222 8.686655507045952 4.9262848287160645 0 0 1
1961 2 3 0.1268 48.84135851688754 7.5376199475346155 7.54940217886744 0 0 1
1959 2 3 0.1268 50.62382109227751 5.803604981937923 7.095591847815374 0 0 1
1720 2 2 -0.1268 52.83221329516388 7.548967146892172 4.4763580815357065 0 0 1
1978 2 3 0.1268 47.65137508535685 8.680639546943468 5.428557469838143 0 0 1
1717 2 1 0.3964 50.7806287855539 9.120886399951019 4.2252843561577285 0 0 1
1955 2 1 0.3964 50.69123678510989 4.398359353664134 4.487996917488577 0 0 1
1957 2 2 0 49.6063972829553 5.015926784205845 5.240227012077235 0 0 1
1965 2 2 -0.1268 48.274943738261356 4.526544931875206 4.9654590472807305 0 0 1
1960 2 2 -0.1268 48.58478942804486 6.586565861924037 6.740770843974282 0 0 1
3916 4 3 0.1268 9.135432370910069 13.874438377884536 8.039320837163594 1 0 0
3915 4 2 -0.1268 10.00770896294598 14.643537952147168 8.283067645461571 1 0 0
7510 7 2 -0.1268 8.86779259349722 12.200237552736398 4.78100935475914 1 1 1
7511 7 3 0.1268 8.138961632102298 12.811895405760076 5.393105172149562 1 1 1
7512 7 2 -0.1268 10.180150213497537 11.922044868634366 5.308327945971694 1 1 1
1768 2 3 0.1268 9.848955749333614 10.483047516616857 8.606261274367416 1 0 1
7530 7 3 0.1268 13.38691102314156 12.549408231864739 4.40881556832919 1 1 1
3914 4 3 0.1268 10.41399107943114 14.593399694776163 6.248531416419663 1 0 0
7529 7 2 -0.1268 13.897469146303028 11.657488552502901 4.104447672117064 1 1 1
3884 4 2 0.0265 10.468362222560586 14.85338843773263 9.653636984645782 1 0 0
7514 7 2 0.0265 11.057625178693076 10.958972629700028 4.6670109207300605 1 1 1
3913 4 2 -0.1268 10.689492938391883 14.97572314588249 7.201695970803195 1 0 0
7528 7 2 0.0265 13.471849419807732 10.438264301166058 4.647490860957821 1 1 1
3892 4 2 -0.1268 13.275950978990824 15.22962492641596 4.298043240610293 1 0 0
3893 4 3 0.1268 14.038682993827768 14.576165924274953 4.904939380562772 1 0 0
3891 4 2 0.0265 12.266133604314762 15.92867159928673 5.0412956260708555 1 0 0
3889 4 2 0.0265 11.897281727145742 15.779366103939804 7.4119263835885185 1 0 0
8047 8 2 0.0265 15.770657867793831 11.994637861031645 8.152755419117295 0 1 0
3887 4 2 -0.1268 12.318522088140226 16.094218020270148 8.686000383034877 1 0 0
8050 8 2 -0.1268 14.358416614112615 10.860254799849624 9.712110964558024 0 1 0
8048 8 2 -0.1268 15.24163852175744 11.853431218688192 9.515088165015142 0 1 0
8067 8 2 -0.1268 15.419123217069675 11.079710099614495 7.123636196588044 0 1 0
3885 4 2 -0.1268 11.723746305379617 15.59175248004679 9.824683490357062 1 0 0
7513 7 3 0.1268 10.439810919362511 12.20274526221701 6.418616698103281 1 1 1
8068 8 3 0.1268 15.725588143500458 11.39926707115049 6.208022520955106 0 1 0
3911 4 2 -0.1268 10.993554296655425 16.22946220712924 4.371901111772644 1 0 0
7527 7 6 -0.053 12.2235149593988 10.557997273735186 5.385076917530778 1 1 1
8070 8 3 0.1268 16.409396012285306 15.753880101194358 7.691024274996056 0 1 0
8046 8 6 -0.053 16.415264882931005 13.137195291911327 7.676425014134507 0 1 0
8069 8 2 -0.1268 16.776168213787148 15.333800836309573 8.619483528856906 0 1 0
8045 8 2 0.0265 17.04758752753009 13.930495735917017 8.635864257871035 0 1 0
333 1 2 -0.1268 19.528941996544198 15.854794914032768 6.536263966523661 -1 0 0
4102 4 5 -0.3964 21.76727820788271 11.901905264053049 5.228544470791392 1 0 0
8043 8 2 -0.1268 18.021485330992576 13.415700481767383 9.535448700368535 0 1 0
334 1 3 0.1268 19.242375322211963 14.95755380633227 5.810374558771789 -1 0 0
8044 8 3 0.1268 18.46289815001142 12.333994080890871 9.49865286779017 0 1 0
325 1 3 0.1268 21.175376792112793 11.6842105877011 9.66986084906285 -1 0 0
322 1 5 -0.3964 20.35184507010603 13.016194965836883 7.4032053588057805 -1 0 0
321 1 1 0.3964 20.886172517476307 14.03428554952651 7.938745682213314 -1 0 0
324 1 2 -0.1268 21.86116769618813 12.561184574207937 9.802926495812564 -1 0 0
323 1 2 0 21.793553464104953 13.815354853248522 9.107050914661793 -1 0 0
320 1 2 0 20.2148717093105 15.511707656224102 7.775239831569328 -1 0 0
4096 4 2 -0.1268 21.666999308928755 15.927274508299217 4.448434462151449 1 0 0
8071 8 2 -0.1268 17.25322355991632 16.030400698685508 9.656966061762972 0 1 0
4098 4 2 -0.1268 21.91603168808165 14.579931919744228 4.42345057091064 1 0 0
4101 4 1 0.3964 22.746224789079132 12.539179631134129 5.5075520402086 1 0 0
4100 4 2 0 22.785440753380605 13.916925109657518 5.334775724286764 1 0 0
4105 4 3 0.1268 22.493481734944694 10.495801928592343 7.0803378859263635 1 0 0
4104 4 2 -0.1268 23.560625824084138 10.62770185427178 6.946630988557911 1 0 0
4113 4 2 -0.1268 23.638971396083704 14.71314265702383 6.07029822645434 1 0 0
4114 4 3 0.1268 24.441747163871252 14.413990309797926 6.711529586711542 1 0 0
4103 4 2 0 23.873049505505655 11.739191168100412 6.073360915555383 1 0 0
4122 4 2 0.0265 27.57064629412814 10.481705150121618 9.031361370608995 1 0 0
4153 4 2 -0.1268 27.20116289313981 11.615319848779567 9.92750571998147 1 0 0
4154 4 3 0.1268 26.18887048586272 12.201286402401708 9.81034454908108 1 0 0
331 1 2 -0.1268 22.747262859273977 14.862144979510965 9.439961245844115 -1 0 0
4115 4 2 -0.1268 23.651618981091026 16.11614684359149 6.000992294047531 1 0 0
332 1 3 0.1268 22.7154540722788 15.687685669336632 8.697783479345754 -1 0 0
4112 4 3 0.1268 25.655666665043857 12.691115710206617 5.0706691704786815 1 0 0
4111 4 2 -0.1268 25.184982373278604 11.93958714887075 5.675340306251767 1 0 0
4109 4 2 -0.1268 26.173032353108898 11.2935878040374 6.449585933785668 1 0 0
4110 4 3 0.1268 27.22165131771053 11.440474006848202 6.156901918837576 1 0 0
4108 4 2 0.0265 25.836163778016097 10.341663203186352 7.421577276258346 1 0 0
4150 4 3 0.1268 29.186445401801254 14.400607487075607 9.465523404346175 1 0 0
6586 7 2 -0.1268 31.697170594229803 15.603516882715768 4.473822333157664 0 0 0
6580 7 3 0.1268 32.541420093200486 12.880071808063954 7.548358070064803 0 0 0
6584 7 2 -0.1268 32.8644038994247 15.266435255813434 5.175295149288601 0 0 0
6579 7 2 -0.1268 33.55532390299887 12.724696679968705 7.5311036823868225 0 0 0
6585 7 3 0.1268 33.85361480395785 15.082552991028898 4.5418207228975795 0 0 0
6583 7 2 0.0265 32.88380154830105 15.386505554970402 6.557297031761074 0 0 0
6577 7 2 -0.1268 34.163466155218785 11.438815296244844 7.959093266489124 0 0 0
6581 7 2 0.0265 34.46752057226104 13.811898164639667 7.541352311825481 0 0 0
6582 7 6 -0.053 34.15190894878593 15.098876548037751 7.052180095081178 0 0 0
1701 2 2 -0.1268 32.09807020386028 11.151064953942663 4.353134269585337 0 0 1
1702 2 3 0.1268 31.638474468939133 12.085328532748624 4.697890408653774 0 0 1
6578 7 3 0.1268 33.44644877544039 10.532861315554463 8.028271663094095 0 0 0
6589 7 1 0.3964 29.096730362536448 15.825057379748737 4.723825572105861 0 0 0
6601 7 2 -0.1268 30.640331001716103 15.943101255564029 6.677129531429374 0 0 0
6588 7 2 0 30.50834704681682 15.958843558944537 5.244128800336899 0 0 0
6603 7 2 -0.1268 31.80737424013984 15.806128639137317 7.312848348318855 0 0 0
4125 4 2 -0.1268 29.847705387301886 10.619210206647569 10.002305538523103 1 0 0
6604 7 3 0.1268 32.14768069817854 15.93271548798168 8.484043504862044 0 0 0
4126 4 3 0.1268 30.914760851888786 10.482208749340113 9.93058198336967 1 0 0
1696 2 3 0.1268 36.902692864912694 12.655584555467914 5.693603526019526 0 0 1
198 1 3 0.1268 39.1803747960881 12.13195907554884 9.712735289570483 -1 0 0
187 1 2 0 39.42515527150577 15.268684624898858 10.14988170052407 -1 0 0
6606 7 3 0.1268 36.62857167825689 14.367291140894391 7.665747916386298 0 0 0
6605 7 2 -0.1268 35.86664408919839 13.611906453798456 7.830457116822914 0 0 0
1684 2 5 -0.3964 39.43948562308081 13.210612586328724 5.876658906905658 0 0 1
6607 7 2 -0.1268 36.34621792670916 12.3164598544024 8.175751129123691 0 0 0
6608 7 3 0.1268 37.44555998175808 12.377622358626079 7.902462412039929 0 0 0
197 1 2 -0.1268 40.34465185204306 12.163479354090986 10.007998434311896 -1 0 0
185 1 1 0.3964 40.64495971916321 14.704879009208119 9.455444958330979 -1 0 0
1698 2 3 0.1268 35.27644022176139 11.197617393796381 4.693116116776072 0 0 1
1695 2 2 -0.1268 37.12386508520312 12.442502984443623 4.684275483276243 0 0 1
1697 2 2 -0.1268 36.1158790528813 11.65972119252444 4.150289023734637 0 0 1
1683 2 1 0.3964 39.584937101824835 13.392656856248482 4.639356895374381 0 0 1
6576 7 2 0.0265 35.57452911661822 11.173551623356538 8.174637312090843 0 0 0
1979 2 2 -0.1268 46.64203866371092 10.434709488916958 6.040572474608368 0 0 1
1734 2 3 0.1268 46.75903483462382 15.359660081690409 4.597334750134251 0 0 1
186 1 5 -0.3964 41.42959178584829 15.424603204845136 8.83537096548319 -1 0 0
1983 2 2 0.0265 45.50788053859239 13.294972775797866 7.289596484875874 0 0 1
1988 2 2 0 46.18889276720998 15.375787604127554 9.14667117188732 0 0 1
1687 2 3 0.1268 42.21049322716462 13.351673056652498 5.018314212841423 0 0 1
1985 2 3 0.1268 44.40774617646392 14.945363475445367 6.329327938152366 0 0 1
1984 2 2 -0.1268 44.96104231457113 14.628973734473616 7.160478481838212 0 0 1
1986 2 2 -0.1268 45.405929410732725 15.600685686241551 8.024784223250212 0 0 1
181 1 3 0.1268 44.04767700655374 11.666097882883726 9.538416661768842 -1 0 0
1982 2 6 -0.053 45.26153653145178 12.327936250608584 6.380423676912557 0 0 1
2003 2 2 -0.1268 46.63967776159912 13.226326478256412 8.164605329466612 0 0 1
1981 2 2 0.0265 45.49415430103228 11.037706201393174 6.623418544849256 0 0 1
180 1 2 -0.1268 42.95875666192268 11.873140375869234 9.806557983260808 -1 0 0
183 1 3 0.1268 43.30284187945239 13.734474622311891 8.889091251125771 -1 0 0
184 1 2 0 41.09934827087886 13.266721556714407 9.574119357503507 -1 0 0
182 1 2 -0.1268 42.51651809347486 13.08851305634442 9.320513173031554 -1 0 0
1686 2 2 -0.1268 41.9410849988309 13.966243513141253 4.112000353313582 0 0 1
2006 2 3 0.1268 43.582778530637 10.655743628172974 7.339496368633402 0 0 1
5409 5 2 -0.1268 51.775851736723695 14.445594229623287 8.811039028921586 1 0 0
5407 5 2 -0.1268 51.1403828086857 15.576004822730829 8.25582849820176 1 0 0
2004 2 3 0.1268 47.31849274483531 12.448926189301192 8.059228602325218 0 0 1
2001 2 2 -0.1268 46.87364142301239 14.13609361454805 9.136259610386805 0 0 1
5394 5 2 0 50.13529449015526 15.543831988418228 7.343085964876516 1 0 0
1980 2 3 0.1268 47.20902261596086 11.001994186821006 5.365444270894354 0 0 1
5389 5 2 0.0265 51.32501244411897 13.169856645390961 8.429431931492106 1 0 0
1728 2 3 0.1268 52.49685734639334 10.667505887260887 6.019120252824183 0 0 1
2002 2 3 0.1268 47.47948965889648 14.165851625050074 10.014093022808275 0 0 1
5391 5 3 0.1268 49.73653250038154 12.104691538493642 7.359251077009582 1 0 0
5390 5 2 -0.1268 50.250008618885545 13.181846017053132 7.541982520519713 1 0 0
5392 5 2 -0.1268 49.72253049819305 14.283099268482546 6.912033821305113 1 0 0
5393 5 3 0.1268 49.076968334014424 14.078272879759078 6.110717903429729 1 0 0
5388 5 6 -0.053 51.835225893612005 12.041335300352303 9.000953599300475 1 0 0
1716 2 2 0 50.275718039181825 10.54401058318177 4.08291095512135 0 0 1
5412 5 3 0.1268 49.36699859378696 12.4594472366042 9.984000202277414 1 0 0
1730 2 3 0.1268 52.319149167805335 11.704700072540849 4.547995147182726 0 0 1
5410 5 3 0.1268 52.56962254361319 14.566746171002537 9.611646701149636 1 0 0
1729 2 2 -0.1268 51.29727766574641 11.592808318832304 4.111721980624056 0 0 1
5387 5 2 0.0265 51.260570286433506 11.473423670776452 10.139244665239898 1 0 0
2156 2 2 -0.1268 6.709137404813688 17.0990124090498 5.189098283727137 1 0 2
2157 2 3 0.1268 7.469118151666693 16.533090555614546 5.734428662452454 1 0 2
2158 2 2 0 5.9385501819448185 18.150884742223088 5.647260283185642 1 0 2
2172 2 3 0.1268 4.314597252079716 19.539364266844004 5.304563376644862 1 0 2
2159 2 1 0.3964 6.182183995420263 18.47498628049575 7.108513392999856 1 0 2
2160 2 5 -0.3964 5.267920112347171 18.994015195189696 7.725989091434872 1 0 2
2169 2 2 -0.1268 8.633898910455457 18.613562008308975 7.538983750388603 1 0 2
2162 2 2 -0.1268 7.162303757663199 17.988782982208406 9.298315050433457 1 0 2
2161 2 2 0 7.3864652453654 18.172000345778446 7.9144735009088985 1 0 2
2171 2 2 -0.1268 4.837580657648995 18.691990914985784 4.8990641775197465 1 0 2
2170 2 3 0.1268 9.108180202386436 18.58656729689328 6.590843195601275 1 0 2
4760 5 3 0.1268 7.063964561206441 22.219496155165647 6.956639023715851 1 1 1
4757 5 2 -0.1268 5.747249186484189 22.257962106514313 5.333675142472597 1 1 1
8582 8 3 0.1268 6.220141382815459 22.344704940163872 8.727119251434859 0 0 0
2167 2 2 -0.1268 9.664390181816945 18.773200789331153 8.502093861030287 1 0 2
2166 2 2 -0.1268 9.424091388522804 18.735250645503925 9.795721605553188 1 0 2
4750 5 5 -0.3964 9.993016234672666 22.30379805105538 6.533298632963938 1 1 1
2163 2 3 0.1268 6.153933213105434 17.738552331105524 9.869417306085918 1 0 2
4758 5 3 0.1268 4.932999777079145 21.845175228493346 5.964782995090462 1 1 1
2168 2 3 0.1268 10.788734093662772 19.0121056085348 8.280999428844058 1 0 2
3912 4 3 0.1268 10.29600532265259 16.75723541354735 4.945755123999227 1 0 0
6653 7 3 0.1268 14.059208097876056 18.14002876658232 5.1422709169715635 0 0 0
3890 4 6 -0.053 12.459656388558004 16.440135730708054 6.30606459864104 1 0 0
3888 4 3 0.1268 13.298966042136968 16.748002475191285 8.880712156478788 1 0 0
6652 7 2 -0.1268 14.79822208809348 18.885698517999323 5.177629039966407 0 0 0
6654 7 2 -0.1268 14.853796551852062 20.019797930697152 5.929872575489944 0 0 0
6655 7 3 0.1268 14.23916423982999 20.189945466749645 6.793252643655612 0 0 0
6656 7 2 0 15.902551957042007 21.022182544274006 5.806437374673898 0 0 0
6651 7 2 0.0265 15.908319824025783 18.63869289462003 4.235022353833323 0 0 0
6657 7 1 0.3964 15.689560431814028 22.285173747559465 6.441995740686142 0 0 0
8567 8 3 0.1268 15.79627151704824 19.6312170204956 9.888450113902591 0 0 0
6658 7 5 -0.3964 14.888494966858927 22.373226734532437 7.368096679590012 0 0 0
6669 7 2 -0.1268 16.87206679820895 20.834427915372736 4.855229255730434 0 0 0
6671 7 2 -0.1268 16.946386871391447 19.56650709843334 4.122814505888754 0 0 0
335 1 2 -0.1268 18.944651257167294 17.112813873786614 6.366101982817662 -1 0 0
315 1 2 0.0265 19.19028251338971 18.1346204335006 7.321218961942355 -1 0 0
314 1 6 -0.053 18.558684109823425 19.329041329483033 7.19672528829209 -1 0 0
336 1 3 0.1268 18.455988368459096 17.37225140144275 5.407397171607093 -1 0 0
313 1 2 0.0265 19.363793717273182 20.483825641770395 7.277649989034123 -1 0 0
311 1 2 -0.1268 18.69285604511701 21.768860566217356 7.566131978026516 -1 0 0
312 1 3 0.1268 17.58219552039935 21.74309776737779 7.799583848765772 -1 0 0
337 1 2 -0.1268 20.757884946489614 20.556632195643786 6.924830062556179 -1 0 0
316 1 2 -0.1268 20.025869058266768 17.8893043558377 8.432351686728818 -1 0 0
6670 7 3 0.1268 17.643988843947238 21.514425732885897 4.769415536315934 0 0 0
317 1 3 0.1268 19.959058407298436 18.50019927415135 9.374730614116244 -1 0 0
318 1 2 -0.1268 20.540314766235085 16.567209500615725 8.62134046489379 -1 0 0
338 1 3 0.1268 21.244425010238928 19.61092440762859 6.647200580032889 -1 0 0
319 1 3 0.1268 21.041324798100742 16.456073812672255 9.532237853800797 -1 0 0
4118 4 3 0.1268 20.591760450536064 19.40657031528255 4.662784245075382 1 0 0
339 1 2 -0.1268 21.327915936796327 21.8038780605606 7.0288656654524795 -1 0 0
8072 8 3 0.1268 17.116806808487198 17.138939998940923 9.696343750670144 0 1 0
7860 8 3 0.1268 24.637415843726558 21.61597603245087 4.979881545770982 0 0 0
7850 8 5 -0.3964 26.75788226970288 20.098087114323594 4.448942076435159 0 0 0
4094 4 6 -0.053 22.726987499028247 18.05836209105453 5.067798712225092 1 0 0
4116 4 3 0.1268 24.558057414830003 16.608175048748627 6.447484978914655 1 0 0
6590 7 5 -0.3964 28.158863112782637 16.55771407325144 5.0207151669042265 0 0 0
4141 4 3 0.1268 28.399277476781013 21.525304275306475 9.363890871396363 1 0 0