units real
atom_style full
boundary p p p

# --- Force Field Styles ---
pair_style lj/cut 14.0
dielectric 1.000000
bond_style harmonic
angle_style harmonic
dihedral_style multi/harmonic
improper_style none
special_bonds lj 0 0 0
pair_modify mix arithmetic tail yes
neighbor 2.0 bin
neigh_modify delay 0 every 1 check yes
neigh_modify one 4000
package gpu 1 neigh yes

read_data /home/arz2/PolyJarvis/data/cis-PBD2/lammps/equil/npt_production/npt_production_out.data
Reading data file ...
  orthogonal box = (4.7926216 4.7926216 4.7926216) to (63.385756 63.385756 63.385756)
  1 by 1 by 1 MPI processor grid
  reading atoms ...
  8040 atoms
  reading velocities ...
  8040 velocities
  scanning bonds ...
  2 = max bonds/atom
  scanning angles ...
  1 = max angles/atom
  scanning dihedrals ...
  2 = max dihedrals/atom
  orthogonal box = (4.7926216 4.7926216 4.7926216) to (63.385756 63.385756 63.385756)
  1 by 1 by 1 MPI processor grid
  reading bonds ...
  8020 bonds
  reading angles ...
  8000 angles
  reading dihedrals ...
  7980 dihedrals
Finding 1-2 1-3 1-4 neighbors ...
  special bond factors lj:    0        0        0       
  special bond factors coul:  0        0        0       
     2 = max # of 1-2 neighbors
     2 = max # of 1-3 neighbors
     4 = max # of 1-4 neighbors
     6 = max # of special neighbors
  special bonds CPU = 0.002 seconds
  read_data CPU = 0.105 seconds


# --- Thermo Output ---
thermo_style custom step time temp press enthalpy etotal ke pe ebond eangle edihed eimp evdwl ecoul elong etail vol lx ly lz density pxx pyy pzz
thermo_modify flush yes
thermo 100

# --- Trajectory ---
dump dump_npt all custom 1000 /home/arz2/PolyJarvis/data/cis-PBD2/lammps/mechanical/bm_series/bm_P300/bm_P300.dump id type mol x y z ix iy iz vx vy vz

# --- Restart Checkpointing ---
restart 10000 npt_1.rst npt_2.rst

# --- Initial Velocities (optional) ---
# Velocities read from data file

# --- SHAKE Constraints ---
# SHAKE disabled (TraPPE-UA united-atom)

# --- NPT Thermostat + Barostat (Nose-Hoover) ---
# T_damp = 100.0 fs  (heat bath coupling)
# P_damp = 1000.0 fs  (pressure bath coupling, ~10x T_damp typical)
# Ramp: T=300.0->300.0K  P=300.0->300.0atm
timestep 2.0
fix npt_fix all npt temp 300.0 300.0 100.0 iso 300.0 300.0 1000.0

run 500000

CITE-CITE-CITE-CITE-CITE-CITE-CITE-CITE-CITE-CITE-CITE-CITE-CITE

Your simulation uses code contributions which should be cited:

- GPU package (short-range, long-range and three-body potentials): doi:10.1016/j.cpc.2010.12.021, doi:10.1016/j.cpc.2011.10.012, doi:10.1016/j.cpc.2013.08.002, doi:10.1016/j.commatsci.2014.10.068, doi:10.1016/j.cpc.2016.10.020, doi:10.3233/APC200086

@Article{Brown11,
 author = {W. M. Brown and P. Wang and S. J. Plimpton and A. N. Tharrington},
 title = {Implementing Molecular Dynamics on Hybrid High Performance Computers---Short Range Forces},
 journal = {Comput.\ Phys.\ Commun.},
 year =    2011,
 volume =  182,
 pages =   {898--911},
 doi =     {10.1016/j.cpc.2010.12.021}
}

@Article{Brown12,
 author = {W. M. Brown and A. Kohlmeyer and S. J. Plimpton and A. N. Tharrington},
 title = {Implementing Molecular Dynamics on Hybrid High Performance Computers - Particle-Particle Particle-Mesh},
 journal = {Comput.\ Phys.\ Commun.},
 year =    2012,
 volume =  183,
 doi =     {10.1016/j.cpc.2011.10.012},
 pages =   {449--459}
}

@Article{Brown13,
 author = {W. M. Brown and Y. Masako},
 title = {Implementing Molecular Dynamics on Hybrid High Performance Computers---Three-Body Potentials},
 journal = {Comput.\ Phys.\ Commun.},
 year =    2013,
 volume =  184,
 pages =   {2785--2793},
 doi =     {10.1016/j.cpc.2013.08.002},
}

@Article{Trung15,
 author = {T. D. Nguyen and S. J. Plimpton},
 title = {Accelerating Dissipative Particle Dynamics Simulations for Soft Matter Systems},
 journal = {Comput.\ Mater.\ Sci.},
 year =    2015,
 doi =     {10.1016/j.commatsci.2014.10.068},
 volume =  100,
 pages =   {173--180}
}

@Article{Trung17,
 author = {T. D. Nguyen},
 title = {{GPU}-Accelerated {T}ersoff Potentials for Massively Parallel
    Molecular Dynamics Simulations},
 journal = {Comput.\ Phys.\ Commun.},
 year =    2017,
 doi =     {10.1016/j.cpc.2016.10.020},
 volume =  212,
 pages =   {113--122}
}

@inproceedings{Nikolskiy19,
 author = {V. Nikolskiy and V. Stegailov},
 title = {{GPU} Acceleration of Four-Site Water Models in {LAMMPS}},
 booktitle = {Proceedings of the International Conference on Parallel
    Computing (ParCo 2019), Prague, Czech Republic},
 doi =     {10.3233/APC200086},
 year =    2019
}

CITE-CITE-CITE-CITE-CITE-CITE-CITE-CITE-CITE-CITE-CITE-CITE-CITE

Generated 3 of 3 mixed pair_coeff terms from arithmetic mixing rule
Per MPI rank memory allocation (min/avg/max) = 15.71 | 15.71 | 15.71 Mbytes
   Step          Time           Temp          Press         Enthalpy        TotEng         KinEng         PotEng         E_bond        E_angle        E_dihed        E_impro         E_vdwl         E_coul         E_long         E_tail         Volume           Lx             Ly             Lz          Density          Pxx            Pyy            Pzz      
         0   0              299.0575       129.56684      12056.822      11676.711      7166.2348      4510.4767      2407.1781      2431.8046      8760.8771      0             -9089.3832      0              0             -288.94853      201159.33      58.593134      58.593134      58.593134      0.8979965      106.69678      217.05976      64.943975    
       100   200            299.27848      377.64365      12917.879      11816.538      7171.5299      4645.0082      2492.9342      2394.0873      8816.9353      0             -9058.9486      0              0             -290.66777      199969.52      58.477384      58.477384      58.477384      0.90333957     403.12161      445.57874      284.23062    
       200   400            302.51136      342.62151      12709.93       11715.718      7248.9987      4466.7195      2407.0059      2403.7915      8778.0164      0             -9122.0943      0              0             -292.12737      198970.38      58.379828      58.379828      58.379828      0.90787573     343.66978      458.25484      225.93993    
       300   600            302.34386      296.7838       12449.993      11590.287      7244.9848      4345.3025      2419.6675      2317.703       8790.2965      0             -9182.3646      0              0             -292.63536      198624.99      58.346028      58.346028      58.346028      0.90945445    -174.68742      471.3146       593.72422    
       400   800            300.32515      324.30273      12472.017      11533.856      7196.611       4337.2447      2402.7021      2361.1207      8784.9154      0             -9211.4935      0              0             -293.02849      198358.51      58.319923      58.319923      58.319923      0.91067622     61.170658      297.3364       614.40114    
       500   1000           303.04348      153.63997      12188.276      11744.424      7261.7498      4482.6742      2480.6205      2361.9736      8810.8556      0             -9170.7756      0              0             -293.42867      198087.99      58.293399      58.293399      58.293399      0.9119199      221.96483      161.0243       77.930774    
       600   1200           302.39067      76.590274      11751.682      11530.049      7246.1065      4283.9424      2361.6367      2385.9468      8785.2961      0             -9248.9372      0              0             -292.93814      198419.69      58.325918      58.325918      58.325918      0.91039544     285.5921       204.94061     -260.76188    
       700   1400           300.85691      343.73966      12605.518      11612.633      7209.3536      4403.2794      2380.02        2437.2184      8789.327       0             -9203.286       0              0             -293.47233      198058.52      58.290509      58.290509      58.290509      0.91205557     748.43186      220.68247      62.104642    
       800   1600           300.66895      537.84605      13239.439      11685          7204.8495      4480.1501      2442.5537      2424.6677      8830.7458      0             -9217.8171      0              0             -293.30595      198170.87      58.301528      58.301528      58.301528      0.91153851     592.57809      688.59418      332.36587    
       900   1800           297.48993      789.13043      13722.645      11443.545      7128.6715      4314.8737      2397.0408      2421.3742      8751.7007      0             -9255.2419      0              0             -293.50938      198033.52      58.288056      58.288056      58.288056      0.91217073     1314.3992      807.34014      245.65193    
      1000   2000           299.96199      21.239235      11632.98       11571.674      7187.9087      4383.7651      2401.7347      2406.2314      8802.7569      0             -9226.958       0              0             -293.67926      197918.97      58.276814      58.276814      58.276814      0.91269868    -207.4544       276.30282     -5.1307145    
      1100   2200           303.49494      339.13942      12586.133      11608.438      7272.5679      4335.8703      2369.4248      2431.1938      8773.2688      0             -9238.0171      0              0             -294.04358      197673.74      58.252736      58.252736      58.252736      0.91383093     249.59059      511.07417      256.75351    
      1200   2400           299.3781       668.82676      13480.678      11555.561      7173.9172      4381.6442      2446.8171      2414.4185      8742.5655      0             -9222.1568      0              0             -294.50536      197363.79      58.222273      58.222273      58.222273      0.91526606     1224.3981      491.66302      290.41917    
      1300   2600           298.3665       485.05161      12844.768      11447.598      7149.6765      4297.9219      2383.868       2344.1231      8820.0928      0             -9250.1619      0              0             -294.28996      197508.25      58.236475      58.236475      58.236475      0.91459663     106.89708      454.92583      893.33194    
      1400   2800           293.78454      766.49003      13521.475      11311.804      7039.8802      4271.9239      2389.4365      2355.4467      8786.3297      0             -9259.2891      0              0             -294.04616      197672         58.252565      58.252565      58.252565      0.91383895     1519.2502      499.41043      280.80945    
      1500   3000           300.38786      269.90935      12311.267      11532.79       7198.1139      4334.6759      2396.486       2365.1628      8773.4982      0             -9200.4711      0              0             -293.90618      197766.15      58.261812      58.261812      58.261812      0.91340392     50.722778     -38.893834      797.8991     
      1600   3200           301.48288     -149.82154      11174.144      11607.145      7224.3535      4382.7911      2378.1859      2434.288       8780.8349      0             -9210.5177      0              0             -293.30677      198170.31      58.301474      58.301474      58.301474      0.91154106    -377.09159     -138.35995      65.986929    
      1700   3400           296.73394      238.3716       12069.898      11379.431      7110.5558      4268.8751      2390.7555      2343.7301      8760.9409      0             -9226.5514      0              0             -292.64987      198615.14      58.345064      58.345064      58.345064      0.90949953     570.75652      645.19664     -500.83837    
      1800   3600           304.50439      673.40899      13509.288      11558.262      7296.757       4261.5053      2433.4997      2332.7991      8753.377       0             -9258.1705      0              0             -292.58529      198658.98      58.349356      58.349356      58.349356      0.90929883     513.95791      558.91271      947.35636    
      1900   3800           297.3567       212.5884       12152.169      11537.979      7125.4788      4412.5003      2449.1356      2394.7418      8751.6017      0             -9182.9788      0              0             -293.40922      198101.12      58.294687      58.294687      58.294687      0.91185947     338.22034      239.84776      59.697094    
      2000   4000           302.70771     -21.626138      11646.059      11708.618      7253.7038      4454.9143      2449.4394      2471.2702      8754.1878      0             -9219.9831      0              0             -293.0385       198351.73      58.319259      58.319259      58.319259      0.91070734    -238.20433     -110.77616      284.10207    
      2100   4200           296.41087      166.83876      11952.587      11470.476      7102.8143      4367.6617      2445.029       2381.1053      8747.7325      0             -9206.2051      0              0             -293.35049      198140.78      58.298577      58.298577      58.298577      0.91167693     129.41296     -127.06617      498.16948    
      2200   4400           301.4398      -14.134686      11489.318      11530.09       7223.3212      4306.7686      2453.0179      2335.1581      8738.8016      0             -9220.2089      0              0             -293.87383      197787.92      58.26395       58.26395       58.26395       0.91330337     20.350504     -207.13935      144.38478    
      2300   4600           305.72614      442.54809      12917.673      11640.246      7326.0335      4314.2125      2383.2922      2449.8395      8705.1698      0             -9224.089       0              0             -293.67095      197924.56      58.277364      58.277364      58.277364      0.91267286     651.01233      310.6208       366.01115    
      2400   4800           301.51549      216.10569      12178.432      11553.047      7225.1348      4327.9125      2394.4883      2404.8311      8781.3868      0             -9252.7937      0              0             -292.92423      198429.11      58.326842      58.326842      58.326842      0.91035221     102.35495      158.13224      387.82987    
      2500   5000           296.57722      537.10705      13002.659      11457.214      7106.8005      4350.4136      2441.7894      2402.38        8746.4093      0             -9240.165       0              0             -294.60752      197295.35      58.215543      58.215543      58.215543      0.91558355     610.68974      580.48647      420.14494    
      2600   5200           303.16621     -18.985502      11581.4        11636.245      7264.6905      4371.5546      2459.7502      2385.2889      8762.2097      0             -9235.6942      0              0             -293.44184      198079.1       58.292527      58.292527      58.292527      0.91196083    -394.11362     -32.781524      369.93864    
      2700   5400           301.91734      473.99554      13044.977      11671.38       7234.7642      4436.6158      2506.5871      2380.1378      8742.238       0             -9192.3471      0              0             -292.51724      198705.19      58.35388       58.35388       58.35388       0.90908735    -95.169476      905.93904      611.21706    
      2800   5600           298.42374      572.22259      13241.437      11579.143      7151.0482      4428.0944      2487.0741      2405.6401      8749.3594      0             -9213.9792      0              0             -291.80568      199189.73      58.401273      58.401273      58.401273      0.90687596     1114.2615     -27.099667      629.50588    
      2900   5800           296.33532     -47.534743      11331.963      11469.315      7101.0039      4368.3114      2434.6115      2426.8615      8717.2365      0             -9210.3981      0              0             -293.36782      198129.08      58.297429      58.297429      58.297429      0.91173078     419.20645     -29.636664     -532.17401    
      3000   6000           305.6043       447.7033       12985.079      11696.29       7323.1138      4373.1766      2472.4025      2398.4897      8730.5997      0             -9228.3153      0              0             -294.47287      197385.57      58.224415      58.224415      58.224415      0.91516507     629.70132      369.621        343.7876     
      3100   6200           299.30529      231.70841      12102.297      11433.473      7172.1725      4261.3001      2396.6998      2343.4862      8762.5058      0             -9241.3917      0              0             -293.67452      197922.16      58.277128      58.277128      58.277128      0.91268395     450.38302      224.06817      20.674053    
      3200   6400           301.68285      906.01163      14218.24       11598.902      7229.1454      4369.7562      2482.9433      2370.9987      8738.8991      0             -9223.085       0              0             -293.20999      198235.73      58.307888      58.307888      58.307888      0.91124028     688.4924       984.37928      1045.1632    
      3300   6600           298.83606      106.55329      11855.105      11547.16       7160.9285      4386.2319      2439.7635      2428.9753      8766.086       0             -9248.5929      0              0             -293.31229      198166.58      58.301108      58.301108      58.301108      0.91155822     126.44023      23.010199      170.20945    
      3400   6800           297.12677      807.68463      13709.523      11380.6        7119.9692      4260.6313      2408.0272      2350.1431      8747.4279      0             -9244.967       0              0             -293.98373      197713.98      58.256689      58.256689      58.256689      0.91364493     740.48617      922.0719       760.49581    
      3500   7000           299.73922      327.07652      12539.401      11597.752      7182.5705      4415.1811      2455.1744      2393.1386      8750.0084      0             -9183.1403      0              0             -294.43995      197407.64      58.226585      58.226585      58.226585      0.91506277     705.44931      83.144744      192.63551    
      3600   7200           299.29536      861.60291      13972.256      11486.296      7171.9344      4314.3612      2412.4481      2404.2888      8748.1057      0             -9250.4814      0              0             -293.79849      197838.64      58.26893       58.26893       58.26893       0.91306924     769.70862      1074.2887      740.81138    
      3700   7400           300.67549      315.56657      12415.551      11505.739      7205.0063      4300.7329      2405.3273      2336.419       8810.5627      0             -9251.5761      0              0             -294.01943      197689.98      58.254331      58.254331      58.254331      0.91375588     406.05797      504.53709      36.104642    
      3800   7600           297.79474      585.80992      13233.789      11543.094      7135.9755      4407.1185      2508.9927      2411.0425      8701.7477      0             -9214.6645      0              0             -293.71629      197894.01      58.274365      58.274365      58.274365      0.91281378     449.77637      850.2843       457.36909    
      3900   7800           299.37581     -90.032203      11364.633      11624.98       7173.8622      4451.118       2493.7771      2364.8029      8795.6634      0             -9203.1254      0              0             -293.14389      198280.42      58.31227       58.31227       58.31227       0.91103487    -259.80593     -145.84556      135.55488    
      4000   8000           303.50578      716.42033      13724.922      11651.389      7272.8277      4378.561       2536.4115      2336.1497      8737.2204      0             -9231.2205      0              0             -292.88251      198457.38      58.329612      58.329612      58.329612      0.91022253     716.79075      689.74188      742.72836    
      4100   8200           296.02894      219.74336      12119.64       11484.25       7093.6623      4390.5877      2486.9741      2403.0529      8748.3766      0             -9247.8159      0              0             -293.16477      198266.3       58.310885      58.310885      58.310885      0.91109975     68.615383      70.552202      520.06248    
      4200   8400           300.03427      438.31727      12907.474      11644.434      7189.6408      4454.7931      2495.2968      2392.9319      8800.7194      0             -9234.1551      0              0             -294.17643      197584.47      58.243966      58.243966      58.243966      0.9142438      69.481778      238.54567      1006.9244    
      4300   8600           302.01459      721.02168      13842.83       11759.951      7237.0946      4522.8562      2476.7492      2468.7797      8825.3492      0             -9248.0218      0              0             -293.44108      198079.61      58.292577      58.292577      58.292577      0.91195846     1301.1725     -135.81399      997.70654    
      4400   8800           298.64395      34.828342      11616.77       11515.814      7156.325       4359.4895      2437.4797      2404.5053      8754.5083      0             -9237.0038      0              0             -292.44301      198755.63      58.358817      58.358817      58.358817      0.90885666    -726.07431      324.35811      506.20122    
      4500   9000           299.89155      1096.4253      14855.23       11697.056      7186.2207      4510.8352      2513.3148      2457.4816      8799.4666      0             -9259.4278      0              0             -294.29275      197506.37      58.236291      58.236291      58.236291      0.91460531     639.2619       1091.3292      1558.685     
      4600   9200           303.06581      144.48592      12011.471      11596.942      7262.2848      4334.6573      2432.5751      2428.3132      8767.377       0             -9293.608       0              0             -295.46603      196722.09      58.159104      58.159104      58.159104      0.91825163     37.304698      635.4377      -239.28465    
      4700   9400           297.10906      553.99311      13117.481      11525.503      7119.5448      4405.9584      2456.6671      2432.3829      8833.5368      0             -9316.6285      0              0             -294.98772      197041.07      58.190521      58.190521      58.190521      0.91676513     71.077166      677.8674       913.03477    
      4800   9600           297.89277      94.501364      11797.804      11525.475      7138.3246      4387.1508      2430.0231      2401.2575      8804.4493      0             -9248.5791      0              0             -294.15862      197596.44      58.245141      58.245141      58.245141      0.91418844     211.5141      -218.89038      290.88036    
      4900   9800           298.39037      678.11579      13541.707      11587.203      7150.2484      4436.9543      2438.6694      2427.2088      8751.5179      0             -9180.4419      0              0             -294.10601      197631.78      58.248614      58.248614      58.248614      0.91402496     652.09393      627.12256      755.13089    
      5000   10000          296.36185     -254.8504       10904.176      11641.922      7101.6395      4540.2828      2493.4264      2437.7005      8846.8248      0             -9237.6689      0              0             -292.82967      198493.19      58.333119      58.333119      58.333119      0.91005834    -261.73422     -815.5949       312.77791    
      5100   10200          298.85921      400.65904      12673.711      11516.361      7161.4831      4354.8783      2450.4988      2371.9793      8794.4977      0             -9262.0975      0              0             -293.4587       198067.72      58.291411      58.291411      58.291411      0.91201322    -112.87742      765.29772      549.55683    
      5200   10400          301.64869      510.41274      13030.063      11565.316      7228.3266      4336.9896      2414.5955      2439.0954      8772.647       0             -9289.3483      0              0             -295.38979      196772.87      58.164108      58.164108      58.164108      0.91801467     118.84315      803.34609      609.04899    
      5300   10600          302.57494     -28.883383      11645.5        11728.657      7250.5221      4478.1348      2453.3145      2468.4861      8817.5562      0             -9261.2219      0              0             -294.43112      197413.56      58.227167      58.227167      58.227167      0.91503532    -524.57587      374.26375      63.661971    
      5400   10800          296.64361     -381.63758      10371.758      11473.99       7108.3913      4365.5989      2409.4745      2402.4076      8835.0945      0             -9281.3776      0              0             -293.50428      198036.96      58.288393      58.288393      58.288393      0.91215489    -415.26852     -417.76279     -311.88143    
      5500   11000          301.40841      689.63684      13567.822      11584.968      7222.5689      4362.3993      2449.4855      2366.7999      8803.1498      0             -9257.0359      0              0             -294.82638      197148.89      58.201134      58.201134      58.201134      0.91626371     806.92034      733.22145      528.76872    
      5600   11200          302.16784      34.892379      11825.462      11725.106      7240.7669      4484.3395      2436.2603      2444.3212      8829.637       0             -9225.879       0              0             -294.73001      197213.36      58.207477      58.207477      58.207477      0.91596421    -583.08918      148.53993      539.22638    
      5700   11400          294.35581      67.177127      11715.544      11521.245      7053.5694      4467.6761      2451.7592      2408.2444      8826.0972      0             -9218.4247      0              0             -293.08145      198322.67      58.31641       58.31641       58.31641       0.91084081    -654.38696     -54.836712      910.75506    
      5800   11600          300.00459      221.61737      12238.152      11595.489      7188.9295      4406.5593      2452.3714      2379.4895      8756.4309      0             -9181.7325      0              0             -292.31876      198840.11      58.367084      58.367084      58.367084      0.90847052    -25.776102      553.16778      137.46043    
      5900   11800          304.6306       96.808982      12012.094      11731.313      7299.7815      4431.5312      2441.5176      2422.4868      8761.2721      0             -9193.7453      0              0             -292.27003      198873.26      58.370328      58.370328      58.370328      0.90831908    -301.39441      630.24505     -38.423688    
      6000   12000          297.61013      108.98911      11945.262      11630.374      7131.5519      4498.8225      2481.5904      2423.4091      8784.2892      0             -9190.4662      0              0             -293.40284      198105.42      58.295109      58.295109      58.295109      0.91183964     483.4499      -346.32903      189.84646    
      6100   12200          300.42281      428.5987       12874.198      11636.572      7198.9513      4437.6212      2409.5756      2439.886       8845.1828      0             -9257.0232      0              0             -293.56085      197998.8       58.284649      58.284649      58.284649      0.91233069     551.38883      34.880641      699.52664    
      6200   12400          309.49044      114.22992      12012.821      11682.605      7416.2364      4266.3688      2380.3797      2347.3595      8772.5493      0             -9233.9197      0              0             -293.23677      198217.62      58.306112      58.306112      58.306112      0.91132352     284.81751     -39.685227      97.557493    
      6300   12600          297.0624       4.3311439      11506.114      11493.566      7118.4267      4375.1392      2379.27        2416.3478      8761.5646      0             -9182.0432      0              0             -292.58255      198660.84      58.349538      58.349538      58.349538      0.90929033     387.55412     -372.89721     -1.663478     
      6400   12800          302.16855      700.18729      13682.417      11652.149      7240.784       4411.3653      2389.2105      2457.085       8762.094       0             -9197.0242      0              0             -292.34623      198821.43      58.365256      58.365256      58.365256      0.90855589     1030.3907      723.18667      346.98455    
      6500   13000          305.44264      408.27129      12903.351      11722.526      7319.2402      4403.2859      2403.2717      2413.9517      8797.9688      0             -9211.9064      0              0             -293.08921      198317.41      58.315896      58.315896      58.315896      0.91086494     642.56792      680.31518     -98.069241    
      6600   13200          297.47232      734.12503      13682.02       11562.352      7128.2495      4434.1021      2464.5253      2441.8263      8785.2669      0             -9257.5164      0              0             -293.58829      197980.29      58.282833      58.282833      58.282833      0.91241597     845.23673      546.09404      811.04431    
      6700   13400          295.78637     -66.291657      11306.863      11498.019      7087.8495      4410.169       2448.2348      2423.1717      8745.9471      0             -9207.1846      0              0             -293.97343      197720.91      58.257369      58.257369      58.257369      0.91361293     217.66508     -442.92294      26.382889    
      6800   13600          299.68979      436.83883      12933.603      11671.632      7181.3862      4490.2457      2489.6552      2416.1242      8776.9198      0             -9192.4535      0              0             -293.4326       198085.33      58.293139      58.293139      58.293139      0.91193213     203.73122      862.51188      244.27339    
      6900   13800          298.04623     -39.142051      11405.315      11518.521      7142.0019      4376.519       2453.1439      2396.7918      8741.8207      0             -9215.2373      0              0             -293.09604      198312.8       58.315443      58.315443      58.315443      0.91088615     210.63859      82.547996     -410.61273    
      7000   14000          296.55538     -253.47301      10787.757      11522.699      7106.2772      4416.4215      2474.732       2385.67        8764.8216      0             -9208.8022      0              0             -292.35841      198813.15      58.364446      58.364446      58.364446      0.90859373    -449.64426      245.07975     -555.85453    
      7100   14200          304.91663      691.87994      13635.189      11641.542      7306.6356      4334.9069      2391.49        2440.5455      8730.8873      0             -9228.0159      0              0             -294.18402      197579.38      58.243465      58.243465      58.243465      0.91426738     449.33796      1082.3419      543.95992    
      7200   14400          296.58714     -118.4307       11173.803      11514.979      7107.0382      4407.9408      2388.1282      2452.8915      8817.9227      0             -9251.0016      0              0             -294.25403      197532.37      58.238845      58.238845      58.238845      0.91448496    -412.5479      -434.36617      491.62197    
      7300   14600          300.30483      623.5089       13466.614      11662.877      7196.1242      4466.7528      2426.8789      2436.576       8829.5081      0             -9226.2101      0              0             -293.02593      198360.24      58.320093      58.320093      58.320093      0.91066827     103.97932      445.41686      1321.1305    
      7400   14800          301.01658     -100.6534       11383.401      11674.284      7213.1796      4461.1039      2473.2481      2432.0698      8774.9705      0             -9219.1846      0              0             -293.32415      198158.57      58.300322      58.300322      58.300322      0.91159506    -164.1083      -248.11004      110.25813    
      7500   15000          295.19286     -1.4887399      11468.716      11473.011      7073.6275      4399.3835      2372.117       2411.4274      8821.9452      0             -9206.1061      0              0             -293.79698      197839.66      58.26903       58.26903       58.26903       0.91306454    -95.436048      314.13336     -223.16353    
      7600   15200          299.63459      742.30654      13793.158      11656.173      7180.0634      4476.1098      2455.0724      2443.825       8804.404       0             -9227.1916      0              0             -294.45472      197397.73      58.225611      58.225611      58.225611      0.91510867     686.89223      812.65695      727.37044    
      7700   15400          297.14248      68.259693      11753.815      11556.484      7120.3456      4436.1387      2457.0832      2416.5252      8783.4154      0             -9220.8851      0              0             -293.22915      198222.77      58.306618      58.306618      58.306618      0.91129982    -44.981021      456.74995     -206.98985    
      7800   15600          291.01458      68.82893       11449.799      11250.079      6973.5043      4276.5744      2428.4043      2345.9644      8705.7858      0             -9203.5801      0              0             -292.13682      198963.95      58.379199      58.379199      58.379199      0.90790507     477.22206      196.03214     -466.76741    
      7900   15800          299.44928     -237.06492      10744.653      11431.033      7175.6227      4255.4099      2356.6373      2388.7271      8705.6029      0             -9195.5575      0              0             -292.77892      198527.59      58.33649       58.33649       58.33649       0.90990061     72.230877     -209.42453     -574.00111    
      8000   16000          300.28625      427.42475      12878.095      11648.31       7195.679       4452.6314      2429.8448      2447.0757      8814.1365      0             -9238.4257      0              0             -294.62336      197284.75      58.2145        58.2145        58.2145        0.91563277     243.19093      562.04587      477.03744    
      8100   16200          297.99769     -21.686358      11456.798      11519.249      7140.8389      4378.4103      2463.1828      2355.4088      8835.3492      0             -9275.5305      0              0             -294.36479      197458.04      58.23154       58.23154       58.23154       0.91482918    -53.008126     -225.02287      212.97192    
      8200   16400          297.92159      812.19065      13830.009      11492.245      7139.0152      4353.2293      2400.3557      2463.299       8697.8936      0             -9208.3191      0              0             -294.50571      197363.56      58.22225       58.22225       58.22225       0.91526714     686.3612       1159.778       590.43274    
      8300   16600          301.92207      521.59071      13105.835      11599.683      7234.8776      4364.8057      2444.1918      2370.9045      8757.4011      0             -9207.6917      0              0             -293.56053      197999.01      58.28467       58.28467       58.28467       0.9123297      194.37207      567.68841      802.71164    
      8400   16800          297.5709       35.098884      11586.527      11484.692      7130.6118      4354.0799      2412.3399      2347.3386      8791.138       0             -9196.7366      0              0             -292.1683       198942.51      58.377102      58.377102      58.377102      0.90800292    -161.70526     -121.01656      388.01847    
      8500   17000          304.35866      545.11694      13272.545      11692.935      7293.265       4399.6702      2495.8714      2385.281       8718.1039      0             -9199.5862      0              0             -292.53404      198693.78      58.352763      58.352763      58.352763      0.90913956     524.32582      272.9305       838.09451    
      8600   17200          301.05459      105.15411      11895.76       11590.912      7214.0904      4376.8217      2440.808       2399.2743      8734.0594      0             -9197.3201      0              0             -292.4011       198784.12      58.361605      58.361605      58.361605      0.9087264      168.57197     -265.88165      412.772      
      8700   17400          300.56414      465.57615      12805.015      11454.973      7202.3379      4252.6351      2333.2024      2396.653       8749.2527      0             -9226.473       0              0             -292.3345       198829.41      58.366037      58.366037      58.366037      0.90851943     60.441304      876.24672      460.04044    
      8800   17600          300.56492      679.62875      13603.668      11639.991      7202.3565      4437.6341      2461.0264      2437.9054      8753.6038      0             -9214.9014      0              0             -293.38522      198117.32      58.296276      58.296276      58.296276      0.91178488     492.52311      744.64805      801.71508    
      8900   17800          299.79787     -42.85572       11465.304      11589.231      7183.976       4405.2546      2487.8809      2440.2575      8671.6992      0             -9194.583       0              0             -293.14315      198280.92      58.312319      58.312319      58.312319      0.91103256    -123.18056     -231.34194      225.95534    
      9000   18000          294.4575       126.95958      11766.983      11398.625      7056.0062      4342.6191      2405.0314      2406.3916      8726.5586      0             -9195.3624      0              0             -292.16782      198942.84      58.377134      58.377134      58.377134      0.90800142     215.15817      590.26689     -424.54632    
      9100   18200          300.92299      7.4788603      11664.682      11643.031      7210.937       4432.0942      2429.757       2415.4839      8789.4836      0             -9202.6303      0              0             -292.81623      198502.3       58.334012      58.334012      58.334012      0.91001655     669.0625      -395.1542      -251.47172    
      9200   18400          297.99032      410.24755      12836.352      11648.784      7140.6622      4508.122       2473.0365      2424.5124      8803.7932      0             -9193.2201      0              0             -292.8358       198489.03      58.332713      58.332713      58.332713      0.91007737     529.56733      303.335        397.84034    
      9300   18600          300.61607      79.814506      11921.145      11689.254      7203.5823      4485.6719      2426.3074      2384.7895      8846.8305      0             -9172.2555      0              0             -291.76556      199217.12      58.40395       58.40395       58.40395       0.90675127     345.29202     -370.88786      265.03936    
      9400   18800          297.12321     -16.135577      11482.348      11528.979      7119.8838      4409.0957      2416.9143      2418.246       8790.0104      0             -9216.075       0              0             -293.31761      198162.99      58.300756      58.300756      58.300756      0.91157474    -25.173587     -91.026559      67.793415    
      9500   19000          301.02155      928.1856       14458.891      11781.589      7213.2988      4568.2906      2464.7694      2456.4688      8836.083       0             -9189.0305      0              0             -293.8827       197781.95      58.263364      58.263364      58.263364      0.91333094     550.79813      1090.8187      1142.9399    
      9600   19200          299.97686      266.86234      12494.035      11720.703      7188.265       4532.4379      2429.0724      2426.0495      8851.9159      0             -9174.5999      0              0             -292.52173      198702.14      58.353582      58.353582      58.353582      0.90910131     169.20395      74.88211       556.50097    
      9700   19400          298.01222      698.34287      13633.144      11602.67       7141.1869      4461.4828      2438.0446      2375.5961      8798.2818      0             -9150.4397      0              0             -291.54647      199366.83      58.418576      58.418576      58.418576      0.90607039     1114.1616      406.24826      574.61876    
      9800   19600          307.31238      265.96254      12565.017      11794.452      7364.0442      4430.408       2401.5065      2420.0268      8769.83        0             -9160.9553      0              0             -292.58229      198661.02      58.349555      58.349555      58.349555      0.90928951    -320.50427      339.67179      778.72008    
      9900   19800          299.42052      149.85823      12042.727      11607.918      7174.9336      4432.9848      2435.9943      2420.9175      8745.35        0             -9169.2769      0              0             -292.15885      198948.94      58.377731      58.377731      58.377731      0.90797355     904.87297     -228.36999     -226.92829    
     10000   20000          297.20657      249.76134      12291.826      11569.81       7121.8815      4447.9289      2465.4669      2392.1711      8796.5368      0             -9206.2458      0              0             -293.23444      198219.2       58.306267      58.306267      58.306267      0.91131627     163.15589      628.56614     -42.438015    
     10100   20200          303.92972      788.70358      14116.693      11849.253      7282.9863      4566.2671      2458.9129      2490.4379      8797.7712      0             -9180.8549      0              0             -294.85926      197126.91      58.198971      58.198971      58.198971      0.91636589     596.38085      736.20243      1033.5275    
     10200   20400          304.21022      253.58004      12468.029      11733.576      7289.7079      4443.8684      2430.9086      2367.516       8832.3177      0             -9186.8739      0              0             -292.67662      198596.99      58.343286      58.343286      58.343286      0.90958268     312.7357       602.65824     -154.65382    
     10300   20600          298.24407      70.877519      11838.457      11632.108      7146.7426      4485.3659      2447.4718      2437.9687      8778.5702      0             -9178.6449      0              0             -291.16828      199625.78      58.443857      58.443857      58.443857      0.90489505     11.784803      17.687528      183.16023    
     10400   20800          296.59482      485.65665      13011.603      11604.014      7107.2222      4496.7918      2405.5002      2441.0415      8799.4841      0             -9149.2339      0              0             -292.47591      198733.27      58.356628      58.356628      58.356628      0.90895892     560.42076      580.09727      316.45191    
     10500   21000          302.08757      56.458168      11909.99       11746.773      7238.8435      4507.9297      2415.4097      2420.7007      8872.0556      0             -9200.2363      0              0             -293.2234       198226.66      58.306998      58.306998      58.306998      0.91128197     119.31532     -321.65913      371.71831    
     10600   21200          296.56442      560.63174      13111.373      11492.218      7106.4936      4385.7248      2432.2932      2334.4836      8815.4833      0             -9196.5353      0              0             -293.51209      198031.69      58.287876      58.287876      58.287876      0.91217916     392.45634      521.15399      768.28488    
     10700   21400          302.58886      68.183834      11842.317      11645.695      7250.8558      4394.8396      2437.8937      2400.205       8783.5272      0             -9226.7863      0              0             -293.95859      197730.89      58.258349      58.258349      58.258349      0.9135668     -459.78792      974.90191     -310.56249    
     10800   21600          296.28934      571.00605      13191.353      11540.307      7099.9021      4440.4052      2461.0212      2390.0237      8795.811       0             -9206.4506      0              0             -293.16918      198263.32      58.310593      58.310593      58.310593      0.91111347     172.70537      959.36614      580.94663    
     10900   21800          298.33118      328.9643       12481.756      11530.17       7148.8301      4381.3394      2399.0663      2394.3858      8777.834       0             -9189.9468      0              0             -293.04689      198346.05      58.318703      58.318703      58.318703      0.91073341     137.706        881.9999      -32.813002    
     11000   22000          301.09176     -68.133613      11465.711      11662.733      7214.9811      4447.7517      2426.4852      2423.6773      8818.0717      0             -9220.4826      0              0             -293.14614      198278.9       58.312121      58.312121      58.312121      0.91104185    -60.512877     -273.71037      129.82241    
     11100   22200          301.83398      708.69228      13746.718      11700.333      7232.7667      4467.5662      2440.1697      2419.8602      8822.3109      0             -9214.7745      0              0             -293.56676      197994.81      58.284258      58.284258      58.284258      0.91234906     1164.2335      805.47781      156.36555    
     11200   22400          297.0921      -201.98377      10997.507      11581.502      7119.1385      4462.3631      2440.6782      2406.5433      8798.1815      0             -9183.0399      0              0             -293.1867       198251.47      58.309432      58.309432      58.309432      0.9111679     -184.45725      28.629935     -450.12399    
     11300   22600          302.74333      1043.9378      14649.283      11626.208      7254.5574      4371.6507      2431.496       2389.207       8731.4236      0             -9180.4758      0              0             -292.72669      198563.02      58.339959      58.339959      58.339959      0.90973827     1337.721       1237.5917      556.50079    
     11400   22800          304.06036      163.79384      12304.159      11827.955      7286.117       4541.8376      2441.2256      2477.8119      8760.6829      0             -9137.8828      0              0             -291.56854      199351.74      58.417102      58.417102      58.417102      0.90613896    -64.981641     -435.92933      992.2925     
     11500   23000          296.24719      429.9492       12806.111      11555.392      7098.8921      4456.4999      2473.5048      2352.7941      8778.2876      0             -9148.0867      0              0             -291.40297      199465.01      58.428164      58.428164      58.428164      0.90562441     569.71006      260.09187      460.04566    
     11600   23200          304.04668     -27.938734      11543.222      11624.075      7285.7891      4338.2858      2425.7604      2397.9426      8701.7442      0             -9187.1613      0              0             -292.91919      198432.53      58.327177      58.327177      58.327177      0.91033653    -590.24309     -403.05528      909.48216    
     11700   23400          297.58362     -344.3863       10480.157      11476.025      7130.9165      4345.1089      2459.2905      2308.1714      8757.2598      0             -9179.6127      0              0             -293.1437       198280.55      58.312282      58.312282      58.312282      0.91103427    -631.77419     -118.99123     -282.39348    
     11800   23600          302.99062      485.97809      13028.697      11619.771      7260.4829      4359.2882      2459.6034      2374.2505      8699.0353      0             -9173.6011      0              0             -292.3917       198790.51      58.362231      58.362231      58.362231      0.90869719     258.72523      889.57699      309.63207    
     11900   23800          299.19085      250.63206      12432.493      11700.577      7169.4301      4531.1472      2482.5885      2430.9373      8720.6033      0             -9102.9819      0              0             -290.27684      200238.83      58.503624      58.503624      58.503624      0.90212462     496.07786      495.35614     -239.53782    
     12000   24000          296.31897      222.18854      12178.872      11531.503      7100.6121      4430.8912      2457.714       2357.6851      8748.6915      0             -9133.1995      0              0             -290.94189      199781.11      58.459012      58.459012      58.459012      0.90419148     95.893075      341.92396      228.7486     
     12100   24200          300.97962      159.24862      12032.983      11572.158      7212.294       4359.8639      2447.1945      2333.1568      8724.237       0             -9144.7244      0              0             -292.93831      198419.57      58.325907      58.325907      58.325907      0.91039597     726.10418     -84.337858     -164.02045    
     12200   24400          305.06118      485.72186      13108.194      11702.583      7310.0992      4392.4833      2448.5411      2418.8676      8744.1631      0             -9219.0884      0              0             -292.92673      198427.41      58.326676      58.326676      58.326676      0.91035998     1228.6649      327.58346     -99.082747    
     12300   24600          297.27951      556.98213      13159.785      11543.857      7123.6293      4420.2276      2471.7583      2391.539       8728.7256      0             -9171.7953      0              0             -292.18364      198932.07      58.376081      58.376081      58.376081      0.90805057     346.01423      847.99877      476.93338    
     12400   24800          294.96648      657.02746      13327.59       11425.999      7068.2026      4357.796       2428.8018      2376.9226      8709.1602      0             -9157.0886      0              0             -292.88889      198453.06      58.329188      58.329188      58.329188      0.91024236     1236.6569      382.78954      351.63595    
     12500   25000          300.12179      536.5359       13190.115      11641.331      7191.7381      4449.5928      2468.4998      2441.7947      8699.2479      0             -9159.9496      0              0             -293.65983      197932.06      58.2781        58.2781        58.2781        0.9126383      347.46164      1146.1652      115.98088    
     12600   25200          299.85191      520.10816      13068.033      11564.584      7185.271       4379.3132      2413.7649      2442.6058      8718.9808      0             -9196.0383      0              0             -293.25247      198207.01      58.305072      58.305072      58.305072      0.9113723      292.2442       625.44133      642.63896    
     12700   25400          296.93144     -270.4639       10684.831      11468.814      7115.2886      4353.5257      2438.2024      2403.5186      8702.2577      0             -9190.453       0              0             -292.44169      198756.52      58.358905      58.358905      58.358905      0.90885257    -846.3447       142.37809     -107.42508    
     12800   25600          302.40936      117.21005      11946.552      11607.172      7246.5544      4360.6173      2430.4221      2375.8293      8744.4571      0             -9190.0911      0              0             -292.76197      198539.09      58.337616      58.337616      58.337616      0.90984792     207.07643     -8.3153395      152.86907    
     12900   25800          300.75311      1051.1736      14624.996      11583.829      7206.8661      4376.9625      2464.4971      2372.6519      8737.7516      0             -9197.9382      0              0             -293.00209      198376.39      58.321675      58.321675      58.321675      0.91059416     954.96431      796.99066      1401.5659    
     13000   26000          300.10124      26.77637       11702.709      11625.164      7191.2457      4433.9183      2504.0714      2385.1471      8742.0305      0             -9197.3307      0              0             -292.70729      198576.18      58.341248      58.341248      58.341248      0.90967799     129.23497      67.492802     -116.39867    
     13100   26200          304.65605      498.9919       13083.833      11641.905      7300.3912      4341.5134      2397.5686      2404.0404      8770.6374      0             -9230.733       0              0             -293.35013      198141.03      58.298601      58.298601      58.298601      0.9116758      242.27685      570.82038      683.87848    
     13200   26400          298.41601      432.29607      12763.566      11515.393      7150.8628      4364.5306      2418.1012      2466.4005      8722.772       0             -9242.7432      0              0             -293.59129      197978.27      58.282634      58.282634      58.282634      0.91242529     311.97628      473.51262      511.3993     
     13300   26600          303.15795      218.55272      12197.822      11566.344      7264.4927      4301.8517      2405.3469      2438.1986      8710.4017      0             -9252.0955      0              0             -293.38278      198118.97      58.296438      58.296438      58.296438      0.91177729     243.50419      54.737236      357.41672    
     13400   26800          299.42865      516.88221      13026.568      11536.173      7175.1285      4361.0443      2452.5892      2426.9888      8698.05        0             -9216.5837      0              0             -293.98609      197712.4       58.256533      58.256533      58.256533      0.91365225     236.47332      742.51873      571.6546     
     13500   27000          295.88292      428.43401      12689.288      11448.473      7090.1631      4358.3104      2482.7158      2348.3787      8765.6201      0             -9238.4042      0              0             -292.69394      198585.23      58.342135      58.342135      58.342135      0.90963651    -119.23613      741.59148      662.94666    
     13600   27200          303.43102      3.6471762      11680.149      11669.593      7271.0361      4398.557       2464.2613      2421.1799      8718.2403      0             -9205.1245      0              0             -292.87979      198459.22      58.329792      58.329792      58.329792      0.91021408    -29.361291      438.05322     -397.75041    
     13700   27400          297.63445      543.21907      13114.224      11541.443      7132.1345      4409.3087      2430.2645      2403.08        8741.3595      0             -9165.3953      0              0             -292.78134      198525.95      58.336329      58.336329      58.336329      0.90990814     322.19643      444.84269      862.6181     
     13800   27600          292.12828     -281.54208      10543.002      11355.892      7000.1918      4355.7         2405.2483      2445.4343      8730.1343      0             -9225.117       0              0             -293.5947       197975.97      58.282409      58.282409      58.282409      0.91243589    -364.76958     -603.41117      123.55452    
     13900   27800          296.66002      321.07806      12406.719      11480.136      7108.7846      4371.3514      2459.2813      2407.6855      8743.588       0             -9239.2034      0              0             -293.73983      197878.15      58.272809      58.272809      58.272809      0.91288691     115.97623      46.186085      801.07187    
     14000   28000          301.04485      813.15241      13945.894      11598.304      7213.8571      4384.4469      2438.1032      2434.8383      8770.8143      0             -9259.3089      0              0             -293.62042      197958.62      58.280706      58.280706      58.280706      0.91251584     122.16299      912.51398      1404.7803    
     14100   28200          294.56011      354.02251      12415.861      11395.585      7058.4651      4337.1198      2442.3343      2403.6023      8781.6376      0             -9290.4544      0              0             -294.13694      197611         58.246572      58.246572      58.246572      0.91412106     9.3951262      515.31338      537.35901    
     14200   28400          299.47761      1025.0112      14573.718      11618.918      7176.3016      4442.6168      2454.5963      2415.972       8777.0019      0             -9204.9534      0              0             -294.06078      197662.18      58.2516        58.2516        58.2516        0.91388437     836.98261      1257.7857      980.26537    
     14300   28600          301.33506      728.94069      13718.745      11611.057      7220.8112      4390.2453      2431.2198      2382.9991      8810.3235      0             -9234.2972      0              0             -293.17184      198261.52      58.310416      58.310416      58.310416      0.91112174     1369.1469      531.03928      286.63591    
     14400   28800          297.00366      543.66493      13006.995      11438.223      7117.019       4321.2039      2396.1009      2339.3422      8802.0124      0             -9216.2516      0              0             -293.7704       197857.56      58.270787      58.270787      58.270787      0.91298194     537.01983      752.20526      341.7697     
     14500   29000          299.93758      363.83975      12715.921      11665.039      7187.3239      4477.7155      2470.2287      2403.7493      8836.1655      0             -9232.428       0              0             -293.48974      198046.77      58.289355      58.289355      58.289355      0.91210971     1170.485      -237.11035      158.14462    
     14600   29200          300.16392      397.81281      12643.616      11501.101      7192.7476      4308.3539      2430.7005      2424.3883      8722.2465      0             -9268.9814      0              0             -295.15727      196927.88      58.179377      58.179377      58.179377      0.91729205     770.9431       569.75433     -147.259      
     14700   29400          299.57158      519.30136      12923.991      11434.725      7178.5536      4256.1712      2376.7136      2380.6261      8802.9409      0             -9304.1094      0              0             -295.58582      196642.37      58.151247      58.151247      58.151247      0.91862391     696.61063      520.38396      340.90949    
     14800   29600          306.24965      170.04177      12059.63       11569.545      7338.5782      4230.9665      2361.0534      2348.0106      8757.6405      0             -9235.7381      0              0             -294.11735      197624.16      58.247865      58.247865      58.247865      0.91406018     798.15952     -612.4863       324.45211    
     14900   29800          303.64907      330.12638      12731.688      11776.784      7276.2612      4500.5227      2483.6031      2409.6796      8835.1771      0             -9227.9371      0              0             -293.06033      198336.96      58.317812      58.317812      58.317812      0.91077517     622.53679     -420.84888      788.69122    
     15000   30000          296.61014     -353.12852      10568.129      11589.696      7107.5892      4482.1067      2427.3242      2473.8725      8792.4025      0             -9211.4926      0              0             -293.02373      198361.74      58.32024       58.32024       58.32024       0.91066141     70.204783     -582.74763     -546.84272    
     15100   30200          296.84527      419.06513      12677.366      11469.494      7113.2238      4356.2698      2449.4562      2377.87        8776.1551      0             -9247.2117      0              0             -294.10145      197634.85      58.248915      58.248915      58.248915      0.91401077     470.35234      135.92971      650.91332    
     15200   30400          301.60889      352.33501      12605.165      11591.995      7227.373       4364.622       2414.2289      2399.6159      8766.1169      0             -9215.3396      0              0             -294.78817      197174.45      58.203649      58.203649      58.203649      0.91614497     66.512173      935.00683      55.486037    
     15300   30600          303.29086      301.40583      12394.271      11524.904      7267.6777      4257.2262      2396.697       2363.01        8744.2131      0             -9246.6939      0              0             -293.89009      197776.98      58.262875      58.262875      58.262875      0.91335391    -163.10689      680.03142      387.29295    
     15400   30800          296.53935      553.60761      13040.463      11444.738      7105.8929      4338.8454      2424.7018      2395.8373      8738.3069      0             -9220.0006      0              0             -294.09028      197642.35      58.249652      58.249652      58.249652      0.91397605    -53.823533      955.24085      759.4055     
     15500   31000          303.20842      431.66323      12979.649      11732.197      7265.702       4466.4947      2497.4202      2420.0335      8782.0144      0             -9232.9735      0              0             -293.33071      198154.14      58.299888      58.299888      58.299888      0.91161546    -247.79299      1265.7689      277.01374    
     15600   31200          303.6494       783.36963      13907.862      11643.763      7276.2693      4367.4935      2412.8574      2450.3682      8734.4525      0             -9230.1846      0              0             -293.29716      198176.81      58.30211       58.30211       58.30211       0.9115112      572.34065      594.59581      1183.1724    
     15700   31400          299.11823      498.98607      12909.666      11466.411      7167.69        4298.7213      2362.0997      2463.5234      8708.944       0             -9235.8458      0              0             -293.07712      198325.59      58.316698      58.316698      58.316698      0.91082736     664.70045      343.47311      488.78464    
     15800   31600          302.05672      836.57702      14002.58       11582.012      7238.1043      4343.9075      2482.1069      2329.0536      8708.8347      0             -9176.0877      0              0             -292.97131      198397.22      58.323717      58.323717      58.323717      0.91049852     836.22816      669.15318      1004.3497    
     15900   31800          300.47507     -76.864388      11378.756      11601.796      7200.2037      4401.5923      2425.2923      2459.0282      8718.2804      0             -9201.0086      0              0             -292.13232      198967.01      58.379498      58.379498      58.379498      0.9078911      439.87076     -356.28626     -314.17766    
     16000   32000          299.72603      515.31423      13015.314      11523.373      7182.2546      4341.1184      2403.2644      2358.0563      8776.8394      0             -9197.0417      0              0             -292.79049      198519.75      58.335722      58.335722      58.335722      0.90993655     795.97729      157.78105      592.18435    
     16100   32200          304.46282      0.47956438     11711.553      11710.169      7295.7609      4414.4081      2425.3255      2411.4716      8765.6129      0             -9188.0021      0              0             -293.67775      197919.98      58.276914      58.276914      58.276914      0.91269399     212.62251      208.79879     -419.98261    
     16200   32400          301.06637     -417.89738      10273.95       11483.376      7214.3728      4269.0028      2369.062       2407.5027      8681.6794      0             -9189.2413      0              0             -292.90512      198442.06      58.32811       58.32811       58.32811       0.91029281    -304.11062     -612.76981     -336.8117     
     16300   32600          300.15916     -114.45638      11219.173      11551.641      7192.6334      4359.0079      2436.0973      2395.251       8756.7138      0             -9229.0541      0              0             -291.82786      199174.59      58.399794      58.399794      58.399794      0.90694489    -362.55813      309.93373     -290.74475    
     16400   32800          305.23043      488.68569      13206.444      11797.908      7314.155       4483.7526      2561.4914      2407.7924      8731.4629      0             -9216.994       0              0             -294.10213      197634.39      58.24887       58.24887       58.24887       0.91401288     177.75038      703.39213      584.91456    
     16500   33000          301.13838      646.4171       13442.009      11583.346      7216.0984      4367.2473      2456.5829      2397.7325      8729.7914      0             -9216.8596      0              0             -294.81431      197156.97      58.201929      58.201929      58.201929      0.9162262      710.90134      765.72099      462.62897    
     16600   33200          299.61911      717.02115      13503.834      11430.991      7179.6924      4251.2985      2414.808       2353.5743      8700.0964      0             -9217.1802      0              0             -293.22571      198225.1       58.306846      58.306846      58.306846      0.91128913     664.5733       790.19424      696.29591    
     16700   33400          300.13008     -240.76731      10784.92       11484.282      7191.9367      4292.3452      2423.0589      2397.3406      8700.1146      0             -9228.169       0              0             -291.83133      199172.23      58.399562      58.399562      58.399562      0.90695566    -187.62954     -11.727285     -522.94512    
     16800   33600          300.92038      316.40891      12590.082      11673.433      7210.8744      4462.5586      2448.826       2458.508       8702.521       0             -9147.2965      0              0             -292.6054       198645.33      58.348019      58.348019      58.348019      0.90936133     285.35521      311.31753      352.554      
     16900   33800          298.36526      122.02803      11818.008      11464.239      7149.6468      4314.5921      2410.223       2450.4261      8644.8509      0             -9190.9079      0              0             -292.39961      198785.13      58.361704      58.361704      58.361704      0.90872179     494.39084      616.58308     -744.88982    
     17000   34000          300.07336      512.52549      12988.783      11499.053      7190.5776      4308.4756      2430.3183      2344.9378      8715.0361      0             -9181.8166      0              0             -291.63821      199304.11      58.41245       58.41245       58.41245       0.9063555      796.4215       433.00525      308.14972    
     17100   34200          303.48754      265.63553      12425.861      11654.517      7272.3906      4382.1263      2416.304       2390.3369      8716.1128      0             -9140.6273      0              0             -291.92715      199106.85      58.393172      58.393172      58.393172      0.90725345     857.53656      55.59026      -116.22022    
     17200   34400          304.57928      382.02993      12719.669      11610.863      7298.5517      4312.3112      2401.121       2399.3439      8687.4777      0             -9175.6313      0              0             -292.0641       199013.49      58.384043      58.384043      58.384043      0.90767908     346.09201      300.61429      499.38348    
     17300   34600          294.87101     -213.85806      10706.295      11327.442      7065.9151      4261.5274      2374.0343      2392.2725      8681.1959      0             -9185.9753      0              0             -291.8552       199155.93      58.39797       58.39797       58.39797       0.90702986    -313.11164      351.28108     -679.74361    
     17400   34800          302.2877       517.60777      13131.288      11631.4        7243.6391      4387.7607      2412.6587      2480.5306      8697.0893      0             -9202.518       0              0             -292.53546      198692.82      58.352669      58.352669      58.352669      0.90914397     960.52298      340.65415      251.64619    
     17500   35000          298.4908       284.48963      12358.449      11533.636      7152.655       4380.9812      2417.4007      2417.123       8748.2493      0             -9201.7918      0              0             -292.37998      198798.47      58.36301       58.36301       58.36301       0.90866079     438.36678      223.37249      191.72962    
     17600   35200          299.12166     -272.8801       10825.833      11620.31       7167.7723      4452.538       2426.5374      2472.7938      8743.4191      0             -9190.2123      0              0             -291.15682      199633.63      58.444624      58.444624      58.444624      0.90485944    -352.92606     -156.34319     -309.37103    
     17700   35400          301.41903      240.66838      12390.694      11691.306      7222.8234      4468.4827      2468.6446      2398.0302      8707.9007      0             -9106.0928      0              0             -291.70052      199261.54      58.40829       58.40829       58.40829       0.90654914     466.08997      370.47078     -114.55563    
     17800   35600          302.26414      218.8685       12259.653      11623.884      7243.0745      4380.81        2394.0046      2355.3792      8738.0358      0             -9106.6097      0              0             -291.8239       199177.3       58.400058      58.400058      58.400058      0.90693258     555.44649      93.457005      7.7020017    
     17900   35800          299.19666      50.010434      11712.597      11566.9        7169.5695      4397.3301      2374.1452      2438.2478      8716.4285      0             -9131.4915      0              0             -290.96754      199763.5       58.457295      58.457295      58.457295      0.90427119     117.7769      -270.67358      302.92798    
     18000   36000          297.01622      64.291629      11561.736      11375.348      7117.3202      4258.0282      2370.4807      2376.2469      8662.3494      0             -9151.0488      0              0             -292.39724      198786.74      58.361862      58.361862      58.361862      0.90871442    -237.34956      45.396108      384.82834    
     18100   36200          303.58855      561.45172      13223.321      11604.972      7274.8109      4330.1614      2428.9657      2440.1107      8686.5048      0             -9225.4199      0              0             -294.08779      197644.03      58.249817      58.249817      58.249817      0.91396831     147.83122      593.35942      943.16451    
     18200   36400          297.60822      574.09658      13120.612      11458.096      7131.506       4326.5898      2381.8492      2415.3066      8705.3962      0             -9175.9622      0              0             -292.72229      198566         58.340252      58.340252      58.340252      0.9097246      559.95796      443.77261      718.55916    
     18300   36600          297.91343     -226.64273      11000.4        11659.914      7138.8196      4521.0948      2458.5852      2443.7421      8788.4517      0             -9169.6843      0              0             -291.30935      199529.11      58.434422      58.434422      58.434422      0.90533346    -850.08237      134.48348      35.670697    
     18400   36800          301.96077      463.94384      12944.275      11603.376      7235.8049      4367.5712      2430.3916      2406.5391      8771.9078      0             -9241.2673      0              0             -293.29577      198177.74      58.302202      58.302202      58.302202      0.91150689     451.0511       1010.3429     -69.562522    
     18500   37000          303.62039      517.94464      13002.878      11511.709      7275.5741      4236.1348      2385.0696      2381.119       8747.2756      0             -9277.3294      0              0             -294.43752      197409.27      58.226745      58.226745      58.226745      0.91505521     461.05792      707.59081      385.18517    
     18600   37200          304.5078       395.05836      12875.873      11735.795      7296.8387      4438.9559      2451.9919      2407.737       8760.264       0             -9181.037       0              0             -293.73991      197878.1       58.272803      58.272803      58.272803      0.91288717     915.44455      301.3952      -31.664663    
     18700   37400          299.07865      870.15453      14133.525      11609.35       7166.7414      4442.6088      2497.8243      2350.9755      8773.9636      0             -9180.1546      0              0             -292.22246      198905.64      58.373495      58.373495      58.373495      0.90817122     1597.0149      772.63394      240.81474    
     18800   37600          301.44398      352.43538      12588.272      11566.49       7223.4212      4343.0686      2421.9083      2350.5219      8757.7269      0             -9187.0885      0              0             -292.38681      198793.83      58.362556      58.362556      58.362556      0.90868201     155.17558      673.21946      228.91111    
     18900   37800          298.31464      98.216161      11743.561      11459.547      7148.4337      4311.1129      2366.3738      2383.6086      8765.5221      0             -9204.3917      0              0             -293.14282      198281.15      58.312341      58.312341      58.312341      0.91103154     231.91871      5.3836085      57.346167    
     19000   38000          299.89856     -90.659334      11237.41       11498.784      7186.3889      4312.3949      2423.5771      2387.9531      8736.0445      0             -9235.1798      0              0             -294.02688      197684.97      58.253839      58.253839      58.253839      0.91377901    -183.62516      119.00798     -207.36082    
     19100   38200          303.44973     -437.5855       10377.075      11640.277      7271.4844      4368.7928      2442.1691      2449.025       8719.6652      0             -9242.0664      0              0             -293.64779      197940.17      58.278896      58.278896      58.278896      0.91260088    -659.43993     -188.8109      -464.50567    
     19200   38400          297.56459     -320.9392       10583.246      11512.195      7130.4606      4381.7346      2388.3945      2442.4338      8788.2133      0             -9237.307       0              0             -292.86498      198469.25      58.330775      58.330775      58.330775      0.91016807    -222.54056     -295.99915     -444.27789    
     19300   38600          303.62506      467.25395      13102.301      11752.031      7275.6859      4476.3447      2422.0103      2457.0729      8788.6501      0             -9191.3886      0              0             -293.33837      198148.96      58.29938       58.29938       58.29938       0.91163928     631.35746      309.30249      461.1019     
     19400   38800          304.62633      263.91705      12447.73       11684.466      7299.6791      4384.7871      2444.7918      2426.8293      8748.1998      0             -9235.0338      0              0             -293.10922      198303.87      58.314569      58.314569      58.314569      0.91092712     631.39666     -53.247747      213.60223    
     19500   39000          301.53429      208.6225       12072.814      11469.963      7225.5855      4244.3778      2430.5221      2336.5817      8742.6594      0             -9265.3854      0              0             -293.35143      198140.15      58.298515      58.298515      58.298515      0.91167984     82.487702      135.63344      407.74635    
     19600   39200          302.30657      268.36461      12317.469      11540.894      7244.0913      4296.8029      2347.7217      2436.0137      8750.8924      0             -9237.8249      0              0             -292.93995      198418.46      58.325799      58.325799      58.325799      0.91040105     312.25315      478.14419      14.696496    
     19700   39400          298.64994      170.93195      12186.279      11692.849      7156.4684      4536.3806      2445.0278      2485.4129      8810.7558      0             -9204.8159      0              0             -293.65307      197936.62      58.278547      58.278547      58.278547      0.91261729     195.94643     -132.65517      449.50457    
     19800   39600          296.67571      233.1332       12254.504      11582.653      7109.1606      4473.4928      2463.6607      2452.9184      8760.9782      0             -9204.0645      0              0             -294.14939      197602.63      58.24575       58.24575       58.24575       0.91415977    -139.46838      527.8408       311.02717    
     19900   39800          298.53573      477.45109      12952.284      11568.601      7153.7316      4414.8692      2414.952       2423.1127      8776.3372      0             -9199.5327      0              0             -292.502        198715.55      58.354894      58.354894      58.354894      0.90903999     532.5863       80.330953      819.43601    
     20000   40000          302.59577      192.00795      12316.036      11758.081      7251.0213      4507.0592      2450.7693      2450.7179      8767.5851      0             -9162.0131      0              0             -291.7132       199252.88      58.407444      58.407444      58.407444      0.90658856    -129.10608      653.58751      51.542424    
     20100   40200          304.67532      463.88649      13129.717      11785.769      7300.853       4484.9157      2472.0142      2439.4949      8709.2742      0             -9135.8675      0              0             -292.5942       198652.93      58.348763      58.348763      58.348763      0.90932654     466.22767      300.47144      624.96035    
     20200   40400          301.98149     -309.27454      10687.934      11584.087      7236.3015      4347.7858      2449.6957      2416.4577      8716.5765      0             -9234.9442      0              0             -292.54899      198683.63      58.351769      58.351769      58.351769      0.90918604    -161.50815     -395.67375     -370.64173    
     20300   40600          298.19773      238.15686      12153.154      11464.515      7145.6323      4318.8829      2402.1157      2410.3923      8703.8739      0             -9197.4989      0              0             -293.1622       198268.04      58.311056      58.311056      58.311056      0.91109176     220.14158     -126.89986      621.22887    
     20400   40800          300.98189     -51.201246      11554.136      11702.07       7212.3483      4489.722       2466.986       2441.6145      8787.9953      0             -9206.8737      0              0             -293.39202      198112.73      58.295826      58.295826      58.295826      0.91180601     47.179446      93.58996      -294.37315    
     20500   41000          299.42741      684.8428       13599.689      11618.335      7175.0989      4443.2366      2406.0985      2479.7042      8788.2009      0             -9230.767       0              0             -292.99862      198378.73      58.321906      58.321906      58.321906      0.91058338     686.91791      480.01226      887.59823    
     20600   41200          301.80937      614.21911      13323.884      11543.332      7232.177       4311.1545      2400.5769      2357.9597      8719.7044      0             -9167.0866      0              0             -292.4187       198772.16      58.360434      58.360434      58.360434      0.9087811      647.51461      589.07599      606.06673    
     20700   41400          295.43581     -9.973697       11354.56       11383.504      7079.4491      4304.0551      2388.7999      2397.9926      8718.3322      0             -9201.0696      0              0             -292.10359      198986.58      58.381413      58.381413      58.381413      0.9078018     -98.706535      245.37705     -176.59161    
     20800   41600          299.52949      484.96887      13024.836      11622.762      7177.5448      4445.2169      2393.4735      2460.9426      8782.7724      0             -9191.9715      0              0             -293.21048      198235.39      58.307855      58.307855      58.307855      0.91124181     559.46669      454.62672      440.8132     
[...]
    495000   990000         301.0949       511.61331      12993.096      11520.866      7215.0564      4305.8098      2414.0181      2385.8779      8764.5705      0             -9258.6568      0              0             -294.57975      197313.95      58.217372      58.217372      58.217372      0.91549723     934.88285      492.32301      107.63406    
    495100   990200         303.24474     -36.236874      11489.701      11594.148      7266.5725      4327.5751      2452.8403      2422.032       8738.7424      0             -9286.0397      0              0             -294.09938      197636.24      58.249052      58.249052      58.249052      0.91400434    -382.37213      265.88528      7.7762257    
    495200   990400         295.78349      101.51108      11658.011      11366.08       7087.7804      4278.2997      2421.4477      2410.1032      8743.6955      0             -9296.9467      0              0             -294.76095      197192.66      58.205441      58.205441      58.205441      0.91606036     293.47638     -239.80818      250.86505    
    495300   990600         303.25495      196.33692      12117.13       11551.949      7266.8171      4285.1321      2475.2651      2350.4662      8731.9137      0             -9272.513       0              0             -294.47678      197382.95      58.224157      58.224157      58.224157      0.91517723     411.19681      197.80411     -19.990151    
    495400   990800         301.91427      349.06755      12537.469      11535.14       7234.6908      4300.4488      2467.8147      2374.1449      8773.0869      0             -9314.5976      0              0             -295.21309      196890.64      58.17571       58.17571       58.17571       0.91746555     327.65875     -23.444185      742.98809    
    495500   991000         295.65216      805.23572      13677.494      11360.504      7084.6334      4275.8708      2412.9593      2396.1352      8748.2778      0             -9281.5014      0              0             -294.60187      197299.14      58.215915      58.215915      58.215915      0.91556598     780.88799      746.5829       888.23626    
    495600   991200         300.56955      345.33637      12588.333      11592.416      7202.4676      4389.9487      2430.5369      2445.0276      8787.1259      0             -9272.7416      0              0             -293.93807      197744.7       58.259705      58.259705      58.259705      0.91350303     380.10745     -37.382473      693.28413    
    495700   991400         301.67568      319.2534       12551.883      11631.396      7228.9736      4402.4225      2516.6297      2380.8297      8747.9525      0             -9242.9893      0              0             -294.00488      197699.76      58.255292      58.255292      58.255292      0.91371067    -112.7173       1080.267      -9.7894835    
    495800   991600         299.86553     -25.846159      11349.209      11423.75       7185.5974      4238.1529      2433.04        2352.6674      8715.9083      0             -9263.4627      0              0             -293.92462      197753.75      58.260594      58.260594      58.260594      0.91346121    -329.10631      254.36582     -2.797983     
    495900   991800         305.94898      297.86783      12480.239      11622.297      7331.3733      4290.9237      2418.6357      2418.5179      8701.7413      0             -9247.9711      0              0             -294.30814      197496.05      58.235276      58.235276      58.235276      0.91465311     332.69376      383.47482      177.4349     
    496000   992000         299.18473      849.72452      13966.928      11517.875      7169.2836      4348.5916      2467.2829      2385.3444      8760.8838      0             -9264.9195      0              0             -294.11464      197625.98      58.248044      58.248044      58.248044      0.91405175     1189.1789      614.46455      745.53016    
    496100   992200         300.64482     -227.738        10796.479      11454.303      7204.2713      4250.0318      2428.2256      2405.6232      8684.0921      0             -9267.909       0              0             -293.46884      198060.88      58.290739      58.290739      58.290739      0.91204473    -906.38889     -260.29113      483.46602    
    496200   992400         305.57866     -51.41722       11555.565      11703.634      7322.4996      4381.1347      2495.8724      2409.8049      8738.5474      0             -9263.0901      0              0             -294.36059      197460.86      58.231817      58.231817      58.231817      0.91481613     434.98959     -166.4316      -422.80965    
    496300   992600         300.71965      4.9862139      11552.01       11537.666      7206.0645      4331.6019      2468.421       2378.601       8737.1021      0             -9252.5222      0              0             -294.67663      197249.08      58.210991      58.210991      58.210991      0.91579833    -346.26843      410.33699     -49.10991     
    496400   992800         297.85635     -49.126186      11310.222      11452.364      7137.4518      4314.9124      2454.5184      2375.3751      8717.6029      0             -9232.5839      0              0             -292.97185      198396.86      58.323682      58.323682      58.323682      0.9105002     -71.915972     -275.19835      199.73576    
    496500   993000         299.78735      460.91203      12897.48       11567.933      7183.7238      4384.209       2469.6019      2450.7498      8724.2636      0             -9260.4063      0              0             -293.86693      197792.57      58.264406      58.264406      58.264406      0.91328194     318.87676      630.36531      433.49402    
    496600   993200         301.94833      215.6843       12165.093      11543.298      7235.5068      4307.7911      2455.197       2406.3067      8692.2153      0             -9245.9279      0              0             -294.0408       197675.61      58.25292       58.25292       58.25292       0.91382228     18.665478      615.90016      12.487268    
    496700   993400         296.52665      674.86718      13281.153      11336.772      7105.5887      4231.1832      2424.9197      2373.4772      8700.4574      0             -9267.6711      0              0             -294.22092      197554.6       58.24103       58.24103       58.24103       0.91438206     835.73477      439.50489      749.36189    
    496800   993600         299.97181      252.45235      12251.811      11525.787      7188.1442      4337.6432      2477.7913      2421.8419      8719.7794      0             -9281.7694      0              0             -294.75771      197194.82      58.205654      58.205654      58.205654      0.9160503      286.27454      88.433962      382.64856    
    496900   993800         300.14831      495.99853      12893.734      11462.208      7192.3736      4269.8344      2453.035       2390.9261      8661.6256      0             -9235.7523      0              0             -293.70928      197898.73      58.274829      58.274829      58.274829      0.91279199     191.67331      463.70968      832.6126     
    497000   994000         292.5898       121.68534      11666.427      11314.607      7011.2511      4303.3557      2507.1285      2375.1357      8657.2944      0             -9236.2029      0              0             -293.19327      198247.03      58.308996      58.308996      58.308996      0.91118832     67.900088     -107.11417      404.27009    
    497100   994200         299.51464      76.389525      11764.371      11543.822      7177.1891      4366.6329      2466.2342      2412.7816      8733.8609      0             -9246.2438      0              0             -293.60624      197968.19      58.281645      58.281645      58.281645      0.91247175     421.65067     -130.29033     -62.191762    
    497200   994400         299.52986      530.69421      13047.905      11517.453      7177.5538      4339.8996      2447.7808      2485.7952      8661.1465      0             -9254.8229      0              0             -293.94179      197742.19      58.259459      58.259459      58.259459      0.91351459     676.48699      344.98766      570.60798    
    497300   994600         296.21505      170.96391      11794.233      11302.14       7098.1218      4204.0183      2410.1716      2379.4706      8698.4505      0             -9284.0745      0              0             -294.50615      197363.26      58.222222      58.222222      58.222222      0.91526849     597.47931     -423.96043      339.37287    
    497400   994800         302.69263      591.20819      13205.031      11503.302      7253.3424      4249.96        2424.4722      2386.0602      8747.0713      0             -9307.6437      0              0             -294.50098      197366.73      58.222562      58.222562      58.222562      0.91525245     613.56243      665.45205      494.61008    
    497500   995000         298.99489     -138.85718      11070.665      11471.725      7164.7343      4306.991       2433.9264      2450.1458      8707.7551      0             -9284.8362      0              0             -293.49152      198045.57      58.289238      58.289238      58.289238      0.91211523    -637.46988     -77.27653       298.17486    
    497600   995200         294.23981      579.79419      12986.191      11313.736      7050.7897      4262.9459      2423.5661      2408.6473      8651.3228      0             -9220.5903      0              0             -293.87041      197790.23      58.264176      58.264176      58.264176      0.91329275     557.00936      731.33258      451.04063    
    497700   995400         304.06266      97.022728      11855.306      11575.522      7286.1719      4289.35        2505.3224      2394.0672      8657.7175      0             -9267.757       0              0             -293.95937      197730.37      58.258298      58.258298      58.258298      0.91356921    -512.87815      636.79793      167.14841    
    497800   995600         296.83591      184.09001      11931.173      11401.649      7112.9993      4288.6494      2453.4198      2381.9979      8726.643       0             -9273.4112      0              0             -294.70061      197233.03      58.209413      58.209413      58.209413      0.91587285     187.847       -235.60674      600.02977    
    497900   995800         299.40134      256.81291      12105.608      11367.331      7174.474       4192.8574      2393.1212      2368.141       8726.5347      0             -9294.9396      0              0             -294.87265      197117.96      58.19809       58.19809       58.19809       0.91640752     257.36298      515.08785     -2.0120938    
    498000   996000         301.15531      164.98865      12007.78       11534.759      7216.504       4318.2547      2451.7705      2441.3094      8715.5308      0             -9290.356       0              0             -295.67189      196585.12      58.145603      58.145603      58.145603      0.91889141     346.66184     -76.255269      224.55939    
    498100   996200         294.06835      332.78289      12288.088      11332.732      7046.6811      4286.0508      2435.5771      2448.3762      8705.981       0             -9303.8834      0              0             -295.27868      196846.91      58.171402      58.171402      58.171402      0.91766937     671.4996       560.47425     -233.62519    
    498200   996400         300.81202     -22.05097       11426.625      11490.143      7208.2778      4281.8656      2444.3178      2433.9756      8683.2156      0             -9279.6434      0              0             -294.2844       197511.98      58.236842      58.236842      58.236842      0.91457933     234.15605      16.364407     -316.67337    
    498300   996600         303.94068      412.02987      12735.32       11547.925      7283.2491      4264.6764      2423.9569      2391.1234      8692.2547      0             -9242.6586      0              0             -294.15086      197601.65      58.245653      58.245653      58.245653      0.91416433     320.14417      120.49943      795.44602    
    498400   996800         299.77924      711.70071      13510.01       11459.207      7183.5295      4275.6778      2436.9747      2404.8218      8699.2545      0             -9265.3732      0              0             -294.178        197583.42      58.243862      58.243862      58.243862      0.91424869     345.45916      1057.5868      732.05612    
    498500   997000         295.52684      213.34756      11891.532      11277.655      7081.6304      4196.0242      2430.2536      2401.0478      8641.505       0             -9276.7821      0              0             -294.60651      197296.03      58.215609      58.215609      58.215609      0.91558041     182.23098     -19.122346      476.93404    
    498600   997200         301.5389       353.44835      12459.473      11443.082      7225.6958      4217.386       2434.8734      2363.2539      8709.5059      0             -9290.2472      0              0             -294.78245      197178.27      58.204025      58.204025      58.204025      0.91612719     573.90913      633.67935     -147.24343    
    498700   997400         303.68833      296.78391      12375.744      11522.373      7277.202       4245.1714      2399.3867      2422.2139      8739.5284      0             -9315.9576      0              0             -294.80802      197161.17      58.202342      58.202342      58.202342      0.91620666     408.07652     -206.02173      688.29695    
    498800   997600         294.98233      73.716122      11536.921      11325.375      7068.5825      4256.7925      2424.8645      2407.7978      8750.9869      0             -9326.8568      0              0             -295.38925      196773.22      58.164143      58.164143      58.164143      0.918013      -191.47157      76.793106      335.82683    
    498900   997800         304.03073      656.76542      13415.914      11538.699      7285.407       4253.2921      2475.8148      2454.4544      8666.7097      0             -9343.6867      0              0             -296.57392      195987.21      58.086593      58.086593      58.086593      0.92169475     895.39823      806.46712      268.43092    
    499000   998000         298.74123      556.95111      13033.023      11437.014      7158.6559      4278.3583      2407.1236      2478.9022      8715.0581      0             -9322.7256      0              0             -295.81372      196490.87      58.136309      58.136309      58.136309      0.91933218     553.30672      517.14772      600.39889    
    499100   998200         300.38088      264.89885      12207.916      11443.002      7197.9465      4245.0553      2426.3756      2348.5421      8758.0545      0             -9287.9169      0              0             -293.56464      197996.24      58.284398      58.284398      58.284398      0.91234247     626.54174      187.31097     -19.156152    
    499200   998400         299.87468      283.75083      12400.212      11584.704      7185.8165      4398.8876      2481.3135      2472.0587      8723.7281      0             -9278.2127      0              0             -294.94811      197067.53      58.193126      58.193126      58.193126      0.91664202     212.66683      201.17154      437.41411    
    499300   998600         302.58589      549.60247      13013.822      11437.275      7250.7845      4186.4907      2407.0555      2434.2195      8680.4997      0             -9335.284       0              0             -295.51418      196690.03      58.155945      58.155945      58.155945      0.91840128     1141.6314      524.25858     -17.082601    
    499400   998800         305.50148      548.26065      13051.476      11481.233      7320.6502      4160.5826      2397.0093      2370.2415      8718.4962      0             -9325.1644      0              0             -295.97621      196382.99      58.125668      58.125668      58.125668      0.91983718     251.92936      597.08224      795.77036    
    499500   999000         298.50017      292.49704      12382.292      11544.06       7152.8795      4391.1809      2542.289       2439.8353      8760.2143      0             -9351.1577      0              0             -295.79704      196501.95      58.137402      58.137402      58.137402      0.91928033     55.280265      481.215        340.99586    
    499600   999200         296.43819      30.507777      11424.516      11337.231      7103.4688      4233.7625      2470.0188      2415.9566      8699.2473      0             -9351.4602      0              0             -296.28494      196178.37      58.105473      58.105473      58.105473      0.92079663     249.37058      36.578231     -194.42548    
    499700   999400         302.98906      261.88944      12227.639      11477.493      7260.4456      4217.0474      2412.734       2458.4805      8677.4586      0             -9331.6256      0              0             -295.94353      196404.68      58.127808      58.127808      58.127808      0.9197356      599.20341     -68.113949      254.57885    
    499800   999600         300.71293     -173.0846       11051.004      11549.927      7205.9033      4344.0237      2398.4601      2454.6754      8771.2315      0             -9280.3433      0              0             -294.07718      197651.16      58.250517      58.250517      58.250517      0.91393534     57.755902     -196.72264     -380.28705    
    499900   999800         299.83087     -196.95226      10877.409      11445.846      7184.7667      4261.0792      2442.6571      2454.0819      8647.253       0             -9282.9128      0              0             -293.70772      197899.79      58.274932      58.274932      58.274932      0.91278712    -797.47937      150.34458      56.277994    
    500000   1000000        294.81046      202.92861      11815.809      11232.241      7064.4639      4167.7766      2367.0373      2438.1113      8703.7097      0             -9341.0817      0              0             -294.77309      197184.54      58.204641      58.204641      58.204641      0.91609809     129.63081      278.87641      200.2786     
Loop time of 967.013 on 1 procs for 500000 steps with 8040 atoms

Performance: 89.347 ns/day, 0.269 hours/ns, 517.056 timesteps/s, 4.157 Matom-step/s
99.5% CPU use with 1 MPI tasks x 1 OpenMP threads

MPI task timing breakdown:
Section |  min time  |  avg time  |  max time  |%varavg| %total
---------------------------------------------------------------
Pair    | 190.89     | 190.89     | 190.89     |   0.0 | 19.74
Bond    | 608.2      | 608.2      | 608.2      |   0.0 | 62.89
Neigh   | 0.28054    | 0.28054    | 0.28054    |   0.0 |  0.03
Comm    | 55.202     | 55.202     | 55.202     |   0.0 |  5.71
Output  | 8.7575     | 8.7575     | 8.7575     |   0.0 |  0.91
Modify  | 79.693     | 79.693     | 79.693     |   0.0 |  8.24
Other   |            | 23.99      |            |       |  2.48

Nlocal:           8040 ave        8040 max        8040 min
Histogram: 1 0 0 0 0 0 0 0 0 0
Nghost:          21857 ave       21857 max       21857 min
Histogram: 1 0 0 0 0 0 0 0 0 0
Neighs:              0 ave           0 max           0 min
Histogram: 1 0 0 0 0 0 0 0 0 0

Total # of neighbors = 0
Ave neighs/atom = 0
Ave special neighs/atom = 5.9701493
Neighbor list builds = 13479
Dangerous builds = 0

# --- Cleanup ---
unfix npt_fix

undump dump_npt

# --- Write Output ---
write_dump all custom /home/arz2/PolyJarvis/data/cis-PBD2/lammps/mechanical/bm_series/bm_P300/bm_P300_last.dump id type mol x y z xu yu zu vx vy vz modify sort id
write_data /home/arz2/PolyJarvis/data/cis-PBD2/lammps/mechanical/bm_series/bm_P300/bm_P300_out.data
System init for write_data ...
Generated 3 of 3 mixed pair_coeff terms from arithmetic mixing rule

print "STAGE COMPLETE: NPT T=300.0->300.0K P=300.0->300.0atm steps=500000"
STAGE COMPLETE: NPT T=300.0->300.0K P=300.0->300.0atm steps=500000
quit
