units real
atom_style full
boundary p p p

# --- Force Field (injected via PAIR_STYLE_BLOCK) ---
pair_style lj/cut 14.0
dielectric 1.000000
bond_style harmonic
angle_style harmonic
dihedral_style multi/harmonic
improper_style none
special_bonds lj 0 0 0
pair_modify mix arithmetic tail yes
neighbor 2.0 bin
neigh_modify delay 0 every 1 check yes
neigh_modify one 4000
# KOKKOS: package loaded via -pk kokkos on the command line

read_data /home/arz2/PolyJarvis/data/PE3/lammps/nvt_softheat/nvt_softheat_out.data
Reading data file ...
  orthogonal box = (0 0 0) to (55.778372 55.778372 55.778372)
  2 by 2 by 2 MPI processor grid
  reading atoms ...
  4840 atoms
  reading velocities ...
  4840 velocities
  scanning bonds ...
  2 = max bonds/atom
  scanning angles ...
  1 = max angles/atom
  scanning dihedrals ...
  2 = max dihedrals/atom
  orthogonal box = (0 0 0) to (55.778372 55.778372 55.778372)
  2 by 2 by 2 MPI processor grid
  reading bonds ...
  4820 bonds
  reading angles ...
  4800 angles
  reading dihedrals ...
  4780 dihedrals
Finding 1-2 1-3 1-4 neighbors ...
  special bond factors lj:    0        0        0       
  special bond factors coul:  0        0        0       
     2 = max # of 1-2 neighbors
     2 = max # of 1-3 neighbors
     4 = max # of 1-4 neighbors
     6 = max # of special neighbors
  special bonds CPU = 0.001 seconds
  read_data CPU = 0.075 seconds
include /home/arz2/PolyJarvis/data/PE3/lammps/cell/emc_build.params
# LAMMPS parameters created by EMC v9.4.4, build Jul 31 2025 20:33:44

# Variables

variable	seed		index	1007
variable	ntotal		index	4840
variable	fshape		index	1
variable	output		index	emc_build
variable	field		index	trappe/2014/trappe-ua
variable	location1	index	/home/arz2/emc/field/
variable	nav		index	0.6022141179
variable	temperature	index	300
variable	radius		index	5
variable	nrelax		index	100
variable	weight_nonbond	index	0.0001
variable	weight_bond	index	0.0001
variable	weight_focus	index	1
variable	cutoff		index	14
variable	charge_cutoff	index	14
variable	kappa		index	4
variable	density1	index	0.65
variable	lprevious	index	0
variable	lphase		index	55.7783720511
variable	f_poly		index	20
variable	chem_repeat	index	*CC*
variable	chem_cap	index	*C
variable	lg_repeat	index	2
variable	lg_cap		index	1
variable	norm_poly	index	100
variable	l_poly		index	242
variable	mg_repeat	index	28.0536
variable	mg_cap		index	15.0347
variable	m_poly		index	3396.5014
variable	n_poly		index	20
variable	mtotal		index	67930.028
variable	nphase1		index	4840
variable	mphase1		index	67930.028
variable	vphase1		index	173539.165354
variable	lbox		index	55.7783720511
variable	lphase1		index	55.7783720511
variable	lxx		index	55.7783720511
variable	lyy		index	55.7783720511
variable	lzz		index	55.7783720511
variable	lzy		index	0
variable	lzx		index	0
variable	lyx		index	0
variable	vtotal		index	173539.165354
variable	nl_poly		index	20

# Types

variable	type_c4h2	index	1
variable	type_c4h3	index	2

variable	type_bond_c4h2_c4h2 index	1
variable	type_bond_c4h2_c4h3 index	2

variable	type_angle_c4h2_c4h2_c4h2 index	1
variable	type_angle_c4h2_c4h2_c4h3 index	2

# Clusters

variable	n0_poly		index	1
variable	n1_poly		index	20
variable	nl_poly		index	20

# Flags

variable	flag_charged	index	0

# Masses

mass		1    14.02680  # c4h2
mass		2    15.03470  # c4h3

# Potentials

pair_modify	mix arithmetic tail yes
special_bonds	lj 0 0 0 coul 0 0 0.5
Finding 1-2 1-3 1-4 neighbors ...
  special bond factors lj:    0        0        0       
  special bond factors coul:  0        0        0.5     
     2 = max # of 1-2 neighbors
     2 = max # of 1-3 neighbors
     4 = max # of 1-4 neighbors
     6 = max # of special neighbors
  special bonds CPU = 0.001 seconds

# Pair Coeffs

pair_coeff	1 1    0.09141    3.95000  # c4h2,c4h2
pair_coeff	2 2    0.19475    3.75000  # c4h3,c4h3

# Bond Coeffs

bond_coeff	1  260.00013    1.54000  # c4h2,c4h2
bond_coeff	2  260.00013    1.54000  # c4h2,c4h3

# Angle Coeffs

angle_coeff	1   62.10020  114.00000  # c4h2,c4h2,c4h2
angle_coeff	2   62.10020  114.00000  # c4h2,c4h2,c4h3

# Dihedral Coeffs

dihedral_coeff	1    2.00702   -4.01203    0.27102    6.29006    0.00000  # c4h2,c4h2,c4h2,c4h2
dihedral_coeff	2    2.00702   -4.01203    0.27102    6.29006    0.00000  # c4h2,c4h2,c4h2,c4h3


# --- Thermo Output ---
thermo_style custom step time temp press enthalpy etotal ke pe ebond eangle edihed eimp evdwl ecoul vol lx ly lz density pxx pyy pzz
thermo_modify flush yes
thermo 1000

# --- Trajectory ---
dump dump_comp all custom 2000 npt_compress.dump id type mol x y z ix iy iz vx vy vz

restart 10000 compress_1.rst compress_2.rst
velocity all create 600.0 1008 mom yes rot yes dist gaussian
# SHAKE disabled (TraPPE-UA united-atom)

# --- NPT Compression ---
# High pressure compresses the cell from low to target density
# P ramp: 1.0 -> 50000.0 atm
timestep 0.5
fix npt_comp all npt temp 620.0 620.0 100.0 iso 1.0 50000.0 1000.0

run 300000
Generated 1 of 1 mixed pair_coeff terms from arithmetic mixing rule
Neighbor list info ...
  update: every = 1 steps, delay = 0 steps, check = yes
  max neighbors/atom: 4000, page size: 100000
  master list distance cutoff = 16
  ghost atom cutoff = 16
  binsize = 8, bins = 7 7 7
  1 neighbor lists, perpetual/occasional/extra = 1 0 0
  (1) pair lj/cut, perpetual
      attributes: half, newton on
      pair build: half/bin/newton
      stencil: half/bin/3d
      bin: standard
Per MPI rank memory allocation (min/avg/max) = 8.24 | 8.241 | 8.242 Mbytes
   Step          Time           Temp          Press         Enthalpy        TotEng         KinEng         PotEng         E_bond        E_angle        E_dihed        E_impro         E_vdwl         E_coul         Volume           Lx             Ly             Lz          Density          Pxx            Pyy            Pzz      
         0   0              600           -605.9048       14178.549      15712.028      8654.4839      7057.544       3015.2699      2862.2754      4946.5297      0             -3766.5309      0              173539.17      55.778372      55.778372      55.778372      0.64999999    -208.90386     -792.14737     -816.66316    
      1000   500            618.22597     -289.9647       15117.513      15835.626      8917.3778      6918.2483      2960.387       2935.4657      4931.4508      0             -3909.0552      0              169813.42      55.376309      55.376309      55.376309      0.66426112    -1124.2735      126.95323      127.42622    
      2000   1000           618.94161      702.63705      17626.359      15934.042      8927.7003      7006.3413      2907.6459      2965.0766      5102.5303      0             -3968.9115      0              165148.55      54.864521      54.864521      54.864521      0.68302419     936.35669      353.47744      818.07702    
      3000   1500           623.71037      585.51672      17393.38       16016.516      8996.4856      7020.0305      2958.5921      2971.5958      5144.5741      0             -4054.7315      0              161241.07      54.428357      54.428357      54.428357      0.69957645     1073.4377      468.82806      214.2844     
      4000   2000           617.46771      1017.5897      18026.719      15704.974      8906.4406      6798.5336      2826.2464      3025.6511      5124.827       0             -4178.1908      0              156446.53      53.883439      53.883439      53.883439      0.72101604     1.4410272      1239.9639      1811.3641    
      5000   2500           624.69069      1310.6314      18778.443      15821.805      9010.6259      6811.1789      2903.2413      2977.3267      5183.2427      0             -4252.6318      0              154682.69      53.680173      53.680173      53.680173      0.72923774     840.02786      1663.5982      1428.2681    
      6000   3000           617.25623      1667.9488      19260.517      15575.61       8903.3902      6672.2197      2867.8689      2917.1547      5164.9349      0             -4277.7388      0              151484.41      53.307622      53.307622      53.307622      0.7446341      1805.7236      1238.8377      1959.2852    
      7000   3500           614.7833       1543.2649      18857.612      15487.428      8867.7203      6619.7079      2790.6672      3042.2327      5192.0876      0             -4405.2796      0              149739.78      53.102186      53.102186      53.102186      0.75330988     2042.5736      844.59968      1742.6213    
      8000   4000           620.8283       1167.1937      18010.842      15519.94       8954.9143      6565.0256      2858.598       2939.7127      5239.365       0             -4472.6501      0              146331.49      52.696196      52.696196      52.696196      0.77085563     1700.2048      1099.2349      702.14149    
      9000   4500           618.73675      1388.7217      18136.957      15220.64       8924.7454      6295.8944      2788.1147      2940.7829      5133.3983      0             -4566.4014      0              143993.76      52.41407       52.41407       52.41407       0.78337045     733.74063      2137.0669      1295.3574    
     10000   5000           619.01427      1449.4962      18358.189      15342.061      8928.7484      6413.313       2821.4975      2901.0441      5280.6673      0             -4589.8959      0              142677.9       52.253923      52.253923      52.253923      0.79059514     1622.3804      1605.4558      1120.6524    
     11000   5500           609.59873      2617.2343      20512.117      15162.761      8792.9373      6369.8236      2843.1768      2952.7694      5248.8594      0             -4674.982       0              140146.75      51.943077      51.943077      51.943077      0.80487387     3181.9653      1742.0254      2927.712     
     12000   6000           620.85689      2132.8676      19615.683      15288.218      8955.3265      6332.8916      2891.5334      2880.7148      5227.7942      0             -4667.1508      0              139121.35      51.816085      51.816085      51.816085      0.8108062      1993.1798      1838.6867      2566.7363    
     13000   6500           619.94875      2140.2162      19544.014      15257.54       8942.2274      6315.313       2881.038       3004.0966      5122.2         0             -4692.0216      0              137330.37      51.592772      51.592772      51.592772      0.82138028     2163.3972      2755.7784      1501.4731    
     14000   7000           624.86588      1482.5597      18352.431      15424.76       9013.1528      6411.6067      2881.8305      2992.0621      5323.0501      0             -4785.3361      0              135404.89      51.350512      51.350512      51.350512      0.83306044     2127.309       1344.4683      975.9017     
     15000   7500           611.23212      2575.0759      19912.3        14909.124      8816.4975      6092.6267      2747.4501      3009.6123      5219.1029      0             -4883.5386      0              133223.2       51.073226      51.073226      51.073226      0.84670276     3243.9808      2215.9218      2265.3251    
     16000   8000           610.25079      2470.6232      19830.74       15033.782      8802.3427      6231.4396      2849.5969      3062.4887      5201.5468      0             -4882.1928      0              133132.3       51.061607      51.061607      51.061607      0.84728088     1963.9073      2426.9171      3021.0451    
     17000   8500           617.30214      2181.8284      19263.181      15033.512      8904.0524      6129.4599      2897.4557      3034.1469      5105.2312      0             -4907.3739      0              132925.99      51.035217      51.035217      51.035217      0.84859595     2197.9271      2941.3419      1406.2162    
     18000   9000           616.43387      3221.1672      21060.62       14925.664      8891.5283      6034.1352      2842.334       3051.5172      5075.669       0             -4935.3849      0              130593.74      50.734975      50.734975      50.734975      0.86375088     3881.3863      3080.7916      2701.3238    
     19000   9500           627.12627      2348.1017      19653.131      15176.388      9045.757       6130.6308      2932.2699      2899.1413      5238.7753      0             -4939.5557      0              130728.23      50.752386      50.752386      50.752386      0.86286224     1785.9956      2507.0277      2751.2819    
     20000   10000          621.17866      2607.1037      19957.096      15002.678      8959.9678      6042.7104      2810.045       3038.6849      5178.1735      0             -4984.1929      0              130304.21      50.697454      50.697454      50.697454      0.86567006     1581.1274      2993.3118      3246.8719    
     21000   10500          630.88557      3240.4262      21073.094      14995.344      9099.9816      5895.3625      2976.0219      2860.9275      5088.9051      0             -5030.4919      0              128607.06      50.476388      50.476388      50.476388      0.8770938      2991.565       3012.2763      3717.4374    
     22000   11000          615.42147      3580.6274      21540.126      14841.996      8876.9253      5965.0708      2916.9286      2959.9443      5088.9184      0             -5000.7206      0              128268.07      50.431999      50.431999      50.431999      0.87941184     4251.689       3626.7321      2863.4611    
     23000   11500          611.88582      3467.8406      21413.97       14935.782      8825.9266      6109.8557      2864.9204      2951.519       5263.3954      0             -4969.9791      0              128090.96      50.408777      50.408777      50.408777      0.88062773     3555.6855      4027.9463      2819.8899    
     24000   12000          616.50387      4276.6567      23096.11       15152.287      8892.538       6259.749       2967.4665      3002.0844      5234.247       0             -4944.049       0              127364.77      50.313334      50.313334      50.313334      0.88564883     4849.4978      3267.9879      4712.4844    
     25000   12500          620.34485      3899.6685      22215.141      14978.716      8947.9409      6030.7752      2845.1696      3006.9107      5176.8246      0             -4998.1298      0              127239.07      50.296778      50.296778      50.296778      0.8865237      3572.1113      3751.726       4375.168     
     26000   13000          636.04328      3987.3658      22484.989      15183.251      9174.3772      6008.8734      2867.0173      3043.1017      5130.3722      0             -5031.6178      0              125563.75      50.075054      50.075054      50.075054      0.89835208     3884.1228      3843.6855      4234.2891    
     27000   13500          618.64169      4815.3853      23594.508      14827.189      8923.3743      5903.8152      2903.5607      3002.7869      5099.923       0             -5102.4554      0              124841.76      49.978892      49.978892      49.978892      0.90354749     4689.6692      4037.5362      5718.9505    
     28000   14000          619.5724       3809.2672      21748.33       14802.876      8936.799       5866.077       2820.8981      2954.454       5112.1594      0             -5021.4346      0              125021.09      50.002812      50.002812      50.002812      0.90225139     3872.9528      3178.8279      4376.0209    
     29000   14500          615.64083      4837.2294      23513.701      14768.923      8880.0894      5888.8331      2871.2241      2944.372       5180.0888      0             -5106.8518      0              123958.48      49.860743      49.860743      49.860743      0.90998581     4988.4982      4822.9235      4700.2664    
     30000   15000          614.69329      3972.0215      21772.835      14590.195      8866.422       5723.773       2851.0646      2933.3396      5060.925       0             -5121.5563      0              123992.84      49.865349      49.865349      49.865349      0.90973364     4593.6916      3407.7193      3914.6537    
     31000   15500          611.57308      5435.1791      24470.289      14736.048      8821.4156      5914.632       2914.9581      2950.1223      5154.0507      0             -5104.4991      0              122803.96      49.705463      49.705463      49.705463      0.91854086     5657.4717      5997.9527      4650.1128    
     32000   16000          631.37883      4925.5565      24058.686      15178.204      9107.0965      6071.1074      2883.5356      3101.9867      5143.3936      0             -5057.8086      0              123624.73      49.815954      49.815954      49.815954      0.91244246     5206.4095      4459.8188      5110.4411    
     33000   16500          610.36157      5222.125       23860.872      14611.336      8803.9406      5807.3957      2731.6255      3056.2258      5125.034       0             -5105.4896      0              121449.79      49.522085      49.522085      49.522085      0.92878264     4997.9254      5464.9042      5203.5455    
     34000   17000          627.41923      5672.6068      25127.563      15046.549      9049.9828      5996.5667      2880.3434      3042.0448      5214.6292      0             -5140.4507      0              121855.63      49.577186      49.577186      49.577186      0.92568929     5831.9037      5953.9733      5231.9434    
     35000   17500          622.02031      6906.8021      27076.007      14962.943      8972.108       5990.8354      2922.1416      2969.6636      5142.6665      0             -5043.6363      0              120254.44      49.359078      49.359078      49.359078      0.9380149      6410.7713      6746.8695      7562.7654    
     36000   18000          616.23747      5271.9325      24269.45       14928.754      8888.6954      6040.0587      2892.1898      3021.8444      5190.9127      0             -5064.8882      0              121488.03      49.527283      49.527283      49.527283      0.92849026     4506.5595      6262.0297      5047.2083    
     37000   18500          622.6384       6256.0297      25829.749      14887.399      8981.0233      5906.3752      2864.1738      3023.7122      5166.695       0             -5148.2059      0              119932.23      49.314955      49.314955      49.314955      0.94053495     6066.4104      6248.4635      6453.2151    
     38000   19000          611.87698      4973.7473      23523.029      14793.989      8825.7991      5968.19        2870.6821      2978.1864      5316.8597      0             -5197.5382      0              120339.13      49.370662      49.370662      49.370662      0.93735476     4094.0051      5434.0696      5393.1671    
     39000   19500          607.12224      6714.11        26362.001      14680.185      8757.2161      5922.9692      2876.9838      2982.746       5247.7862      0             -5184.5468      0              119301.53      49.228357      49.228357      49.228357      0.94550719     7193.9955      6455.9529      6492.3817    
     40000   20000          618.72247      6979.7099      26798.453      14664.032      8924.5395      5739.4921      2884.3851      2916.2489      5109.1609      0             -5170.3028      0              119208.11      49.215504      49.215504      49.215504      0.94624816     7821.0483      5983.8736      7134.2078    
     41000   20500          622.42497      7152.6562      27233.926      14856.368      8977.9448      5878.423       2849.8713      2914.0872      5256.4623      0             -5141.9977      0              118656.55      49.139482      49.139482      49.139482      0.95064666     7208.8561      7155.4203      7093.6922    
     42000   21000          615.30626      6939.6592      26827.251      14816.918      8875.2636      5941.6544      2973.5007      2900.9257      5179.6907      0             -5112.4627      0              118670.02      49.141342      49.141342      49.141342      0.95053874     8140.8313      6057.5026      6620.6437    
     43000   21500          607.89291      6896.873       26657.593      14728.697      8768.3323      5960.3648      2970.9583      2994.5554      5167.521       0             -5172.6699      0              118596.57      49.1312        49.1312        49.1312        0.95112749     7120.1958      6214.3286      7356.0945    
     44000   22000          612.3543       7330.6038      27286.092      14731.782      8832.6841      5899.0978      2901.3906      3027.6802      5084.3366      0             -5114.3096      0              117429.5       48.969508      48.969508      48.969508      0.96058018     7107.671       7511.4693      7372.671     
     45000   22500          614.90304      6970.3126      26612.768      14636.737      8869.4474      5767.2893      2819.2612      3021.5343      5136.0096      0             -5209.5158      0              117810.71      49.02244       49.02244       49.02244       0.95747201     7609.8507      6289.2759      7011.8113    
     46000   23000          632.7194       7056.2745      26939.442      14886.496      9126.433       5760.0631      2793.9228      2987.778       5156.4712      0             -5178.1089      0              117122.91      48.926853      48.926853      48.926853      0.96309475     6203.1408      7910.4217      7055.2611    
     47000   23500          625.19409      7051.0987      26918.715      14891.287      9017.887       5873.4         2909.5344      3004.2715      5099.1297      0             -5139.5356      0              116960.73      48.90426       48.90426       48.90426       0.96443017     6560.9832      7824.0839      6768.2291    
     48000   24000          620.2737       8471.1944      29136.102      14737.006      8946.9146      5790.0919      2906.0529      2906.6174      5134.8684      0             -5157.4468      0              116550.64      48.847037      48.847037      48.847037      0.96782354     9015.1029      8346.8307      8051.6495    
     49000   24500          617.58409      8652.3603      29559.34       14808.824      8908.1193      5900.7044      2931.454       2981.7992      5120.9269      0             -5133.4757      0              116895.22      48.895127      48.895127      48.895127      0.96497065     9076.4789      8393.2157      8487.3862    
     50000   25000          623.48889      8954.9185      30227.522      15076.518      8993.2909      6083.2271      2937.1017      2971.6235      5284.682       0             -5110.1801      0              116012.26      48.771707      48.771707      48.771707      0.97231499     9548.0649      8723.3245      8593.3663    
     51000   25500          609.95225      7755.1978      27664.13       14643.588      8798.0366      5845.5514      2897.8651      2942.4332      5204.7597      0             -5199.5066      0              115122.52      48.646705      48.646705      48.646705      0.97982962     7732.4863      7389.0562      8144.0508    
     52000   26000          622.01738      8060.3365      28380.589      14857.012      8972.0656      5884.9465      2780.2879      3031.6658      5166.6014      0             -5093.6086      0              115043.61      48.635588      48.635588      48.635588      0.98050167     7983.7838      8207.0158      7990.2099    
     53000   26500          616.8911       7736.1529      27963.437      15012.831      8898.1234      6114.7078      2951.2723      3022.4502      5304.3931      0             -5163.4079      0              114786.06      48.599266      48.599266      48.599266      0.98270172     7704.5987      8028.5277      7475.3323    
     54000   27000          616.36824      8947.1679      29869.004      14911.029      8890.5817      6020.4469      2904.5536      3129.0302      5210.3933      0             -5223.5301      0              114633.44      48.577718      48.577718      48.577718      0.98401001     8794.5784      8803.5192      9243.4061    
     55000   27500          630.34326      8765.3157      29656.83       15044.98       9092.1593      5952.8208      2896.5929      3111.3306      5113.4965      0             -5168.5992      0              114304.09      48.531151      48.531151      48.531151      0.98684533     8651.0588      7875.9762      9768.9122    
     56000   28000          621.74104      8756.9279      29290.393      14769.878      8968.0796      5801.7986      2897.0832      3067.5594      5038.7478      0             -5201.5917      0              113698.4       48.445277      48.445277      48.445277      0.99210243     8438.3407      8994.9795      8837.4635    
     57000   28500          622.19304      8376.5736      28891.077      14915.049      8974.5994      5940.4495      2991.3683      3067.308       5115.5543      0             -5233.7812      0              114404.07      48.545296      48.545296      48.545296      0.98598291     8314.9278      7812.6434      9002.1495    
     58000   29000          616.73255      11134.718      33203.248      14796.086      8895.8365      5900.2495      2888.5567      3055.8548      5107.6803      0             -5151.8424      0              113352.66      48.396122      48.396122      48.396122      0.99512848     11253.588      10122.049      12028.519    
     59000   29500          627.25344      9342.5715      30297.383      14907.836      9047.5913      5860.2443      2897.6212      3010.5669      5022.0493      0             -5069.9931      0              112949.29      48.338649      48.338649      48.338649      0.99868227     11004.089      8941.881       8081.7444    
     60000   30000          629.74689      9707.1127      31088.8        15067.246      9083.5572      5983.6886      3069.3286      2994.717       5075.9747      0             -5156.3318      0              113171.92      48.370387      48.370387      48.370387      0.99671768     9501.9494      10192.998      9426.3909    
     61000   30500          621.9232       9445.6739      30648.629      15109.173      8970.7073      6138.4655      2996.779       3165.9711      5085.7366      0             -5110.0211      0              112804.64      48.318005      48.318005      48.318005      0.99996287     9698.3875      9924.6425      8713.9917    
     62000   31000          610.64315      11498.447      33463.679      14766.385      8808.0022      5958.3832      2902.8507      3026.8304      5169.3967      0             -5140.6946      0              111497.13      48.130594      48.130594      48.130594      1.0116893      12388.012      10909.722      11197.607    
     63000   31500          615.30571      10662.953      32563.781      15044.556      8875.2556      6169.3003      3017.4886      3067.9619      5132.3787      0             -5048.5289      0              112657.87      48.29704       48.29704       48.29704       1.0012656      10780.968      11631.433      9576.4568    
     64000   32000          619.07467      11223.296      33340.702      15025.274      8929.6196      6095.6545      2971.4717      3119.9181      5088.5526      0             -5084.2878      0              111897.6       48.18815       48.18815       48.18815       1.0080686      10901.801      11636.587      11131.501    
     65000   32500          630.54317      11532.587      33768.155      15022.305      9095.0429      5927.2619      2927.1354      2944.5835      5084.8206      0             -5029.2775      0              111455.76      48.124641      48.124641      48.124641      1.0120648      12134.729      11660.882      10802.15     
     66000   33000          617.64511      9758.4739      30964.919      15066.922      8908.9995      6157.9225      2993.5606      3057.7305      5154.7439      0             -5048.1125      0              111708.09      48.160931      48.160931      48.160931      1.0097788      8884.8895      9632.4863      10758.046    
     67000   33500          596.51767      11460.594      33201.394      14765.61       8604.2542      6161.3561      2896.338       3115.2948      5179.3805      0             -5029.6573      0              110300.79      47.957831      47.957831      47.957831      1.0226623      11234.836      11486.853      11660.092    
     68000   34000          615.6994       10947.073      32708.366      14916.029      8880.9342      6035.0945      2960.217       3023.3189      5191.3115      0             -5139.7529      0              111444.62      48.123038      48.123038      48.123038      1.012166       11314.59       10537.64       10988.99     
     69000   34500          632.81335      10962.055      32802.759      15078.286      9127.7883      5950.4973      2872.1022      2992.4116      5149.5717      0             -5063.5882      0              110867.81      48.039869      48.039869      48.039869      1.017432       11185.539      11714.769      9985.8584    
     70000   35000          624.76205      11995.953      34531.369      15209.067      9011.6552      6197.412       2984.8928      3003.5913      5271.8864      0             -5062.9586      0              110445.55      47.978803      47.978803      47.978803      1.0213219      11513.293      11851.351      12623.215    
     71000   35500          615.01253      11664.745      33914.286      15135.493      8871.0268      6264.4658      3008.3867      3010.131       5283.5295      0             -5037.5814      0              110386.65      47.970272      47.970272      47.970272      1.0218669      11862.8        11915.037      11216.398    
     72000   36000          619.64442      12045.997      34287.736      15028.51       8937.8377      6090.6718      2909.131       3055.0606      5161.8448      0             -5035.3646      0              109627.67      47.860077      47.860077      47.860077      1.0289415      12429.87       11692.094      12016.028    
     73000   36500          624.66475      11578.876      33444.1        14823.729      9010.2517      5813.4775      2888.491       2957.943       5112.1351      0             -5145.0915      0              110267.12      47.952952      47.952952      47.952952      1.0229745      11571.12       11466.843      11698.665    
     74000   37000          618.65374      12597.477      35138.327      15058.915      8923.548       6135.3672      2885.2931      3084.9919      5233.5828      0             -5068.5006      0              109292.8       47.811296      47.811296      47.811296      1.0320941      12587.173      13084.926      12120.33     
     75000   37500          608.5592       12193.43       34201.181      14771.262      8777.943       5993.3186      2958.6692      2982.38        5148.8953      0             -5096.6259      0              109262.02      47.806808      47.806808      47.806808      1.0323848      10695.307      13042.231      12842.75     
     76000   38000          610.09315      12766.896      35266.873      14960.038      8800.0689      6159.9689      2963.5626      3073.1719      5134.4179      0             -5011.1835      0              109063.91      47.777896      47.777896      47.777896      1.0342602      13086.389      13328.262      11886.036    
     77000   38500          612.12224      11659.167      33640.375      15023.424      8829.3368      6194.0871      2966.4962      3049.8787      5208.7498      0             -5031.0376      0              109487.65      47.839693      47.839693      47.839693      1.0302573      11345.202      11777.198      11855.099    
     78000   39000          622.98756      13849.562      37233.807      15202.204      8986.0597      6216.1448      3035.3232      2999.1316      5206.1109      0             -5024.421       0              109077.25      47.779843      47.779843      47.779843      1.0341337      13672.458      14981.618      12894.61     
     79000   39500          625.56688      12443.576      35009.879      15273.532      9023.2642      6250.2681      2954.3997      3003.0924      5231.7195      0             -4938.9434      0              108754.11      47.732615      47.732615      47.732615      1.0372063      11786.35       13175.607      12368.77     
     80000   40000          623.73436      13304.474      36301.286      15214.307      8996.8316      6217.4754      2967.6467      3079.4374      5114.6909      0             -4944.2997      0              108677.79      47.721446      47.721446      47.721446      1.0379348      13154.024      13879.216      12880.182    
     81000   40500          611.31346      14372.86       37660.257      15005.352      8817.6708      6187.6816      2925.8642      3080.3997      5158.2497      0             -4976.832       0              108079.45      47.633707      47.633707      47.633707      1.0436809      14773.028      12300.654      16044.899    
     82000   41000          621.40056      13365.642      36046.712      15022.673      8963.1686      6059.5042      2924.2718      2983.5136      5097.0839      0             -4945.365       0              107857.52      47.601081      47.601081      47.601081      1.0458283      12348.583      14033.36       13714.982    
     83000   41500          623.16973      13458.912      36445.863      15159.621      8988.6874      6170.9335      3006.7026      3083.1073      5130.3902      0             -5049.2665      0              108445.9       47.687481      47.687481      47.687481      1.0401541      13282.659      13045.021      14049.058    
     84000   42000          624.82492      14699.537      38394.959      15295.45       9012.5621      6282.8876      3007.3145      3125.1882      5138.3009      0             -4987.9161      0              107751.47      47.585474      47.585474      47.585474      1.0468577      14815.026      15027.569      14256.017    
     85000   42500          624.76453      15190.654      39406.489      15563.341      9011.691       6551.6499      3100.3858      3050.7371      5201.2474      0             -4800.7203      0              107624.52      47.566779      47.566779      47.566779      1.0480925      15434.211      15301.814      14835.938    
     86000   43000          620.7792       13638.257      36757.627      15353.796      8954.2061      6399.59        3018.421       3032.0024      5222.0961      0             -4872.9295      0              107611.02      47.56479       47.56479       47.56479       1.048224       13177.701      13001.436      14735.633    
     87000   43500          630.22206      14695.886      38228.801      15239.255      9090.4111      6148.8438      2958.4202      3005.2482      5105.4593      0             -4920.2839      0              107265.17      47.513779      47.513779      47.513779      1.0516037      15188.036      15192.512      13707.109    
     88000   44000          619.12642      15372.326      39440.289      15351.569      8930.3661      6421.2027      3082.2768      3163.9921      5151.4551      0             -4976.5212      0              107447.98      47.540755      47.540755      47.540755      1.0498146      15583.306      15144.477      15389.196    
     89000   44500          600.67617      14282.056      37477.596      15102.937      8664.237       6438.7002      3010.5792      3125.1153      5209.8805      0             -4906.8748      0              107421.15      47.536799      47.536799      47.536799      1.0500768      13993.937      13538.905      15313.326    
     90000   45000          612.51419      15440.828      39085.445      15054.275      8834.9903      6219.285       2984.8131      3018.3436      5160.4309      0             -4944.3027      0              106715.73      47.432514      47.432514      47.432514      1.0570181      14849.819      15867.065      15605.601    
     91000   45500          626.02588      14348.394      37640.818      15204.521      9029.8849      6174.6359      2989.5687      3107.4017      5127.1096      0             -5049.4441      0              107219.06      47.50697       47.50697       47.50697       1.052056       14999.781      14073.187      13972.214    
     92000   46000          633.41793      15255.611      39212.906      15458.653      9136.5089      6322.1446      2980.0095      3042.4329      5177.131       0             -4877.4288      0              106766.72      47.440067      47.440067      47.440067      1.0565133      16863.72       15529.876      13373.236    
     93000   46500          633.23135      15740.249      39925.306      15515.838      9133.8176      6382.0204      3054.496       3027.5079      5227.6282      0             -4927.6117      0              106333.67      47.375842      47.375842      47.375842      1.0608159      15722.917      16239.679      15258.153    
     94000   47000          623.8151       14841.221      38378.53       15393.719      8997.9963      6395.7228      2943.8597      3177.913       5178.0209      0             -4904.0708      0              106192.88      47.354923      47.354923      47.354923      1.0622224      14193.334      14328.757      16001.572    
     95000   47500          616.79006      15705.563      39469.828      15258.169      8896.6661      6361.5033      2958.5249      3087.8858      5137.4551      0             -4822.3625      0              105704.91      47.282277      47.282277      47.282277      1.067126       17701.215      15364.635      14050.838    
     96000   48000          614.48962      15444.342      39405.661      15505.938      8863.4842      6642.4538      3130.119       3094.2241      5269.2587      0             -4851.148       0              106107.86      47.342282      47.342282      47.342282      1.0630735      15137.114      16102.46       15093.451    
     97000   48500          621.29424      15459.14       39190.164      15344.463      8961.6349      6382.8285      2997.0279      3111.6273      5127.7326      0             -4853.5593      0              105766.68      47.291485      47.291485      47.291485      1.0665028      15373.812      15189.057      15814.551    
     98000   49000          619.20483      15417.356      39079.443      15346.605      8931.497       6415.1079      2965.685       2970.7712      5215.3546      0             -4736.7029      0              105551.37      47.259373      47.259373      47.259373      1.0686783      16007.295      15236.89       15007.883    
     99000   49500          622.74966      16555.398      40747.584      15352.643      8982.6281      6370.0153      2982.9375      3057.8524      5125.7497      0             -4796.5243      0              105179.65      47.20383       47.20383       47.20383       1.0724552      16856.652      17216.484      15593.057    
    100000   50000          636.87619      15876.522      39886.675      15498.391      9186.3913      6312           3030.6891      3007.7971      5070.4695      0             -4796.9558      0              105329.49      47.226236      47.226236      47.226236      1.0709295      17580.669      15601.6        14447.296    
    101000   50500          625.64854      16839.487      41281.85       15464.238      9024.4421      6439.796       2974.8833      3050.7268      5246.5917      0             -4832.4058      0              105126.29      47.195846      47.195846      47.195846      1.0729995      15532.431      17764.29       17221.74     
    102000   51000          612.01222      18048.777      42988.964      15386.356      8827.7498      6558.606       3121.5041      3085.7155      5138.1807      0             -4786.7943      0              104864.01      47.156563      47.156563      47.156563      1.0756833      18788.97       16577.909      18779.452    
    103000   51500          623.21567      16847.505      41150.345      15458.69       8989.35        6469.3402      2914.543       3067.6186      5246.5886      0             -4759.41        0              104563.61      47.111492      47.111492      47.111492      1.0787735      15390.214      19391.596      15760.706    
    104000   52000          625.47009      17042.994      41628.151      15561.384      9021.8681      6539.5161      2997.9922      3112.3692      5208.3485      0             -4779.1938      0              104873.41      47.157973      47.157973      47.157973      1.0755868      17046.312      16138.23       17944.441    
    105000   52500          625.43311      17408.352      42298.238      15668.581      9021.3346      6647.2464      3069.9972      3064.005       5261.9708      0             -4748.7266      0              104889.5       47.160385      47.160385      47.160385      1.0754218      17076.896      16449.033      18699.126    
    106000   53000          620.39038      16516.292      40648.978      15443.613      8948.5976      6495.0153      3044.8158      2978.5286      5220.1209      0             -4748.45        0              104641.64      47.123208      47.123208      47.123208      1.0779691      16547.258      16797.616      16204.001    
    107000   53500          619.04833      18121.929      43097.563      15559.954      8929.2397      6630.7141      3026.3265      2931.7451      5326.2302      0             -4653.5877      0              104194.77      47.056032      47.056032      47.056032      1.0825923      17116.762      19182.484      18066.541    
    108000   54000          636.35558      18226.025      43376.843      15706.339      9178.8819      6527.4574      2966.3932      3087.2703      5243.8364      0             -4770.0425      0              104099.64      47.041707      47.041707      47.041707      1.0835816      17833.462      19010.564      17834.05     
    109000   54500          598.99813      17874.746      42360.352      15313.575      8640.0328      6673.5425      2943.2453      3163.7916      5230.304       0             -4663.7984      0              103752.78      46.989402      46.989402      46.989402      1.0872042      18248.371      17358.897      18016.97     
    110000   55000          624.60304      18489.093      43557.596      15450.544      9009.3616      6441.1826      2960.8537      3045.3473      5209.9139      0             -4774.9323      0              104237.45      47.062457      47.062457      47.062457      1.082149       18034.218      18917.276      18515.784    
    111000   55500          624.99737      17625.796      42112.019      15333.319      9015.0495      6318.2699      2954.9876      3014.4339      5178.1153      0             -4829.2669      0              104175.32      47.053104      47.053104      47.053104      1.0827944      17704.852      17996.459      17176.078    
    112000   56000          617.93974      17176.95       41615.613      15643.321      8913.2493      6730.0714      3116.635       3020.4792      5282.61        0             -4689.6529      0              103678.41      46.978172      46.978172      46.978172      1.087984       17348.998      17688.234      16493.618    
    113000   56500          610.91879      18444.743      43243.132      15416.617      8811.978       6604.6394      3030.7902      3139.1198      5179.9107      0             -4745.1813      0              103445.19      46.942921      46.942921      46.942921      1.0904369      18567.959      18708.758      18057.511    
    114000   57000          618.06089      18067.389      42752.676      15506.352      8914.9967      6591.3551      2900.2996      3167.6421      5185.328       0             -4661.9147      0              103403.83      46.936663      46.936663      46.936663      1.0908731      17651.111      18177.883      18373.173    
    115000   57500          609.76999      19125.757      44396.47       15530.54       8795.4077      6735.1328      3189.038       3081.1748      5129.6508      0             -4664.7307      0              103488.24      46.949431      46.949431      46.949431      1.0899833      19063.322      18811.059      19502.891    
    116000   58000          613.59031      19199.26       44156.641      15271.601      8850.5124      6421.0881      3049.3785      2946.7876      5108.3697      0             -4683.4476      0              103160.3       46.899786      46.899786      46.899786      1.0934483      18732.503      19814.883      19050.394    
    117000   58500          609.1096       18641.1        43344.979      15294.64       8785.882       6508.7578      2982.4136      3093.5958      5132.7686      0             -4700.0202      0              103178.86      46.902598      46.902598      46.902598      1.0932517      18697.47       18975.313      18250.516    
    118000   59000          619.09061      18633.428      43522.756      15514.504      8929.8495      6584.655       3037.4688      3115.2913      5071.6524      0             -4639.7575      0              103066.46      46.885561      46.885561      46.885561      1.0944439      19621.25       18456.032      17823.002    
    119000   59500          623.19126      19809.375      45588.564      15801.971      8988.9979      6812.9732      3028.5649      3196.2721      5147.9916      0             -4559.8554      0              103103.68      46.891205      46.891205      46.891205      1.0940488      20323.501      19391.36       19713.264    
    120000   60000          627.21444      18925.375      44229.476      15779.691      9047.0287      6732.6623      3020.3439      3112.9827      5234.8104      0             -4635.4746      0              103076.25      46.887046      46.887046      46.887046      1.0943399      19326.664      18700.639      18748.821    
    121000   60500          630.5985       20733.012      46716.253      15719.471      9095.8409      6623.63        3005.7995      2962.7524      5093.8288      0             -4438.7508      0              102512.86      46.801465      46.801465      46.801465      1.1003542      20621.471      21034.711      20542.853    
    122000   61000          604.87791      20456.965      46075.085      15639.585      8724.8436      6914.7413      3006.2214      3142.5471      5298.2855      0             -4532.3126      0              102014.84      46.725553      46.725553      46.725553      1.105726       20650.994      20256.723      20463.179    
    123000   61500          617.84689      20813.317      46789.205      15733.368      8911.9099      6821.4581      3055.9628      3197.2691      5121.051       0             -4552.8248      0              102311.88      46.770859      46.770859      46.770859      1.1025158      21553.143      20696.013      20190.796    
    124000   62000          618.28199      21052.513      47197.791      15800.071      8918.1859      6881.8847      3146.965       3101.7499      5123.6262      0             -4490.4565      0              102262.94      46.763402      46.763402      46.763402      1.1030433      19808.61       20953.755      22395.173    
    125000   62500          619.80365      20496.031      46271.228      15692.6        8940.1345      6752.4653      2972.75        3138.414       5180.9984      0             -4539.6971      0              102299.22      46.768931      46.768931      46.768931      1.1026521      19776.869      20802.358      20908.867    
    126000   63000          616.87417      20972.438      46931.788      15719.244      8897.8793      6821.365       2957.159       3121.7427      5205.6462      0             -4463.183       0              102047.97      46.73061       46.73061       46.73061       1.105367       22473.493      19509.137      20934.684    
    127000   63500          620.25896      21201.379      47296.89       15682.736      8946.702       6736.0345      3026.6789      3166.0102      5096.3835      0             -4553.0381      0              102244.88      46.760648      46.760648      46.760648      1.1032382      19964.652      22309.788      21329.698    
    128000   64000          621.94192      20648.06       46412.968      15705.046      8970.9772      6734.0689      3007.4792      3066.7701      5154.4042      0             -4494.5846      0              101975.37      46.719526      46.719526      46.719526      1.1061539      20677.103      21296.685      19970.392    
    129000   64500          621.30294      22767.184      49611.586      15819.723      8961.7604      6857.9627      3036.9763      3082.8195      5137.3558      0             -4399.1888      0              101771.68      46.688398      46.688398      46.688398      1.1083679      21775.541      23594.697      22931.314    
    130000   65000          605.68154      21529.4        47542.594      15690.186      8736.4353      6953.7504      3182.0217      3084.8867      5165.4237      0             -4478.5816      0              101445.89      46.638527      46.638527      46.638527      1.1119273      21183.357      21268.036      22136.806    
    131000   65500          616.6912       21089.107      47067.306      15850.779      8895.24        6955.5391      3118.4774      3170.3755      5155.4983      0             -4488.8122      0              101496.37      46.646261      46.646261      46.646261      1.1113743      21258.67       21275.554      20733.096    
    132000   66000          623.71606      22149.582      48583.077      15820.715      8996.5677      6824.1476      2998.3358      3038.9285      5185.4634      0             -4398.5802      0              101422.37      46.634922      46.634922      46.634922      1.1121851      21524.062      23034.4        21890.285    
    133000   66500          620.98402      21627.083      47766.88       15802.924      8957.1604      6845.7636      3069.1276      3104.4888      5128.7716      0             -4456.6245      0              101341.35      46.622501      46.622501      46.622501      1.1130743      21767.712      22030.831      21082.706    
    134000   67000          610.19113      24021.192      51165.26       15711.75       8801.4822      6910.2676      3070.5349      3100.0703      5130.9696      0             -4391.3072      0              101201.93      46.601111      46.601111      46.601111      1.1146077      24670.746      23988.851      23403.978    
    135000   67500          617.03335      22745.012      49388.93       15857.817      8900.1753      6957.6415      3068.3758      2986.2242      5264.2546      0             -4361.2131      0              101084.81      46.583127      46.583127      46.583127      1.1158992      22068.003      23554.471      22612.563    
    136000   68000          620.0098       22179.515      48614.253      15876.525      8943.108       6933.417       3031.7718      3113.8275      5213.2683      0             -4425.4506      0              101209.34      46.602248      46.602248      46.602248      1.1145261      22411.297      22810.175      21317.074    
    137000   68500          610.115        23594.509      50613.532      15988.706      8800.384       7188.3219      3112.3724      3111.8045      5310.689       0             -4346.544       0              100623.81      46.512204      46.512204      46.512204      1.1210115      25172.481      23174.35       22436.696    
    138000   69000          620.76441      23250.504      50229.561      16099.979      8953.9926      7145.986       3021.6222      3176.5898      5237.6285      0             -4289.8545      0              100652.07      46.516558      46.516558      46.516558      1.1206968      22314.318      23345.746      24091.447    
    139000   69500          629.21268      23773.049      51308.206      16390.343      9075.8517      7314.4917      3068.8642      3179.838       5259.5123      0             -4193.7229      0              100713.31      46.52599       46.52599       46.52599       1.1200154      23394.589      24235.023      23689.536    
    140000   70000          635.52209      24116.411      51643.091      16337.485      9166.8594      7170.6254      3087.3232      3235.5758      5202.2541      0             -4354.5278      0              100381.83      46.47489       46.47489       46.47489       1.1237139      24298.34       23400.069      24650.824    
    141000   70500          630.05087      23273.187      50289.095      16224.491      9087.9419      7136.5487      2951.6896      3182.2928      5238.6785      0             -4236.1123      0              100362.53      46.471911      46.471911      46.471911      1.12393        23570.98       22907.533      23341.047    
    142000   71000          618.18284      24474.214      51853.08       16121.177      8916.7557      7204.4209      3043.0177      3261.4421      5174.9597      0             -4274.9986      0              100108.63      46.432689      46.432689      46.432689      1.1267806      24261.067      24302.235      24859.339    
    143000   71500          620.07691      24007.899      51097.801      16039.859      8944.076       7095.7826      3035.225       3184.54        5169.2412      0             -4293.2235      0              100128.19      46.435714      46.435714      46.435714      1.1265604      23957.861      24190.738      23875.098    
    144000   72000          622.30823      23148.955      50024.257      16196.78       8976.2609      7220.519       3067.2114      3104.0575      5284.0892      0             -4234.8391      0              100198.76      46.446619      46.446619      46.446619      1.125767       22230.063      24135.52       23081.282    
    145000   72500          608.70847      23594.466      50280.593      15869.853      8780.0961      7089.7568      3017.74        3086.5588      5212.3537      0             -4226.8958      0              100001.83      46.416172      46.416172      46.416172      1.1279839      23978.511      22957.126      23847.763    
    146000   73000          618.62784      25393.018      52862.458      15849.795      8923.1744      6926.6207      3057.2117      2949.9005      5153.3133      0             -4233.8049      0              99944.782      46.407343      46.407343      46.407343      1.1286278      23922.501      26429.25       25827.303    
    147000   73500          615.27567      25113.841      52590.422      16023.951      8874.8223      7149.1287      3118.8773      3142.7012      5244.2437      0             -4356.6936      0              99837.572      46.390744      46.390744      46.390744      1.1298397      25017.44       25226.841      25097.243    
    148000   74000          607.67092      24325.473      51573.44       16101.249      8765.1303      7336.1185      3193.2712      3157.0283      5235.9673      0             -4250.1483      0              99988.68       46.414137      46.414137      46.414137      1.1281323      22575.585      25085.709      25315.125    
    149000   74500          614.66521      25211.388      52820.191      16137.89       8866.0169      7271.8733      3094.1247      3123.6337      5271.6839      0             -4217.569       0              99766.314      46.379704      46.379704      46.379704      1.1306467      25486.001      25320.899      24827.263    
    150000   75000          610.9292       24863.919      52088.379      16006.687      8812.1282      7194.5589      3048.2172      3103.7456      5226.9156      0             -4184.3195      0              99504.203      46.339052      46.339052      46.339052      1.133625       25808.157      23858.886      24924.714    
    151000   75500          623.77428      25315.745      53072.111      16307.458      8997.4074      7310.0505      3095.3841      3227.7035      5122.4125      0             -4135.4496      0              99578.108      46.350521      46.350521      46.350521      1.1327837      25861.247      25313.065      24772.923    
    152000   76000          628.04269      25002.555      52766.328      16461.356      9058.9756      7402.3804      3140.0035      3155.6268      5315.8299      0             -4209.0799      0              99564.798      46.348456      46.348456      46.348456      1.1329351      24174.215      24779.607      26053.844    
    153000   76500          633.4559       25125.131      52733.965      16438.593      9137.0565      7301.5368      3049.0178      3092.4366      5220.3416      0             -4060.2592      0              99052.86       46.268882      46.268882      46.268882      1.1387905      24606.717      25576.458      25192.218    
    154000   77000          620.97961      26358.272      54609.891      16544.219      8957.0967      7587.1221      3171.3405      3154.239       5271.8246      0             -4010.282       0              99024.048      46.264396      46.264396      46.264396      1.1391218      27479.326      25887.643      25707.847    
    155000   77500          627.84726      27432.646      56077.621      16599.598      9056.1567      7543.4413      3130.0618      3140.1106      5292.473       0             -4019.2041      0              98676.062      46.210139      46.210139      46.210139      1.143139       27210.944      28064.043      27022.95     
    156000   78000          614.65032      26982.453      55155.801      16373.902      8865.8022      7508.0997      3134.0271      3075.9456      5352.1931      0             -4054.0661      0              98553.431      46.190988      46.190988      46.190988      1.1445614      27542.098      27063.435      26341.826    
    157000   78500          614.49556      27486.124      55887.417      16404.068      8863.5699      7540.4985      3100.6494      3087.2261      5236.124       0             -3883.5009      0              98497.36       46.182226      46.182226      46.182226      1.145213       27249.426      28290.949      26917.997    
    158000   79000          609.39247      27156.121      55564.149      16536.471      8789.9621      7746.5092      3154.7118      3261.0516      5305.4085      0             -3974.6627      0              98543.75       46.189475      46.189475      46.189475      1.1446739      25622.815      27170.161      28675.387    
    159000   79500          629.33607      27044.722      55465.272      16652.948      9077.6315      7575.3168      3140.8147      3199.3974      5245.924       0             -4010.8193      0              98403.655      46.167576      46.167576      46.167576      1.1463035      27665.16       27769.846      25699.161    
    160000   80000          623.58203      27483.499      56143.033      16700.099      8994.6345      7705.465       3222.7821      3222.0675      5349.1067      0             -4088.4913      0              98405.934      46.167933      46.167933      46.167933      1.146277       26831.447      27882.86       27736.191    
    161000   80500          622.66893      26295.623      54230.705      16495.197      8981.4637      7513.7337      2993.2183      3264.574       5245.4277      0             -3989.4863      0              98399.034      46.166854      46.166854      46.166854      1.1463573      26421.922      26808.139      25656.809    
    162000   81000          606.98489      27294.929      55541.542      16363.734      8755.235       7608.4987      3057.7033      3262.3556      5253.0014      0             -3964.5616      0              98419.755      46.170094      46.170094      46.170094      1.146116       27875.534      26683.981      27325.272    
    163000   81500          614.51445      27010.192      54905.477      16211.704      8863.8424      7347.8618      2986.1799      3095.1405      5253.114       0             -3986.5726      0              98228.501      46.140168      46.140168      46.140168      1.1483475      27201.324      26283.993      27545.259    
    164000   82000          616.22989      26728.623      54670.241      16416.793      8888.5861      7528.2071      3036.8397      3087.4402      5299.622       0             -3895.6947      0              98133.687      46.125318      46.125318      46.125318      1.149457       25193.459      27500.152      27492.257    
    165000   82500          616.89222      26825.263      54890.899      16445.69       8898.1397      7547.5502      3097.3697      3147.3153      5311.993       0             -4009.1278      0              98270.315      46.146714      46.146714      46.146714      1.1478589      27099.153      27292.083      26084.554    
    166000   83000          614.94298      28207.258      56869.89       16378.422      8870.0235      7508.3985      3110.0578      3208.7833      5244.7125      0             -4055.1551      0              98429.836      46.17167       46.17167       46.17167       1.1459986      27226.259      28153.301      29242.214    
    167000   83500          624.07675      26819.101      55073.095      16628.927      9001.7704      7627.1562      3143.648       3176.2625      5301.3451      0             -3994.0995      0              98290.233      46.149832      46.149832      46.149832      1.1476263      27922.876      26709.357      25825.071    
    168000   84000          612.49758      27257.351      55615.466      16466.216      8834.7507      7631.4655      3196.5833      3248.0938      5213.86        0             -4027.0717      0              98483.597      46.180075      46.180075      46.180075      1.145373       27223.616      27256.328      27292.108    
    169000   84500          621.9471       27353.527      55450.289      16403.836      8971.0519      7432.7837      3044.276       3080.2946      5271.3268      0             -3963.1137      0              97879.641      46.085481      46.085481      46.085481      1.1524404      26729.982      27407.292      27923.306    
    170000   85000          616.56589      27735.726      55941.823      16437.705      8893.4327      7544.2726      3077.6624      3132.0016      5198.6338      0             -3864.0252      0              97662.297      46.051344      46.051344      46.051344      1.1550051      28020.687      27237.838      27948.653    
    171000   85500          633.30916      28478.317      57444.716      16921.454      9134.9399      7786.514       3202.7082      3122.623       5268.9424      0             -3807.7596      0              97569.524      46.036758      46.036758      46.036758      1.1561034      28861.603      28814.735      27758.614    
    172000   86000          622.82812      28407.189      57291.007      16731.894      8983.76        7748.1337      3223.9237      3166.571       5300.4283      0             -3942.7893      0              97900.361      46.088733      46.088733      46.088733      1.1521965      29061.532      27762.455      28397.581    
    173000   86500          618.39504      28544.305      57105.059      16557.145      8919.8166      7637.3283      3035.8609      3129.8548      5284.0229      0             -3812.4102      0              97403.183      46.010581      46.010581      46.010581      1.1580777      27660.288      28418.223      29554.403    
    174000   87000          616.81679      28577.68       57118.291      16507.814      8897.0516      7610.7626      3022.636       3187.8653      5258.4012      0             -3858.14        0              97439.542      46.016305      46.016305      46.016305      1.1576456      28612.681      29212.01       27908.349    
    175000   87500          615.28512      28736.924      57546.281      16699.803      8874.9586      7824.8446      3190.1764      3318.4876      5226.0035      0             -3909.8229      0              97462.7        46.01995       46.01995       46.01995       1.1573705      29173.262      28312.287      28725.223    
    176000   88000          624.72703      29490.771      58919.578      17067.914      9011.1501      8056.7635      3279.2302      3289.4776      5285.623       0             -3797.5673      0              97308.487      45.995665      45.995665      45.995665      1.1592047      30192.399      28842.218      29437.694    
    177000   88500          633.11849      29175.926      58355.266      17015.138      9132.1896      7882.9481      3183.2857      3227.7327      5259.0601      0             -3787.1303      0              97156.37       45.971685      45.971685      45.971685      1.1610197      29747.307      28967.219      28813.251    
    178000   89000          619.09771      29617.408      58876.564      16965.127      8929.9519      8035.1752      3325.1713      3240.5803      5258.1353      0             -3788.7117      0              97030.8        45.951872      45.951872      45.951872      1.1625222      30528.844      28132.785      30190.596    
    179000   89500          627.32501      30097.495      59517.111      16885.577      9048.6237      7836.9536      3082.0234      3217.5502      5284.5296      0             -3747.1497      0              97123.586      45.966514      45.966514      45.966514      1.1614116      31459.542      28714.686      30118.258    
    180000   90000          625.75085      31354.674      61464.421      17147.23       9025.9177      8121.3125      3265.1687      3310.1073      5305.8829      0             -3759.8463      0              96915.679      45.933691      45.933691      45.933691      1.1639031      29975.495      32574.094      31514.433    
    181000   90500          628.23785      30660.743      60108.844      16859.945      9061.7907      7798.1543      3163.2468      3049.5237      5271.9492      0             -3686.5653      0              96720.045      45.902763      45.902763      45.902763      1.1662573      31016.995      29530.646      31434.588    
    182000   91000          615.15474      30258.706      59482.312      16762.716      8873.0779      7889.6382      3140.6261      3143.534       5274.4591      0             -3668.9809      0              96805.692      45.916308      45.916308      45.916308      1.1652254      30639.193      30183.279      29953.646    
    183000   91500          612.30774      31008.233      60505.487      16719.384      8832.0124      7887.3716      3174.5386      3165.2105      5318.2089      0             -3770.5865      0              96824.083      45.919216      45.919216      45.919216      1.1650041      31512.208      30172.671      31339.819    
    184000   92000          611.09448      30507.575      59835.314      16864.969      8814.5123      8050.4564      3170.8842      3183.8753      5238.2014      0             -3542.5045      0              96579.57       45.88053       45.88053       45.88053       1.1679536      30910.036      29282.928      31329.761    
    185000   92500          620.14401      31539.907      61443.101      17057.602      8945.0439      8112.5583      3104.6086      3275.0995      5334.3164      0             -3601.4662      0              96495          45.867134      45.867134      45.867134      1.1689772      30763.804      32445.105      31410.811    
    186000   93000          608.30706      30976.503      60412.775      16821.545      8774.306       8047.2392      3107.1441      3304.8691      5247.9669      0             -3612.7409      0              96491.896      45.866642      45.866642      45.866642      1.1690148      30223.742      31294.967      31410.801    
    187000   93500          627.78811      31633.781      61702.366      17192.505      9055.3035      8137.2015      3208.6792      3300.4617      5213.4005      0             -3585.3399      0              96478.213      45.864474      45.864474      45.864474      1.1691806      32341.292      30966.615      31593.435    
    188000   94000          614.9806       31856.673      61599.872      16874.202      8870.5661      8003.6363      3178.1422      3253.4772      5175.1154      0             -3603.0985      0              96267.686      45.831089      45.831089      45.831089      1.1717375      32719.978      31412.615      31437.427    
    189000   94500          613.51716      31662.625      61291.876      16802.038      8849.4573      7952.581       3112.0713      3100.7401      5209.4225      0             -3469.653       0              96346.959      45.843666      45.843666      45.843666      1.1707734      31680.175      30824.528      32483.173    
    190000   95000          632.19165      31932.25       61916.535      17064.403      9118.8207      7945.5821      3131.821       3241.5829      5242.2375      0             -3670.0594      0              96311.397      45.838025      45.838025      45.838025      1.1712057      32428.565      31876.139      31492.046    
    191000   95500          619.92988      31979.403      62115.842      17206.984      8941.9553      8265.0283      3230.5413      3289.6481      5307.1346      0             -3562.2958      0              96291.017      45.834791      45.834791      45.834791      1.1714536      31402.836      31958.974      32576.398    
    192000   96000          617.50701      32798.533      62855.653      17070.416      8907.0075      8163.409       3210.7727      3192.7381      5242.5398      0             -3482.6415      0              95718.338      45.743745      45.743745      45.743745      1.1784623      32225.002      32953.324      33217.274    
    193000   96500          609.60384      31875.354      61508.413      16952.483      8793.011       8159.4716      3190.6606      3184.9125      5328.9977      0             -3545.0992      0              95846.137      45.764094      45.764094      45.764094      1.176891       33302.728      30810.957      31512.377    
    194000   97000          624.16515      32513.178      62596.796      17116.765      9003.0455      8113.72        3244.2732      3159.3002      5260.3333      0             -3550.1867      0              95914.758      45.775013      45.775013      45.775013      1.176049       32877.856      32018.286      32643.394    
    195000   97500          627.34636      31923.842      61760.739      17097.001      9048.9316      8048.069       3147.2768      3167.5926      5205.2207      0             -3472.0211      0              95932.119      45.777775      45.777775      45.777775      1.1758362      32574.557      31206.387      31990.581    
    196000   98000          622.69116      32028.464      62002.764      17239.972      8981.7844      8258.1876      3186.6656      3270.5317      5248.4269      0             -3447.4366      0              95830.809      45.761655      45.761655      45.761655      1.1770792      32144.159      32359.84       31581.395    
    197000   98500          625.03512      32824.768      62871.347      17050.263      9015.594       8034.6686      3110.9567      3217.9187      5240.616       0             -3534.8228      0              95716.722      45.743488      45.743488      45.743488      1.1784822      32898.357      32359.108      33216.838    
    198000   99000          622.19929      31880.227      61811.157      17255.771      8974.6895      8281.0817      3278.2357      3238.3353      5263.3215      0             -3498.8109      0              95830.315      45.761576      45.761576      45.761576      1.1770853      32085.624      31908.63       31646.426    
    199000   99500          616.9638       33331.979      63722.23       17196.595      8899.1721      8297.4225      3176.2722      3240.9653      5267.9495      0             -3387.7644      0              95709.56       45.742347      45.742347      45.742347      1.1785704      33559.395      33001.562      33434.981    
    200000   100000         615.65611      32164.953      61956.455      17052.177      8880.3098      8171.8674      3127.8012      3219.6587      5355.2313      0             -3530.8239      0              95725.779      45.74493       45.74493       45.74493       1.1783707      32858.314      31759.031      31877.513    
    201000   100500         612.74607      32110.194      61913.586      17182.697      8838.335       8344.3616      3171.7572      3181.2108      5319.561       0             -3328.1674      0              95518.769      45.711931      45.711931      45.711931      1.1809245      31710.127      32823.744      31796.709    
    202000   101000         625.78359      33921.581      64447.482      17219.486      9026.39        8193.0956      3261.7195      3133.9805      5285.0615      0             -3487.6659      0              95465.74       45.703471      45.703471      45.703471      1.1815805      35254.598      33505.462      33004.684    
    203000   101500         614.3031       34405.825      64961.785      17285.288      8860.7939      8424.4939      3183.275       3255.008       5297.0932      0             -3310.8823      0              95015.94       45.631578      45.631578      45.631578      1.187174       34332.298      34787.917      34097.261    
    204000   102000         617.07429      33727.185      63988.328      17198.453      8900.7658      8297.6871      3179.4516      3194.5368      5283.9843      0             -3360.2855      0              95125.27       45.649073      45.649073      45.649073      1.1858096      32645.77       34202.085      34333.7      
    205000   102500         615.65621      34438.635      64945.572      17216.761      8880.3113      8336.4498      3210.5747      3139.7705      5354.2207      0             -3368.1162      0              95029.578      45.633761      45.633761      45.633761      1.1870036      34172.354      34699.347      34444.202    
    206000   103000         617.27734      35245.877      66109.622      17385.205      8903.6947      8481.5103      3177.5793      3349.1032      5183.3381      0             -3228.5103      0              94789.981      45.595377      45.595377      45.595377      1.190004       33620.273      35917.696      36199.663    
    207000   103500         620.14559      33994.143      64359.056      17219.564      8945.0668      8274.4971      3163.0683      3187.9807      5207.8018      0             -3284.3537      0              95083.446      45.642382      45.642382      45.642382      1.1863312      34209.653      34223.884      33548.892    
    208000   104000         608.8942       33870.825      63941.169      17002.268      8782.775       8219.4928      3179.1267      3197.4326      5215.3155      0             -3372.382       0              95023.549      45.632796      45.632796      45.632796      1.187079       33076.757      34664.135      33871.584    
    209000   104500         611.46146      34967.311      65510.565      17197.675      8819.8056      8377.8698      3228.1176      3202.7474      5217.7562      0             -3270.7515      0              94738.147      45.587065      45.587065      45.587065      1.1906551      35859.319      34350.718      34691.897    
    210000   105000         623.80695      34447.849      65057.762      17314.562      8997.8786      8316.6832      3246.9592      3166.0306      5207.0551      0             -3303.3617      0              95032.8        45.634277      45.634277      45.634277      1.1869634      33820.395      35157.31       34365.844    
    211000   105500         635.63229      34755.566      65606.691      17505.31       9168.449       8336.8615      3216.1507      3182.8423      5290.2972      0             -3352.4287      0              94898.051      45.612698      45.612698      45.612698      1.1886488      35999.832      34346.076      33920.789    
    212000   106000         620.58275      35419.037      66269.981      17371.668      8951.3724      8420.2956      3259.8824      3131.039       5254.0364      0             -3224.6621      0              94663.212      45.575042      45.575042      45.575042      1.1915976      36491.569      35459.266      34306.276    
    213000   106500         606.50709      34847.837      65511.326      17349.711      8748.3431      8601.3684      3339.1424      3316.5273      5244.7655      0             -3299.0669      0              94765.296      45.591419      45.591419      45.591419      1.190314       33694.768      36632.054      34216.69     
    214000   107000         616.82951      35779.712      66788.537      17461.923      8897.2351      8564.6882      3242.3701      3225.6511      5296.9367      0             -3200.2697      0              94529.765      45.553616      45.553616      45.553616      1.1932798      35724.873      35802.809      35811.453    
    215000   107500         619.89363      36437.589      67637.063      17473.423      8941.4323      8531.9903      3333.2945      3250.9194      5232.9824      0             -3285.206       0              94398.157      45.532466      45.532466      45.532466      1.1949434      37215.166      37088.759      35008.842    
    216000   108000         626.80548      36927.955      68610.801      17878.8        9041.1299      8837.6701      3324.1408      3220.7712      5344.9171      0             -3052.159       0              94199.986      45.500581      45.500581      45.500581      1.1974572      35925.426      38629.923      36228.516    
    217000   108500         625.25621      37799.593      69584.644      17768.739      9018.7831      8749.9563      3347.7456      3166.7722      5313.0695      0             -3077.631       0              93993.986      45.46739       45.46739       45.46739       1.2000816      37551.065      37414.693      38433.023    
    218000   109000         622.53479      37302.746      68852.736      17635.316      8979.5289      8655.7874      3252.9575      3254.6057      5173.1258      0             -3024.9016      0              94145.812      45.491857      45.491857      45.491857      1.1981463      37475.465      37692.058      36740.715    
    219000   109500         623.87799      36665.104      67833.239      17592.513      8998.9033      8593.61        3218.9875      3238.4411      5292.9554      0             -3156.774       0              93956.558      45.461354      45.461354      45.461354      1.2005597      36615.419      37297.418      36082.473    
    220000   110000         618.58888      36837.911      68086.745      17573.091      8922.6125      8650.4781      3189.7478      3212.3057      5303.4738      0             -3055.0491      0              94023.823      45.4722        45.4722        45.4722        1.1997008      37432.598      35998.839      37082.296    
    221000   110500         621.24607      36918.008      68038.739      17351.334      8960.9402      8390.3941      3236.3688      3169.2859      5233.8151      0             -3249.0756      0              94142.539      45.49133       45.49133       45.49133       1.198188       36742.329      37026.461      36985.235    
    222000   111000         629.29272      36995.891      68702.506      17982.395      9077.0061      8905.3893      3373.4197      3411.9118      5265.9553      0             -3145.8976      0              94004.967      45.46916       45.46916       45.46916       1.1999414      36210.052      37131.519      37646.104    
    223000   111500         622.88457      36543.648      67785.839      17728.967      8984.5741      8744.3933      3292.4101      3326.4209      5238.7133      0             -3113.1509      0              93923.856      45.456079      45.456079      45.456079      1.2009777      37705.878      35262.153      36662.914    
    224000   112000         618.38035      37746.399      69279.878      17664.292      8919.6046      8744.6878      3207.3215      3164.8001      5293.5792      0             -2921.0131      0              93762.556      45.430043      45.430043      45.430043      1.2030437      37781.705      37588.392      37869.101    
    225000   112500         609.07159      36689.377      67755.041      17601.955      8785.3338      8816.6213      3206.3098      3309.809       5354.2029      0             -3053.7004      0              93730.607      45.424882      45.424882      45.424882      1.2034538      36976.536      36907.675      36183.921    
[...]
    245000   122500         628.5624       40105.526      72313.718      18208.413      9066.472       9141.9406      3224.2025      3314.0885      5319.5279      0             -2715.8783      0              92503.837      45.225834      45.225834      45.225834      1.2194138      41011.786      39642.38       39662.412    
    246000   123000         628.97431      41529.14       74497.56       18460.937      9072.4134      9388.5235      3330.8337      3314.394       5412.4628      0             -2669.167       0              92521.598      45.228728      45.228728      45.228728      1.2191797      42345.317      40829.66       41412.443    
    247000   123500         636.7266       41174.218      74123.896      18531.354      9184.2335      9347.1207      3313.5918      3172.8455      5432.6551      0             -2571.9717      0              92579.595      45.238177      45.238177      45.238177      1.218416       42339.853      40894.537      40288.265    
    248000   124000         621.96739      41202.955      73758.326      18136.891      8971.3447      9165.5466      3306.424       3251.8376      5349.2992      0             -2742.0142      0              92563.109      45.235491      45.235491      45.235491      1.218633       41465.176      39335.541      42808.147    
    249000   124500         617.54977      41148.328      73661.497      18172.887      8907.6242      9265.2631      3206.3707      3359.8201      5442.7353      0             -2743.663       0              92464.658      45.219448      45.219448      45.219448      1.2199305      40958.948      41617.765      40868.27     
    250000   125000         606.89109      42360.443      75052.337      18206.79       8753.8819      9452.9084      3318.5971      3248.0365      5408.0867      0             -2521.8119      0              92015.305      45.146077      45.146077      45.146077      1.225888       42688.798      42265.477      42127.053    
    251000   125500         637.13434      41513.98       74616.54       18840.875      9190.1148      9650.7603      3308.0346      3380.4986      5431.0489      0             -2468.8218      0              92124.362      45.163906      45.163906      45.163906      1.2244368      40646.692      41863.785      42031.463    
    252000   126000         618.22085      42275.468      75068.927      18152.942      8917.304       9235.6383      3275.5943      3391.6178      5245.6597      0             -2677.2334      0              92314.503      45.194957      45.194957      45.194957      1.2219148      42245.863      42394.299      42186.243    
    253000   126500         626.18457      42655.607      75626.795      18280.133      9032.1738      9247.9588      3193.2166      3296.9459      5279.8154      0             -2522.0191      0              92184.125      45.17367       45.17367       45.17367       1.223643       42761.989      41606.478      43598.353    
    254000   127000         622.4459       42892.296      76212.556      18731.766      8978.2467      9753.5194      3242.3557      3502.1905      5399.7259      0             -2390.7528      0              91889.85       45.125551      45.125551      45.125551      1.2275616      43598.75       42288.735      42789.405    
    255000   127500         625.90206      43203.118      76567.541      18532.703      9028.0988      9504.6046      3355.1095      3374.8016      5312.5511      0             -2537.8575      0              92108.092      45.161247      45.161247      45.161247      1.224653       43953.606      42482.103      43173.645    
    256000   128000         619.97998      43293.448      76368.976      18359.125      8942.678       9416.4473      3232.1967      3296.5924      5255.7933      0             -2368.1351      0              91876.341      45.123339      45.123339      45.123339      1.2277421      43456.47       42870.274      43553.598    
    257000   128500         611.53726      42190.504      75049.184      18422.255      8820.899       9601.3559      3396.3008      3415.4505      5383.461       0             -2593.8563      0              92030.632      45.148584      45.148584      45.148584      1.2256838      41160.315      42561.139      42850.058    
    258000   129000         626.68201      42596.476      75761.974      18757.597      9039.349       9718.2483      3350.654       3446.1062      5320.2215      0             -2398.7334      0              91761.107      45.104466      45.104466      45.104466      1.2292839      43827.474      42405.014      41556.94     
    259000   129500         628.49367      42402.394      75362.877      18632.254      9065.4805      9566.773       3339.6139      3301.4647      5382.9395      0             -2457.2451      0              91738.428      45.10075       45.10075       45.10075       1.2295878      42786.909      42208.704      42211.568    
    260000   130000         614.92758      44502.355      77786.309      18363.069      8869.8014      9493.2674      3378.2782      3315.1313      5272.3938      0             -2472.5359      0              91558.242      45.071203      45.071203      45.071203      1.2320077      45019.468      44614.648      43872.948    
    261000   130500         621.39654      44802.355      78222.282      18321.445      8963.1106      9358.3347      3309.4857      3174.6582      5312.9653      0             -2438.7745      0              91676.107      45.090535      45.090535      45.090535      1.2304237      45869.675      45437.869      43099.52     
    262000   131000         624.31646      43488.914      76697.506      18607.842      9005.2279      9602.6141      3403.227       3338.4486      5328.8681      0             -2467.9295      0              91589.231      45.076287      45.076287      45.076287      1.2315908      44175.801      42092.095      44198.847    
    263000   131500         614.65297      43648.998      77042.483      18763.314      8865.8404      9897.4737      3418.354       3344.149       5365.3974      0             -2230.4267      0              91551.019      45.070018      45.070018      45.070018      1.2321049      43793.582      42961.482      44191.931    
    264000   132000         615.32752      43344.405      76477.363      18665.275      8875.5702      9789.7051      3373.6611      3405.4992      5435.5862      0             -2425.0414      0              91455.475      45.054334      45.054334      45.054334      1.233392       43956.312      43777.755      42299.15     
    265000   132500         621.62413      44313.16       77699.659      18644.871      8966.3934      9678.4778      3338.0395      3207.3788      5387.2986      0             -2254.2391      0              91379.021      45.041775      45.041775      45.041775      1.234424       43743.97       44091.849      45103.661    
    266000   133000         622.61909      45271.832      79142.68       18892.592      8980.7449      9911.8468      3452.1992      3324.0711      5401.1768      0             -2265.6004      0              91254.381      45.021287      45.021287      45.021287      1.23611        46703.759      44294.787      44816.951    
    267000   133500         633.64849      45865.021      80031.492      19073.394      9139.8344      9933.5592      3367.3996      3383.7813      5324.4704      0             -2142.0921      0              91132.634      45.001257      45.001257      45.001257      1.2377614      46941.009      44856.646      45797.407    
    268000   134000         618.46151      44123.363      77439.691      18611.323      8920.7753      9690.5476      3392.8371      3301.644       5339.9344      0             -2343.868       0              91420.229      45.048545      45.048545      45.048545      1.2338676      44122.363      44369.669      43878.056    
    269000   134500         619.45961      45668.26       79234.973      18439.338      8935.172       9504.1659      3390.5248      3283.066       5236.6081      0             -2406.033       0              91281.348      45.025722      45.025722      45.025722      1.2357448      45753.562      46327.701      44923.518    
    270000   135000         612.51955      44556.341      77902.546      18667.507      8835.0677      9832.439       3397.9306      3424.7554      5285.7066      0             -2275.9536      0              91157.683      45.005379      45.005379      45.005379      1.2374213      44902.839      44183.638      44582.545    
    271000   135500         621.29193      45250.487      78980.658      18777.985      8961.6017      9816.3838      3441.9902      3286.7523      5318.3466      0             -2230.7052      0              91225.579      45.01655       45.01655       45.01655       1.2365003      45684.548      45282.714      44784.198    
    272000   136000         613.53998      45287.024      78794.634      18654.488      8849.7864      9804.7021      3451.81        3363.0441      5275.3403      0             -2285.4924      0              91057.306      44.988854      44.988854      44.988854      1.2387853      44250.184      45072.858      46538.032    
    273000   136500         618.65368      45507.461      79158.509      18722.573      8923.5472      9799.0263      3394.7929      3406.8672      5339.4817      0             -2342.1157      0              91061.911      44.989613      44.989613      44.989613      1.2387227      46686.608      45638.013      44197.76     
    274000   137000         624.1234       46358.225      80394.47       18973.248      9002.4431      9970.8049      3543.9075      3324.1568      5331.4984      0             -2228.7577      0              90848.083      44.954371      44.954371      44.954371      1.2416383      45147.428      48110.718      45816.527    
    275000   137500         616.59063      45682.904      79304.205      18723.044      8893.7895      9829.2549      3405.9394      3338.819       5251.3452      0             -2166.8487      0              90930.167      44.967906      44.967906      44.967906      1.2405174      46606.545      45238.899      45203.269    
    276000   138000         620.02916      45564.994      78862.47       18473.746      8943.3873      9530.3591      3406.8904      3241.296       5277.802       0             -2395.6293      0              90875.883      44.958956      44.958956      44.958956      1.2412584      46294.726      44597.539      45802.716    
    277000   138500         606.97383      45289.083      78653.805      18681.492      8755.0754      9926.4163      3363.6265      3416.4707      5291.5056      0             -2145.1866      0              90799.065      44.946284      44.946284      44.946284      1.2423086      46269.94       45336.692      44260.619    
    278000   139000         626.05113      44596.194      77866.73       18725.389      9030.249       9695.1399      3348.0757      3433.6385      5188.7919      0             -2275.3661      0              90932.153      44.968233      44.968233      44.968233      1.2404903      45129.945      44028.584      44630.054    
    279000   139500         610.9497       47549.936      81606.412      18970.769      8812.4239      10158.345      3309.1778      3434.7009      5358.2792      0             -1943.8126      0              90322.45       44.867503      44.867503      44.867503      1.248864       48914.634      46567.772      47167.404    
    280000   140000         611.94366      47050.798      81030.139      18931.573      8826.7609      10104.812      3318.2174      3466.3235      5324.1626      0             -2003.8913      0              90497.939      44.896542      44.896542      44.896542      1.2464423      45504.11       48191.445      47456.838    
    281000   140500         616.83575      46219.858      80097.376      18902.086      8897.3252      10004.761      3380.5705      3465.9708      5267.549       0             -2109.3294      0              90784.875      44.943943      44.943943      44.943943      1.2425027      46705.431      46152.805      45801.339    
    282000   141000         622.64837      46103.275      79941.166      18876.672      8981.1672      9895.5052      3452.8813      3343.8884      5345.7723      0             -2247.0369      0              90819.915      44.949724      44.949724      44.949724      1.2420234      46152.84       46149.246      46007.74     
    283000   141500         618.56611      48048.713      82380.363      19022.013      8922.2841      10099.729      3353.7707      3428.6353      5277.2273      0             -1959.9042      0              90416.191      44.88302       44.88302       44.88302       1.2475692      48395.193      47632.253      48118.693    
    284000   142000         630.5349       47017.354      81344.427      19145.889      9094.9235      10050.966      3402.2523      3350.0059      5375.7186      0             -2077.0108      0              90708.106      44.931271      44.931271      44.931271      1.2435543      46920.371      49003.618      45128.073    
    285000   142500         628.99902      47359.064      81759.685      19166.986      9072.7698      10094.216      3482.614       3314.9674      5403.0517      0             -2106.4169      0              90624.301      44.917429      44.917429      44.917429      1.2447043      47729.458      46871.706      47476.029    
    286000   143000         613.48842      47996.198      82406.219      19183.754      8849.0428      10334.712      3493.787       3472.9628      5328.2083      0             -1960.2465      0              90320.991      44.867262      44.867262      44.867262      1.2488842      48038.985      48564.654      47384.956    
    287000   143500         617.74427      48964.829      83657.121      19224.073      8910.4297      10313.643      3459.9036      3435.1076      5421.7161      0             -2003.0838      0              90229.498      44.852107      44.852107      44.852107      1.2501505      47474.595      49905.373      49514.519    
    288000   144000         613.37315      48383.398      82689.181      18943.314      8847.38        10095.934      3313.6374      3435.7515      5313.7622      0             -1967.2174      0              90339.937      44.870399      44.870399      44.870399      1.2486223      48908.687      47605.442      48636.064    
    289000   144500         617.29427      48610.297      83120.07       19111.783      8903.9388      10207.844      3360.3272      3409.4485      5286.3665      0             -1848.2979      0              90288.417      44.861867      44.861867      44.861867      1.2493347      47920.334      48851.495      49059.062    
    290000   145000         620.50766      47838.653      82288.075      19303.072      8950.2893      10352.783      3414.3968      3489.3062      5345.8453      0             -1896.7655      0              90278.081      44.860155      44.860155      44.860155      1.2494778      47631.814      47613.323      48270.823    
    291000   145500         628.31779      48902.394      83677.974      19365.144      9062.9437      10302.2        3393.1827      3405.9719      5404.7682      0             -1901.7226      0              90176.132      44.843263      44.843263      44.843263      1.2508904      48244.855      49223.133      49239.196    
    292000   146000         603.31724      48543.71       82907.227      18973.01       8702.3323      10270.678      3459.046       3372.7402      5325.8504      0             -1886.959       0              90307.641      44.865051      44.865051      44.865051      1.2490688      49361.604      49585.692      46683.834    
    293000   146500         610.1479       49231.616      84059.702      19325.132      8800.8586      10524.274      3474.3837      3447.7795      5369.3688      0             -1767.2582      0              90160.494      44.84067       44.84067       44.84067       1.2511073      50288.935      47988.657      49417.256    
    294000   147000         619.01496      50631.857      86014.068      19684.735      8928.7584      10755.977      3484.4884      3477.9894      5364.323       0             -1570.8239      0              89826.791      44.78528       44.78528       44.78528       1.2557551      49963.141      51053.065      50879.363    
    295000   147500         623.08873      48766.339      83615.869      19406.838      8987.5189      10419.319      3462.5035      3419.6503      5444.5039      0             -1907.3385      0              90281.772      44.860767      44.860767      44.860767      1.2494267      50019.247      48766.796      47512.973    
    296000   148000         611.93481      46906.073      81006.761      19214.556      8826.6332      10387.923      3404.1908      3483.7387      5360.3133      0             -1860.3196      0              90329.316      44.86864       44.86864       44.86864       1.2487691      47363.681      47283.431      46071.108    
    297000   148500         620.11189      48102.48       82484.158      19347.119      8944.5807      10402.538      3438.7632      3406.9096      5301.9652      0             -1745.1001      0              89999.658      44.813991      44.813991      44.813991      1.2533432      47341          47769.734      49196.705    
    298000   149000         614.26         49698.005      84368.519      19360.449      8860.1721      10500.277      3357.9469      3543.7335      5369.7534      0             -1771.1574      0              89691.735      44.762824      44.762824      44.762824      1.257646       50479.74       50003.181      48611.094    
    299000   149500         625.33361      50595.665      85763.431      19581.791      9019.8995      10561.891      3480.1298      3442.2998      5224.709       0             -1585.2474      0              89690.889      44.762683      44.762683      44.762683      1.2576579      51145.905      50292.365      50348.725    
    300000   150000         624.53348      49971.411      85128.496      19692.024      9008.3582      10683.665      3546.4653      3547.4523      5404.9163      0             -1815.1685      0              89788.843      44.778973      44.778973      44.778973      1.2562859      49615.555      49323.883      50974.796    
Loop time of 985.932 on 8 procs for 300000 steps with 4840 atoms

Performance: 13.145 ns/day, 1.826 hours/ns, 304.281 timesteps/s, 1.473 Matom-step/s
97.9% CPU use with 8 MPI tasks x 1 OpenMP threads

MPI task timing breakdown:
Section |  min time  |  avg time  |  max time  |%varavg| %total
---------------------------------------------------------------
Pair    | 723.18     | 758.56     | 787.24     |  88.0 | 76.94
Bond    | 27.043     | 27.479     | 27.774     |   3.9 |  2.79
Neigh   | 23.606     | 23.611     | 23.62      |   0.1 |  2.39
Comm    | 131.18     | 159.75     | 195.17     | 191.7 | 16.20
Output  | 0.3148     | 0.33046    | 0.35035    |   1.9 |  0.03
Modify  | 10.181     | 10.26      | 10.377     |   1.7 |  1.04
Other   |            | 5.942      |            |       |  0.60

Nlocal:            605 ave         613 max         592 min
Histogram: 1 1 0 0 0 1 1 1 0 3
Nghost:         8069.5 ave        8097 max        8031 min
Histogram: 1 0 0 1 2 0 1 0 1 2
Neighs:         278250 ave      296864 max      265732 min
Histogram: 2 2 0 0 1 0 1 1 0 1

Total # of neighbors = 2226000
Ave neighs/atom = 459.91736
Ave special neighs/atom = 5.9504132
Neighbor list builds = 3166
Dangerous builds = 0

unfix npt_comp

undump dump_comp

write_dump all custom npt_compress_last.dump id type mol x y z xu yu zu vx vy vz modify sort id
write_data /home/arz2/PolyJarvis/data/PE3/lammps/npt_compress/npt_compress_out.data
System init for write_data ...
Generated 1 of 1 mixed pair_coeff terms from arithmetic mixing rule

print "STAGE COMPLETE: NPT compression P=1.0->50000.0atm density target reached"
STAGE COMPLETE: NPT compression P=1.0->50000.0atm density target reached
quit
