units real
atom_style full
boundary p p p

# --- Force Field Styles ---
pair_style lj/class2/coul/long 9.5 9.5
kspace_style pppm 1e-6
dielectric 1.000000
bond_style class2
angle_style class2
dihedral_style class2
improper_style class2
special_bonds lj/coul 0 0 1
pair_modify mix sixthpower tail yes
neighbor 2.0 bin
neigh_modify delay 0 every 1 check yes
neigh_modify one 4000
# KOKKOS: package loaded via -pk kokkos on the command line

read_data /home/arz2/PolyJarvis/data/PEG1/lammps/equil/npt_production/npt_production_out.data
Reading data file ...
  orthogonal box = (4.1378782 4.1378782 4.1378782) to (45.183255 45.183255 45.183255)
  1 by 1 by 1 MPI processor grid
  reading atoms ...
  7020 atoms
  reading velocities ...
  7020 velocities
  scanning bonds ...
  4 = max bonds/atom
  scanning angles ...
  10 = max angles/atom
  scanning dihedrals ...
  16 = max dihedrals/atom
  scanning impropers ...
  7 = max impropers/atom
  orthogonal box = (4.1378782 4.1378782 4.1378782) to (45.183255 45.183255 45.183255)
  1 by 1 by 1 MPI processor grid
  reading bonds ...
  7010 bonds
  reading angles ...
  13000 angles
  reading dihedrals ...
  14970 dihedrals
  reading impropers ...
  8000 impropers
Finding 1-2 1-3 1-4 neighbors ...
  special bond factors lj:    0        0        1       
  special bond factors coul:  0        0        1       
     4 = max # of 1-2 neighbors
     6 = max # of 1-3 neighbors
     8 = max # of special neighbors
  special bonds CPU = 0.006 seconds
  read_data CPU = 0.294 seconds


# --- Thermo Output ---
thermo_style custom step time temp press enthalpy etotal ke pe ebond eangle edihed eimp evdwl ecoul elong etail vol lx ly lz density pxx pyy pzz
thermo_modify flush yes
thermo 100

# --- Trajectory ---
dump dump_npt all custom 1000 /home/arz2/PolyJarvis/data/PEG1/lammps/mechanical/bm_series/bm_P0/bm_P0.dump id type mol x y z ix iy iz vx vy vz

# --- Restart Checkpointing ---
restart 10000 npt_1.rst npt_2.rst

# --- Initial Velocities (optional) ---
# Velocities read from data file

# --- SHAKE Constraints ---
fix shake_fix all shake 1e-4 1000 0 m 1.008
Finding SHAKE clusters ...
      10 = # of size 2 clusters
    1990 = # of size 3 clusters
      10 = # of size 4 clusters
       0 = # of frozen angles
  find clusters CPU = 0.004 seconds

# --- NPT Thermostat + Barostat (Nose-Hoover) ---
# T_damp = 100.0 fs  (heat bath coupling)
# P_damp = 1000.0 fs  (pressure bath coupling, ~10x T_damp typical)
# Ramp: T=300.0->300.0K  P=0.0->0.0atm
timestep 1.0
fix npt_fix all npt temp 300.0 300.0 100.0 iso 0.0 0.0 1000.0

run 500000
PPPM Kokkos initialization ...
  using 12-bit tables for long-range coulomb
  G vector (1/distance) = 0.30305103
  grid = 30 30 30
  stencil order = 5
  estimated absolute RMS force accuracy = 0.00030548329
  estimated relative force accuracy = 9.1995386e-07
  using double precision cuFFT
  3d grid and FFT values/proc = 50653 27000
Generated 10 of 10 mixed pair_coeff terms from sixthpower/sixthpower mixing rule
Neighbor list info ...
  update: every = 1 steps, delay = 0 steps, check = yes
  max neighbors/atom: 4000, page size: 100000
  master list distance cutoff = 11.5
  ghost atom cutoff = 11.5
  binsize = 11.5, bins = 4 4 4
  1 neighbor lists, perpetual/occasional/extra = 1 0 0
  (1) pair lj/class2/coul/long/kk, perpetual
      attributes: full, newton off, kokkos_device
      pair build: full/bin/kk/device
      stencil: full/bin/3d
      bin: kk/device
Per MPI rank memory allocation (min/avg/max) = 34.17 | 34.17 | 34.17 Mbytes
   Step          Time           Temp          Press         Enthalpy        TotEng         KinEng         PotEng         E_bond        E_angle        E_dihed        E_impro         E_vdwl         E_coul         E_long         E_tail         Volume           Lx             Ly             Lz          Density          Pxx            Pyy            Pzz      
         0   0              371.04646      5666.3653      8484.6663      2770.2328      6281.082      -3510.8492      1022.0476      4891.5415     -8492.8744     -52.649088     -2958.3912      6962.8611     -4883.3847     -464.2469       69150.087      41.045377      41.045377      41.045377      1.0583668      7086.5346      5277.1599      4635.4013    
       100   100            296.27366     -421.14777      1234.3989      1659.533       5015.3265     -3355.7935      1041.5698      4942.3241     -8400.9968     -51.756416     -2963.2016      6963.0205     -4886.7531     -463.79515      69217.442      41.058699      41.058699      41.058699      1.057337      -431.59091      23.544518     -855.39691    
       200   200            294.44278      651.15327      2233.7683      1576.1143      4984.3334     -3408.2191      1012.4832      4995.3535     -8474.5667     -51.411314     -2962.9392      6959.9462     -4887.0848     -463.55727      69252.961      41.065721      41.065721      41.065721      1.0567947      1603.9152     -483.62133      833.16595    
       300   300            293.62749      349.2774       1842.1887      1488.775       4970.5322     -3481.7571      1017.6857      4982.1154     -8518.7073     -50.771946     -2993.0985      6967.0161     -4885.9966     -462.70566      69380.422      41.090899      41.090899      41.090899      1.0548532      1152.1694      89.110667     -193.44781    
       400   400            297.61924      98.418655      1694.2805      1594.5975      5038.1045     -3443.507       1026.8141      4895.6692     -8476.0055     -49.62509      -2939.8248      6982.8546     -4883.3895     -462.24711      69449.247      41.104482      41.104482      41.104482      1.0538078     -843.24198      579.6378       558.86015    
       500   500            303.79789     -715.3585       961.2979       1686.292       5142.6969     -3456.4048      1017.4554      5012.6044     -8498.7459     -52.929453     -3030.0521      6976.3962     -4881.1334     -461.96268      69492.006      41.112916      41.112916      41.112916      1.0531594     -589.36279     -954.97237     -601.74034    
       600   600            300.5208      -116.49607      1565.2107      1682.9861      5087.2222     -3404.2362      1033.3643      4988.2894     -8504.8238     -51.339212     -2953.9905      6968.3147     -4884.0511     -463.09988      69321.36       41.079236      41.079236      41.079236      1.0557519     -1021.3468     -272.8652       944.72381    
       700   700            298.12558      259.50374      1893.4829      1631.8679      5046.6759     -3414.8079      1034.0028      4838.3597     -8422.1035     -48.805641     -2907.0523      6973.8623     -4883.0714     -464.40697      69126.252      41.04066       41.04066       41.04066       1.0587318     -482.02664     -122.8256       1383.3635    
       800   800            297.4695      -194.63663      1361.5791      1557.2597      5035.5697     -3478.31        1007.7974      4926.2381     -8444.9006     -52.87143      -3002.4221      6969.8839     -4882.0353     -465.68748      68936.176      41.003009      41.003009      41.003009      1.061651      -196.54637      130.71582     -518.07935    
       900   900            299.51946      314.13957      1826.3942      1511.0025      5070.2715     -3559.2689      970.70534      4852.399      -8430.258      -47.39391      -2985.6864      6966.0999     -4885.1349     -466.32654      68841.703      40.98427       40.98427       40.98427       1.0631079      340.5768       579.35714      22.484773    
      1000   1000           295.04436      130.88401      1686.4515      1555.0647      4994.5169     -3439.4522      1020.2075      4927.902      -8449.1103     -51.875087     -2978.2675      6971.6851     -4879.9938     -466.39357      68831.81       40.982307      40.982307      40.982307      1.0632607      18.072554     -168.93972      543.51919    
      1100   1100           303.84955      344.80166      2034.5581      1687.8796      5143.5713     -3455.6917      1022.0961      4921.9831     -8444.0648     -49.406016     -3001.5912      6978.163      -4882.872      -465.65051      68941.648      41.004094      41.004094      41.004094      1.0615667     -1256.1006      2326.2944     -35.788819    
      1200   1200           305.07641     -641.65417      1091.8425      1738.3989      5164.3396     -3425.9407      1039.4123      4954.9271     -8437.2216     -51.805921     -3019.0666      6971.618      -4883.8041     -464.63531      69092.281      41.033936      41.033936      41.033936      1.0592523     -319.95391      97.965395     -1702.974     
      1300   1300           301.79362      372.3798       2054.2363      1678.9643      5108.7686     -3429.8043      1035.5637      4939.5642     -8483.2953     -52.796564     -2956.7327      6969.2559     -4881.3635     -464.57679      69100.984      41.035659      41.035659      41.035659      1.0591189      1732.5938      37.485513     -652.93994    
      1400   1400           296.12179      51.152512      1631.086       1579.5137      5012.7557     -3433.242       983.26868      4930.5834     -8413.4582     -51.147351     -2970.5722      6970.9556     -4882.872      -464.37405      69131.153      41.04163       41.04163       41.04163       1.0586567      551.67505     -752.01756      353.80005    
      1500   1500           300.8238       948.60565      2516.4632      1559.8373      5092.3514     -3532.5141      991.76851      4771.7884     -8442.8485     -49.198016     -2898.8075      6977.1482     -4882.3652     -464.25993      69148.147      41.044993      41.044993      41.044993      1.0583965      2274.7635     -267.46176      838.51518    
      1600   1600           299.68687     -447.43741      1132.4484      1584.7166      5073.1055     -3488.3889      996.54902      4910.5932     -8460.8711     -52.137111     -2964.1836      6967.7347     -4886.074      -463.18439      69308.712      41.076738      41.076738      41.076738      1.0559446      359.41925      386.9812      -2088.7127    
      1700   1700           302.06541      233.35267      1858.3688      1622.4552      5113.3693     -3490.9141      1027.3505      4848.967      -8450.5986     -48.719809     -2957.1182      6975.6315     -4886.4265     -463.10291      69320.907      41.079147      41.079147      41.079147      1.0557588      11.857316      133.3525       554.84819    
      1800   1800           294.6238       33.645136      1669.5983      1635.6089      4987.3977     -3351.7887      1036.876       4981.5839     -8438.0063     -50.826951     -2963.1615      6968.8798     -4887.1338     -463.44264      69270.09       41.069106      41.069106      41.069106      1.0565333      786.53473     -0.97385963    -684.62547    
      1900   1900           303.28064      712.37765      2419.1228      1701.7695      5133.9408     -3432.1713      1012.506       4948.3167     -8486.6084     -50.457888     -2933.6501      6964.981      -4887.2586     -464.93778      69047.333      41.025036      41.025036      41.025036      1.0599419     -444.29188      462.83823      2118.5866    
      2000   2000           304.57187     -897.76836      898.50397      1802.8269      5155.7989     -3352.9719      1014.726       5005.3674     -8426.2077     -49.901689     -2983.7575      6970.2446     -4883.4431     -464.79171      69069.032      41.029333      41.029333      41.029333      1.0596089     -1403.9697     -932.44948     -356.88592    
      2100   2100           307.70702      1463.5412      3220.6266      1745.4988      5208.8707     -3463.3718      1006.1048      4871.3305     -8432.2439     -51.124973     -2947.7126      6974.0065     -4883.7322     -464.5077       69111.262      41.037693      41.037693      41.037693      1.0589614      3465.4652      726.23088      198.92738    
      2200   2200           296.86332     -724.2726       892.5398       1622.9779      5025.3082     -3402.3304      1038.6566      4970.5893     -8452.4015     -51.30516      -2983.8592      6962.3688     -4886.3792     -464.23331      69152.112      41.045777      41.045777      41.045777      1.0583359     -1089.3978     -1431.1972      347.77714    
      2300   2300           299.44525      859.26588      2467.2199      1602.1733      5069.0153     -3466.842       985.58758      4968.5561     -8486.1562     -52.664088     -2967.0756      6969.1211     -4884.211      -465.05646      69029.713      41.021546      41.021546      41.021546      1.0602124      2140.0576      688.33041     -250.59043    
      2400   2400           297.90329      669.62151      2279.8465      1605.925       5042.9129     -3436.988       996.84632      4953.086      -8440.3811     -48.821565     -2972.4974      6963.456      -4888.6762     -465.19787      69008.729      41.017389      41.017389      41.017389      1.0605348      1039.3096      410.71929      558.83569    
      2500   2500           301.70947      891.23449      2594.9252      1697.3268      5107.344      -3410.0171      1054.0776      4924.4035     -8440.5326     -54.818462     -2969.1506      6963.5556     -4887.5523     -464.86576      69058.03       41.027154      41.027154      41.027154      1.0597777      3055.7827      570.83389     -952.91309    
      2600   2600           308.03846      629.64064      2411.3314      1776.0492      5214.4813     -3438.4321      1050.4162      4953.8167     -8525.47       -50.980355     -2951.8631      6968.0482     -4882.3997     -464.02746      69182.789      41.051846      41.051846      41.051846      1.0578666      878.77678      703.76504      306.3801     
      2700   2700           299.59219     -661.11191      996.59252      1665.2698      5071.5027     -3406.2329      1043.7347      4970.3494     -8441.2569     -49.908882     -3009.7209      6962.9658     -4882.3961     -462.88816      69353.067      41.085498      41.085498      41.085498      1.0552693     -234.91103     -849.83983     -898.58487    
      2800   2800           298.46088     -660.93678      911.68026      1578.5593      5052.3518     -3473.7925      994.30619      4990.1436     -8459.518      -52.082294     -3019.7512      6955.9847     -4882.8755     -464.01335      69184.892      41.052262      41.052262      41.052262      1.0578344      1225.7775     -1986.1543     -1222.4335    
      2900   2900           300.0791       650.3594       2235.8302      1582.7889      5079.745      -3496.9561      1009.9506      4892.4906     -8453.1507     -52.142392     -2974.5871      6965.9511     -4885.4683     -466.26237      68851.178      40.98615       40.98615       40.98615       1.0629616      52.551034      684.54087      1213.9863    
      3000   3000           296.80143     -328.59543      1312.757       1641.9705      5024.2606     -3382.29        1011.1789      5012.1035     -8452.1115     -53.566214     -2981.1043      6965.7042     -4884.4947     -467.30616      68697.39       40.955611      40.955611      40.955611      1.0653412     -562.53941     -775.21363      351.96674    
      3100   3100           300.81394      816.25467      2503.3741      1687.0545      5092.1844     -3405.1299      1034.221       4969.8424     -8472.9976     -52.701419     -2971.6903      6972.5188     -4884.3228     -468.14794      68573.865      40.931049      40.931049      40.931049      1.0672602      875.96194      676.15446      896.6476     
      3200   3200           299.32136      175.57381      1827.1669      1651.4873      5066.9181     -3415.4308      1061.5965      4957.0027     -8483.1893     -53.594993     -2973.8036      6962.8746     -4886.3168     -467.90303      68609.757      40.938189      40.938189      40.938189      1.0667019      498.02872      714.24135     -685.54865    
      3300   3300           299.23686      613.03098      2140.3109      1525.9615      5065.4876     -3539.5261      974.27572      4948.5278     -8477.8289     -51.984389     -3020.3534      6976.1837     -4888.3468     -467.18041      68715.882      40.959286      40.959286      40.959286      1.0650545     -14.004546      371.80244      1481.2951    
      3400   3400           298.05273     -175.04347      1328.3454      1504.02        5045.4427     -3541.4227      1025.2337      4831.4295     -8476.5909     -48.626195     -2960.1589      6971.8977     -4884.6076     -466.50304      68815.658      40.979101      40.979101      40.979101      1.0635103      405.55859     -112.9283      -817.76069    
      3500   3500           298.6678       799.39279      2398.1313      1594.7002      5055.8545     -3461.1543      1042.7073      4858.5642     -8406.9141     -49.774963     -2993.003       6974.4148     -4887.1485     -465.83188      68914.806      40.998772      40.998772      40.998772      1.0619802      1325.2298      778.80456      294.14395    
      3600   3600           300.38188     -349.29295      1332.2614      1684.0522      5084.8705     -3400.8183      1053.2779      4962.7248     -8450.3458     -52.941083     -3014.0365      6982.0917     -4881.5893     -464.86088      69058.755      41.027298      41.027298      41.027298      1.0597666      364.57195     -338.4822      -1073.9686    
      3700   3700           304.56169      248.88998      1925.2591      1674.2685      5155.6265     -3481.358       985.37605      4931.1555     -8449.1565     -53.793417     -2979.1594      6967.5379     -4883.3182     -464.26666      69147.144      41.044794      41.044794      41.044794      1.0584119      776.96865      200.72358     -231.02229    
      3800   3800           296.18695     -380.5514       1243.6962      1627.5012      5013.8586     -3386.3575      1065.3932      4957.8029     -8447.0163     -53.679548     -2979.2605      6957.4993     -4887.0966     -464.21631      69154.643      41.046278      41.046278      41.046278      1.0582971      274.52999     -770.30646     -645.87771    
      3900   3900           296.4547      -398.15724      1187.2377      1588.1397      5018.3913     -3430.2515      1052.7161      4884.9601     -8404.98       -53.055026     -2995.3412      6972.7276     -4887.2791     -464.97971      69041.106      41.023803      41.023803      41.023803      1.0600375      1241.318      -1155.5611     -1280.2286    
      4000   4000           298.28185      60.442013      1585.4235      1524.9099      5049.3212     -3524.4113      945.02083      4990.4989     -8506.6373     -50.926393     -2989.4681      6970.5217     -4883.421      -467.63109      68649.656      40.946123      40.946123      40.946123      1.066082       522.64315     -104.00555     -237.31156    
      4100   4100           296.81668      476.72497      1943.5407      1467.6569      5024.5187     -3556.8619      955.92577      4858.489      -8440.2422     -52.797003     -2964.2172      6970.6043     -4884.6245     -469.0127       68447.429      40.905878      40.905878      40.905878      1.0692317      636.24189      704.84724      89.085772    
      4200   4200           298.68552     -148.28482      1370.886       1518.8836      5056.1545     -3537.2709      967.63045      4997.7019     -8496.3966     -50.788793     -3030.1379      6961.5279     -4886.8078     -469.09367      68435.615      40.903524      40.903524      40.903524      1.0694163      40.596125     -630.91516      145.46456    
      4300   4300           299.6989       191.35645      1833.8984      1642.7084      5073.309      -3430.6007      1051.6262      4968.1342     -8440.4708     -53.452144     -3009.4073      6944.1946     -4891.2253     -468.59276      68508.77       40.918093      40.918093      40.918093      1.0682743     -232.82375     -484.47456      1291.3677    
      4400   4400           299.22207      143.76138      1796.8535      1653.037       5065.2372     -3412.2003      1027.1093      5041.7018     -8458.4998     -54.745724     -3029.6366      6946.8549     -4884.9842     -468.00558      68594.724      40.935199      40.935199      40.935199      1.0669357      152.6016       847.11968     -568.43716    
      4500   4500           297.62651      708.69978      2308.4459      1597.1509      5038.2276     -3441.0768      1005.5746      4901.3678     -8420.7036     -51.6951       -2959.9207      6969.0006     -4884.7004     -466.47691      68819.513      40.979866      40.979866      40.979866      1.0634507      441.77691      949.28486      735.03758    
      4600   4600           299.90748     -700.02728      856.08417      1561.8967      5076.8398     -3514.9432      970.46332      5000.2291     -8480.5882     -54.24683      -3018.991       6955.3333     -4887.1428     -464.34764      69135.085      41.042408      41.042408      41.042408      1.0585965     -877.5953      -539.97025     -682.51631    
      4700   4700           299.00813      343.58653      1923.2292      1576.209       5061.6158     -3485.4068      996.79936      4940.3216     -8495.9949     -52.369602     -2955.7489      6966.4827     -4884.897      -463.55253      69253.67       41.065861      41.065861      41.065861      1.0567838      231.25245      1204.0307     -404.52356    
      4800   4800           298.41439     -1316.3913      259.13915      1590.3878      5051.5648     -3461.1769      1035.127       4894.3435     -8431.1443     -48.330082     -2986.6481      6961.6522     -4886.1771     -462.95996      69342.311      41.083374      41.083374      41.083374      1.055433      -354.31656     -316.8422      -3278.015     
      4900   4900           305.34262      562.82862      2197.4836      1628.5838      5168.846      -3540.2623      996.21327      4870.4541     -8504.7862     -51.892619     -2934.5256      6972.0988     -4887.824      -463.18871      69308.066      41.07661       41.07661       41.07661       1.0559544      199.12331     -154.70926      1644.0718    
      5000   5000           302.72462      496.15004      2184.7626      1683.6026      5124.5284     -3440.9258      999.2134       4969.5707     -8481.4724     -52.530468     -2953.0518      6965.114      -4887.7694     -463.50486      69260.792      41.067269      41.067269      41.067269      1.0566752      1754.92        384.05168     -650.5215     
      5100   5100           303.47976     -1055.507       692.2436       1758.0005      5137.3115     -3379.3111      1075.1842      4980.6424     -8430.6354     -53.261934     -3029.5267      6966.9341     -4888.6477     -463.6824       69234.273      41.062026      41.062026      41.062026      1.0570799     -970.92232     -1308.4911     -887.10758    
      5200   5200           302.49403      13.648346      1735.1605      1721.4324      5120.6251     -3399.1927      1010.6392      5016.4688     -8474.2451     -50.927104     -2979.8065      6963.0454     -4884.3674     -465.46744      68968.763      41.009469      41.009469      41.009469      1.0611494      124.24557     -162.53807      79.237538    
      5300   5300           296.56887      364.20174      1937.9721      1572.4708      5020.3238     -3447.853       1014.4063      4889.215      -8418.6691     -50.030867     -2967.3384      6968.8667     -4884.3026     -466.52049      68813.084      40.97859       40.97859       40.97859       1.0635501     -169.46456      1314.9376     -52.867816    
      5400   5400           297.97671     -232.42034      1313.5183      1546.4616      5044.1558     -3497.6943      1016.2884      4936.0025     -8457.5378     -50.600163     -3009.2999      6956.0103     -4888.5576     -467.13411      68722.692      40.960639      40.960639      40.960639      1.064949      -1071.7492      107.25833      267.22988    
      5500   5500           298.74827     -440.68589      1157.7363      1598.6011      5057.2168     -3458.6157      1045.6208      4913.7894     -8474.3765     -51.937489     -2982.9461      6972.7265     -4881.4922     -467.99513      68596.256      40.935504      40.935504      40.935504      1.0669119     -419.31329     -124.96364     -777.78075    
      5600   5600           301.40145      681.85625      2347.0826      1665.2436      5102.1299     -3436.8863      1027.5013      4920.9617     -8423.0252     -52.468667     -3001.4848      6973.8542     -4882.2248     -468.19703      68566.674      40.929618      40.929618      40.929618      1.0673722     -142.92123      1857.686       330.80397    
      5700   5700           304.53406      114.72222      1893.0076      1778.1895      5155.1587     -3376.9692      1012.6958      5042.197      -8450.2869     -53.765878     -2996.0016      6955.6856     -4887.4931     -467.79436      68625.697      40.941359      40.941359      40.941359      1.0664542      801.82072     -116.9261      -340.72796    
      5800   5800           300.35619      534.85284      2320.3564      1783.4896      5084.4357     -3300.9462      1050.5887      5099.2094     -8485.4412     -55.580228     -2989.1206      6963.3784     -4883.9807     -466.42878      68826.614      40.981275      40.981275      40.981275      1.063341      -78.237396      1642.0454      40.750511    
      5900   5900           303.53445     -318.18264      1316.0891      1636.0295      5138.2373     -3502.2078      1060.6208      4894.9485     -8469.6829     -53.507046     -3007.9557      6960.3759     -4887.0074     -465.61294      68947.211      41.005197      41.005197      41.005197      1.0614811     -359.94292     -1538.406       943.80094    
      6000   6000           300.24353      653.62323      2244.4304      1586.905       5082.5286     -3495.6236      1014.4809      4931.98       -8542.8697     -52.495072     -2924.4343      6964.1491     -4886.4345     -465.40664      68977.773      41.011255      41.011255      41.011255      1.0610108     -69.636085      1358.8908      671.61495    
      6100   6100           295.00604     -520.28108      1043.5564      1568.5548      4993.8683     -3425.3135      988.67933      4980.1203     -8435.2126     -49.8528       -2990.9606      6967.0672     -4885.1544     -463.97832      69190.115      41.053295      41.053295      41.053295      1.0577546     -647.65614     -1352.7506      439.56354    
      6200   6200           304.51366     -886.4085       759.45198      1653.7995      5154.8133     -3501.0139      1002.2027      4859.4421     -8403.9539     -52.533505     -2991.7941      6969.7295     -4884.1067     -464.02914      69182.538      41.051796      41.051796      41.051796      1.0578704     -1196.6862     -531.17348     -931.3658     
      6300   6300           307.92898      673.33321      2431.2966      1753.9189      5212.6281     -3458.7092      1006.7381      4904.8393     -8427.7999     -49.783394     -2975.3589      6966.18       -4883.5246     -465.3897       68980.284      41.011752      41.011752      41.011752      1.0609721      2180.1824     -203.61866      43.435865    
      6400   6400           302.06153     -792.41637      924.37221      1720.0601      5113.3036     -3393.2435      1052.6367      4943.2256     -8462.9136     -52.500282     -2962.578       6970.1025     -4881.2165     -466.26019      68851.501      40.986214      40.986214      40.986214      1.0629566     -1306.202      -210.20974     -860.83736    
      6500   6500           298.64247     -437.52409      1217.6497      1656.1929      5055.4257     -3399.2329      1017.0491      4987.8105     -8458.6864     -54.525532     -2986.7025      6977.0774     -4881.2554     -467.09723      68728.118      40.961717      40.961717      40.961717      1.0648649      538.31126     -1119.6364     -731.24713    
      6600   6600           301.15682      1193.2438      2806.7845      1610.0914      5097.9887     -3487.8973      993.76064      4961.8877     -8465.4788     -49.789644     -3026.8709      6978.9739     -4880.3803     -466.83566      68766.627      40.969366      40.969366      40.969366      1.0642686      814.98922      1146.2258      1618.5163    
      6700   6700           303.73614     -613.63557      968.63972      1585.3447      5141.6515     -3556.3067      1011.4177      4915.6117     -8489.3281     -50.830604     -3020.8662      6961.7817     -4884.0929     -465.85493      68911.397      40.998096      40.998096      40.998096      1.0620327     -20.551689     -815.68097     -1004.674     
      6800   6800           297.95258      38.50203       1611.6734      1572.9218      5043.7473     -3470.8255      979.87363      5002.6127     -8474.7368     -54.455078     -2995.9526      6955.7116     -4883.8789     -465.17044      69012.798      41.018195      41.018195      41.018195      1.0604723      1570.5763     -818.6241      -636.44611    
      6900   6900           302.92347      22.490074      1622.2887      1599.6669      5127.8947     -3528.2278      957.29344      4879.5784     -8429.1852     -50.847382     -2959.7954      6958.7088     -4883.9805     -465.45727      68970.27       41.009768      41.009768      41.009768      1.0611262     -98.069347     -501.4705       667.01007    
      7000   7000           297.41952      407.93939      2014.5419      1604.4203      5034.7237     -3430.3034      1001.1804      4964.0134     -8460.3222     -53.640753     -2966.046       6967.1959     -4882.6842     -465.69392      68935.222      41.00282       41.00282       41.00282       1.0616657      294.50075      1289.7809     -360.46351    
      7100   7100           298.17095     -217.50124      1393.6066      1612.4131      5047.4439     -3435.0308      1012.5688      4938.76       -8487.7443     -51.550774     -2940.8323      6973.413      -4879.6452     -465.39241      68979.883      41.011673      41.011673      41.011673      1.0609783      773.17003     -1113.9191     -311.75463    
      7200   7200           296.8639       58.41781       1742.4315      1683.5134      5025.3182     -3341.8047      1072.2365      5004.2809     -8481.2453     -52.900505     -2972.1476      6968.7439     -4880.7726     -464.20972      69155.626      41.046472      41.046472      41.046472      1.0582821     -583.5694       183.37553      575.4473     
      7300   7300           301.58185     -613.77225      1166.3392      1785.867       5105.1838     -3319.3167      1041.1252      4972.3595     -8421.0343     -51.331977     -2954.2042      6973.2317     -4879.4627     -463.83561      69211.404      41.057505      41.057505      41.057505      1.0574292     -788.6309      -592.84547     -459.84037    
      7400   7400           301.74275      858.17303      2585.0189      1720.2487      5107.9074     -3387.6587      1038.72        4874.908      -8426.647      -51.064111     -2915.8872      6974.1426     -4881.831      -464.61346      69095.531      41.034579      41.034579      41.034579      1.0592025      629.74412      1735.2224      209.55261    
      7500   7500           295.7563      -468.95279      1102.7075      1575.3754      5006.5687     -3431.1933      998.97575      4988.549      -8416.6756     -54.285527     -3008.0303      6949.6487     -4889.3753     -464.5053       69111.619      41.037764      41.037764      41.037764      1.0589559     -120.35289     -1835.1977      548.69227    
      7600   7600           300.14019      505.61212      2083.963       1575.7609      5080.7792     -3505.0184      1017.139       4909.3789     -8477.9067     -52.001312     -2970.4639      6956.4083     -4887.5726     -465.79904      68919.665      40.999735      40.999735      40.999735      1.0619053     -286.9946       493.15591      1310.6751    
      7700   7700           300.78133     -524.96494      1061.4352      1587.8589      5091.6325     -3503.7736      1015.4398      4991.371      -8483.0857     -52.72253      -3036.6185      6949.5891     -4887.7468     -466.88775      68758.955      40.967842      40.967842      40.967842      1.0643873     -597.87931     -735.22598     -241.78953    
      7800   7800           296.36669      77.777343      1643.6729      1565.7896      5016.9013     -3451.1117      1075.2516      4904.7626     -8438.3066     -50.318149     -3016.541       6959.9129     -4885.8732     -467.54804      68661.851      40.948548      40.948548      40.948548      1.0658926     -1017.6785      194.11688      1056.8937    
      7900   7900           298.31472     -772.23082      761.18748      1534.1884      5049.8776     -3515.6892      1054.7236      4867.8606     -8433.7577     -53.443716     -3007.8713      6946.9754     -4890.1761     -467.71869      68636.798      40.943567      40.943567      40.943567      1.0662817      112.33725     -1131.5545     -1297.4752    
      8000   8000           299.52397      524.79176      2071.0719      1546.5233      5070.3478     -3523.8245      1043.961       4836.4428     -8439.2959     -51.68179      -2987.5831      6960.1403     -4885.8079     -468.40216      68536.647      40.923643      40.923643      40.923643      1.0678398     -325.6578       401.11136      1498.9217    
      8100   8100           299.65366      380.40431      2023.8474      1643.4039      5072.5432     -3429.1393      1037.3907      4971.7824     -8459.4337     -51.947566     -3000.1209      6957.2526     -4884.063      -468.13693      68575.478      40.93137       40.93137       40.93137       1.0672351      839.31126      1189.615      -887.7133     
      8200   8200           300.14392     -272.19988      1434.3581      1707.1363      5080.8424     -3373.7061      1010.2237      5022.6254     -8457.6051     -53.100178     -2962.1797      6952.1669     -4885.8371     -467.19256      68714.095      40.958931      40.958931      40.958931      1.0650822     -857.69644     -267.05271      308.14951    
      8300   8300           300.83584      24.111626      1693.6369      1669.4371      5092.5552     -3423.1181      1050.9906      4975.865      -8463.7244     -52.439347     -3011.2566      6961.1767     -4883.7301     -466.4781       68819.338      40.979831      40.979831      40.979831      1.0634534     -657.85051      1221.9953     -491.8099     
      8400   8400           295.12818      1339.4693      2855.7113      1511.4847      4995.9359     -3484.4512      1024.2418      4928.0615     -8468.1494     -52.853815     -3003.9307      6973.2332     -4885.0538     -466.5282       68811.946      40.978364      40.978364      40.978364      1.0635676      1427.4312      1471.0735      1119.903     
      8500   8500           298.91228     -1001.6452      527.57752      1533.1857      5059.9932     -3526.8074      1028.4022      4939.1425     -8461.791      -52.925063     -3056.5016      6960.4836     -4883.6181     -466.34006      68839.708      40.983874      40.983874      40.983874      1.0631387     -3139.0419      0.40434451     133.70204    
      8600   8600           303.18528      332.10001      1949.1966      1616.1543      5132.3266     -3516.1724      1012.6621      4873.6169     -8416.7199     -52.810211     -3028.8918      6978.8162     -4882.8456     -466.86049      68762.969      40.968639      40.968639      40.968639      1.0643252     -164.9459       154.5442       1006.7017    
      8700   8700           300.41171      478.21653      2146.488       1667.3536      5085.3756     -3418.022       1016.2585      4942.6308     -8428.626      -49.378228     -2974.7145      6963.4306     -4887.6232     -467.28818      68700.034      40.956137      40.956137      40.956137      1.0653002      403.52121      1150.5098     -119.38144    
      8800   8800           302.70939      118.55198      1808.0937      1689.211       5124.2707     -3435.0597      1049.4622      4877.8514     -8398.226      -52.356799     -2988.306       6965.6665     -4889.1509     -466.88298      68759.658      40.967982      40.967982      40.967982      1.0643764     -230.504        364.50447      221.65547    
      8900   8900           301.83815     -736.70456      827.01265      1565.8116      5109.5222     -3543.7106      979.21946      4955.1225     -8491.8995     -52.871527     -2992.6469      6945.9431     -4886.5778     -466.85788      68763.354      40.968716      40.968716      40.968716      1.0643192      469.75032     -889.4227      -1790.4413    
      9000   9000           295.29728      775.74422      2275.0099      1496.8561      4998.7983     -3501.9422      1018.6534      4908.1788     -8443.9841     -49.111463     -3000.4964      6952.4973     -4887.6798     -466.73539      68781.4        40.972299      40.972299      40.972299      1.06404        1129.616       646.19503      551.42164    
      9100   9100           300.8359      -159.01211      1395.7175      1555.6008      5092.5562     -3536.9554      1008.2248      4863.5671     -8426.0903     -52.942875     -2998.8557      6957.8542     -4888.7126     -465.6339       68944.108      41.004582      41.004582      41.004582      1.0615289      184.30779      169.74528     -831.08941    
      9200   9200           298.65704      1017.6087      2682.1522      1657.8802      5055.6724     -3397.7922      1009.6957      5026.784      -8486.7261     -55.407546     -2950.178       6946.0948     -4888.055      -465.13941      69017.401      41.019107      41.019107      41.019107      1.0604016      777.4517       478.51794      1796.8566    
      9300   9300           296.7662      -12.785567      1665.4818      1678.3705      5023.6643     -3345.2938      1048.3096      4949.967      -8391.2193     -57.836247     -2966.7942      6956.9117     -4884.6325     -464.43698      69121.787      41.039776      41.039776      41.039776      1.0588002     -99.063773     -205.82261      266.52969    
      9400   9400           304.2177       84.731985      1741.6988      1656.1331      5149.8033     -3493.6702      992.57977      4950.3342     -8417.6888     -52.687267     -3040.9741      6960.739      -4885.973      -463.62359      69243.055      41.063763      41.063763      41.063763      1.0569459     -389.81482      244.01132      399.99946    
      9500   9500           297.89163     -175.58407      1423.7217      1601.0078      5042.7156     -3441.7078      1018.5879      4958.4469     -8471.8541     -52.629094     -2958.8579      6950.5526     -4885.9541     -463.69038      69233.081      41.061791      41.061791      41.061791      1.0570981      524.02182      466.53446     -1517.3085    
      9600   9600           300.39549     -489.66435      1091.4648      1585.5691      5085.1009     -3499.5318      1043.6269      4913.7187     -8485.7673     -53.770123     -2992.0802      6957.5929     -4882.8526     -463.97805      69190.156      41.053303      41.053303      41.053303      1.0577539     -1165.2865     -964.75646      661.04996    
      9700   9700           298.06782     -335.86184      1250.3456      1588.8006      5045.6981     -3456.8974      1037.1931      4978.4255     -8493.9006     -51.933274     -2997.508       6955.4359     -4884.6101     -464.59807      69097.82       41.035032      41.035032      41.035032      1.0591674      376.54687     -481.2567      -902.87568    
      9800   9800           299.1474       1397.8008      3004.1654      1597.4283      5063.9733     -3466.5449      988.60993      4894.906      -8450.8291     -51.092945     -2937.8948      6970.4194     -4880.6634     -465.211        69006.78       41.017003      41.017003      41.017003      1.0605648      1320.4858      217.83875      2655.0777    
      9900   9900           298.94775     -918.62661      680.19229      1604.3589      5060.5936     -3456.2347      1058.6005      4918.619      -8460.7956     -54.767361     -2984.1287      6952.5143     -4886.277      -465.37858      68981.933      41.012079      41.012079      41.012079      1.0609468     -3.4921127     -1968.2835     -784.10421    
     10000   10000          298.27389      531.38939      2149.6662      1615.8027      5049.1865     -3433.3838      1028.8229      4899.9257     -8424.5112     -50.623637     -2960.2766      6958.4615     -4885.1825     -466.01539      68887.668      40.993389      40.993389      40.993389      1.0623986      399.93153      896.32025      297.9164     
     10100   10100          302.07764      401.83807      2094.8898      1691.2982      5113.5764     -3422.2782      1048.0917      4872.0625     -8422.3338     -53.672486     -2940.8442      6961.578      -4887.1599     -466.15102      68867.625      40.989413      40.989413      40.989413      1.0627078      1169.2083      622.56198     -586.25612    
     10200   10200          302.9098      -575.18073      1137.3053      1715.1835      5127.6632     -3412.4797      1058.8323      4998.3706     -8508.7032     -53.89046      -2979.3876      6957.9142     -4885.6155     -465.99972      68889.985      40.993849      40.993849      40.993849      1.0623628     -899.47266     -538.65503     -287.41448    
     10300   10300          296.95746      1234.7574      2823.4701      1583.1467      5026.9018     -3443.7551      997.88554      4949.2648     -8463.33       -54.463698     -2958.9703      6970.0442     -4884.1857     -466.08417      68877.503      40.991373      40.991373      40.991373      1.0625554      3038.2424      1355.2203     -689.19051    
     10400   10400          293.35702     -444.46062      1085.1003      1532.577       4965.9535     -3433.3766      1039.1047      4899.7952     -8427.5717     -50.758151     -2992.7779      6979.501      -4880.6697     -465.02957      69033.704      41.022336      41.022336      41.022336      1.0601511     -408.30727      75.515697     -1000.5903    
     10500   10500          301.67066     -322.87632      1252.7423      1578.0156      5106.687      -3528.6714      1040.7312      4911.6457     -8542.2907     -54.273084     -2963.369       6958.5265     -4879.642      -464.73515      69077.439      41.030998      41.030998      41.030998      1.0594799     -1609.5761      835.05133     -194.10422    
     10600   10600          297.14224     -108.30051      1519.0533      1628.1061      5030.0298     -3401.9237      1027.2447      4975.3258     -8484.0089     -52.146518     -2944.4368      6956.5615     -4880.4634     -464.9556       69044.686      41.024512      41.024512      41.024512      1.0599825      1622.8756     -272.50868     -1675.2684    
     10700   10700          299.43121     -528.40574      1151.4264      1683.8648      5068.7777     -3384.9129      1038.1457      5060.1953     -8481.0715     -52.77577      -3025.8384      6959.9839     -4883.5521     -464.63914      69091.712      41.033823      41.033823      41.033823      1.0592611     -1270.0773      500.57728     -815.71723    
     10800   10800          306.6728      -40.501259      1789.9925      1830.7257      5191.3633     -3360.6376      1045.2099      5035.5317     -8469.9387     -52.413051     -2999.9102      6964.8224     -4883.9398     -465.51939      68961.066      41.007943      41.007943      41.007943      1.0612678     -128.20972     -273.81463      280.52058    
     10900   10900          300.88462     -236.86773      1520.2874      1758.0723      5093.3809     -3335.3086      1060.1548      4970.1014     -8424.1438     -56.145619     -2962.1021      6962.5169     -4885.6902     -466.3794       68833.902      40.982722      40.982722      40.982722      1.0632284      1910.5458     -907.72384     -1713.4251    
     11000   11000          301.389        1374.1023      3037.1189      1658.8151      5101.9191     -3443.1041      1024.2283      4910.5127     -8458.885      -53.388627     -2944.5847      6966.4303     -4887.417      -466.75797      68778.073      40.971639      40.971639      40.971639      1.0640914      468.23397      1460.8524      2193.2205    
     11100   11100          297.43795     -890.74153      710.3997       1605.9645      5035.0356     -3429.0712      987.30302      5029.7503     -8435.7847     -55.531289     -3033.1576      6962.5091     -4884.1601     -465.66364      68939.704      41.003709      41.003709      41.003709      1.0615967      332.81303     -1663.7031     -1341.3345    
     11200   11200          298.79066      537.23651      2118.998       1578.3191      5057.9344     -3479.6153      976.18235      4921.6601     -8444.8742     -51.706871     -2972.1277      6974.1958     -4882.9447     -465.20428      69007.778      41.0172        41.0172        41.0172        1.0605494      1263.5783     -230.89319      579.02438    
     11300   11300          300.19134     -990.84041      601.27059      1598.6573      5081.6452     -3482.9879      1033.0193      4975.7196     -8508.9769     -55.605296     -3009.0945      6964.6749     -4882.7251     -465.11226      69021.431      41.019905      41.019905      41.019905      1.0603396     -453.19421     -847.04989     -1672.2771    
     11400   11400          298.08931      1231.8053      2930.8834      1694.0693      5046.0619     -3351.9925      999.70974      5030.7254     -8451.7393     -55.113675     -2969.3162      6976.7271     -4882.9856     -466.28914      68847.225      40.985366      40.985366      40.985366      1.0630226      2125.5186      632.1386       937.75885    
     11500   11500          306.05079      531.07039      2274.9809      1742.6299      5180.8339     -3438.204       1003.0391      4895.856      -8415.157      -53.836571     -2947.9112      6964.3618     -4884.556      -467.05891      68733.757      40.962837      40.962837      40.962837      1.0647775     -294.42484      256.05077      1631.5852    
     11600   11600          299.54642     -1029.1492      595.8992       1628.3518      5070.7278     -3442.376       1046.8577      4971.6298     -8439.8198     -50.574223     -3046.0717      6959.47       -4883.8678     -466.68713      68788.512      40.973712      40.973712      40.973712      1.06393       -338.70043     -1203.665      -1545.0821    
     11700   11700          297.99082      356.7556       1922.5571      1564.4138      5044.3947     -3479.9809      1047.3016      4919.4107     -8477.2996     -52.893431     -2999.7543      6966.6645     -4883.4104     -466.37104      68835.135      40.982966      40.982966      40.982966      1.0632094      352.53734      1234.9647     -517.23521    
     11800   11800          297.26042     -699.22534      885.81809      1590.2609      5032.0304     -3441.7694      1046.055       4951.5304     -8454.8661     -54.161128     -3016.0284      6968.6981     -4882.9973     -464.71749      69080.063      41.031517      41.031517      41.031517      1.0594397     -1223.2716     -513.28101     -361.12344    
     11900   11900          297.93302     -576.92672      1071.86        1653.771       5043.4162     -3389.6452      1059.8155      4989.3081     -8479.0914     -52.422839     -2988.9928      6965.6568     -4883.9187     -464.17497      69160.802      41.047497      41.047497      41.047497      1.0582029     -1315.0217     -200.36472     -215.39378    
     12000   12000          304.33656     -520.48701      1217.9968      1742.1521      5151.8154     -3409.6633      1040.5267      4994.4362     -8471.0609     -51.905469     -3005.713       6967.6089     -4883.5557     -464.90852      69051.679      41.025897      41.025897      41.025897      1.0598752     -2063.6212      1377.1409     -874.9807     
     12100   12100          307.27139     -402.7564       1428.7613      1834.0385      5201.4964     -3367.4578      1061.6632      4909.0373     -8424.1673     -53.518415     -2943.9079      6967.7116     -4884.2763     -465.27309      68997.572      41.015178      41.015178      41.015178      1.0607063      188.83069     -304.90461     -1092.1953    
     12200   12200          300.84018      63.061027      1903.5563      1840.0246      5092.6287     -3252.6041      1082.1681      5039.3962     -8418.9015     -52.874081     -2989.3838      6972.3025     -4885.3115     -464.71677      69080.17       41.031538      41.031538      41.031538      1.059438      -466.76163      281.96409      373.98061    
     12300   12300          302.94264     -410.17223      1277.3041      1690.7673      5128.2192     -3437.4519      1008.9604      5013.0105     -8513.1974     -51.211255     -2982.1818      6970.0574     -4882.8898     -464.45855      69118.576      41.039141      41.039141      41.039141      1.0588494     -471.36261      618.48563     -1377.6397    
     12400   12400          297.75506     -258.77338      1346.0827      1607.3668      5040.4037     -3433.0369      1039.4543      4910.1131     -8402.0798     -53.716463     -3015.8973      6973.4746     -4884.3853     -463.68639      69233.677      41.061909      41.061909      41.061909      1.057089      -1287.0056     -993.41901      1504.1045    
     12500   12500          298.75445      431.9739       2024.2428      1588.2763      5057.3214     -3469.0451      1002.4166      4905.5897     -8451.2614     -53.747763     -2954.8923      6968.0508     -4885.2008     -463.89739      69202.186      41.055682      41.055682      41.055682      1.0575701      1130.209       1555.8646     -1390.1519    
     12600   12600          301.57605     -141.61173      1509.1137      1651.9805      5105.0855     -3453.105       1012.7904      4960.1589     -8431.3318     -51.847286     -3022.3077      6966.2568     -4886.8242     -464.07215      69176.126      41.050528      41.050528      41.050528      1.0579685     -854.0201      -306.44736      735.63227    
     12700   12700          301.738       -267.7353       1480.9656      1751.0027      5107.827      -3356.8243      1080.2067      4966.6516     -8472.9972     -52.589537     -2953.8071      6962.7846     -4887.0733     -464.19422      69157.935      41.046929      41.046929      41.046929      1.0582467      252.97341     -446.71572     -609.46359    
     12800   12800          302.09547     -186.2576       1571.7125      1759.495       5113.8783     -3354.3833      1042.1827      4955.5082     -8454.613      -52.176829     -2920.6599      6961.2792     -4885.9037     -464.38303      69129.816      41.041365      41.041365      41.041365      1.0586772     -774.48123      710.78114     -495.0727     
     12900   12900          297.56005      416.97573      1994.9394      1574.6645      5037.1026     -3462.4381      1045.8812      4946.5263     -8489.7583     -52.894594     -2988.3762      6962.9708     -4886.7872     -464.50989      69110.937      41.037629      41.037629      41.037629      1.0589664     -297.54714      554.10018      994.37415    
     13000   13000          295.55435     -422.49236      1124.6551      1549.3074      5003.1501     -3453.8427      1025.7254      4899.2113     -8464.8782     -51.168494     -2928.7776      6955.3969     -4889.352      -465.80376      68918.966      40.999597      40.999597      40.999597      1.0619161     -413.51703     -120.85738     -733.10265    
     13100   13100          303.21293     -9.7915824      1569.9175      1579.7532      5132.7946     -3553.0414      982.25137      4961.4421     -8509.6298     -53.011939     -3007.7408      6958.6126     -4884.9651     -466.08493      68877.39       40.991351      40.991351      40.991351      1.0625571     -224.11433      867.27049     -672.53091    
     13200   13200          303.55045      835.69043      2476.4662      1635.8856      5138.5082     -3502.6226      1023.2941      4887.0361     -8488.1805     -49.71001      -2952.9159      6965.2852     -4887.4316     -465.46144      68969.652      41.009645      41.009645      41.009645      1.0611357      1039.0296      1497.4278     -29.386059    
     13300   13300          302.97356     -1184.6034      463.78458      1660.217       5128.7425     -3468.5255      1004.8852      4944.9442     -8457.7552     -53.656016     -2992.1861      6969.8563     -4884.6139     -463.55623      69253.116      41.065751      41.065751      41.065751      1.0567923     -862.54062     -1721.3127     -969.95679    
     13400   13400          299.94133      34.601079      1623.6205      1588.5709      5077.4129     -3488.8421      1038.0105      4835.2872     -8457.7955     -48.978711     -2947.15        6977.7985     -4886.014      -462.19341      69457.315      41.106074      41.106074      41.106074      1.0536854     -159.56853     -522.27144      785.64321    
     13500   13500          295.60207      160.71133      1656.7751      1493.7679      5003.9578     -3510.1899      995.63193      4866.7874     -8452.0122     -50.110254     -2964.6641      6978.3497     -4884.1723     -461.59088      69547.981      41.123952      41.123952      41.123952      1.0523118      700.78189      259.84934     -478.49726    
     13600   13600          300.34024     -688.29664      828.5109       1526.6143      5084.1656     -3557.5513      999.6994       4850.5626     -8478.185      -48.526102     -2965.3179      6966.6715     -4882.4559     -461.60824      69545.366      41.123436      41.123436      41.123436      1.0523514     -1437.0642     -130.9602      -496.86549    
     13700   13700          300.62715     -618.8259       1022.4361      1649.0216      5089.0224     -3440.0008      1075.7423      5012.1785     -8520.5691     -52.495652     -3021.019       6952.298      -4886.1358     -462.38717      69428.211      41.100331      41.100331      41.100331      1.0541271      391.81747     -1658.5935     -589.70167    
     13800   13800          302.23785      572.37682      2247.3424      1670.5935      5116.2885     -3445.6951      1043.133       4860.7146     -8456.936      -51.935311     -2923.5378      6966.2131     -4883.3466     -464.636        69092.179      41.033916      41.033916      41.033916      1.0592539      108.88065      582.23051      1026.0193    
     13900   13900          301.62838      907.1866       2543.0102      1632.466       5105.9713     -3473.5053      969.59994      4971.5938     -8492.9387     -53.068269     -2953.8039      6967.6452     -4882.5334     -466.45872      68822.196      40.980398      40.980398      40.980398      1.0634092      1726.7398      1708.1105     -713.29055    
     14000   14000          299.04345     -146.78388      1429.0511      1576.0812      5062.2137     -3486.1324      1038.9539      4840.8015     -8442.9756     -49.777247     -2961.2691      6972.1292     -4883.995      -467.40099      68683.452      40.952841      40.952841      40.952841      1.0655574     -243.14429     -911.97232      714.76498    
     14100   14100          299.6585       618.78678      2142.6104      1522.2056      5072.6251     -3550.4195      988.66383      4954.8122     -8491.772      -52.384585     -3030.4607      6968.3361     -4887.6143     -466.96407      68747.717      40.96561       40.96561       40.96561       1.0645613      760.08405      518.49812      577.77816    
     14200   14200          296.12302     -620.35874      821.03485      1443.0016      5012.7764     -3569.7748      1025.9879      4906.6178     -8517.9815     -50.242301     -2993.3461      6950.6178     -4891.4284     -466.97469      68746.154      40.9653        40.9653        40.9653        1.0645855     -608.71809     -766.23337     -486.12476    
     14300   14300          294.03674      512.64994      1899.9952      1386.3964      4977.4599     -3591.0635      977.18296      4913.086      -8489.0421     -52.769332     -3020.0707      6964.3567     -4883.8071     -467.32023      68695.321      40.9552        40.9552        40.9552        1.0653733      785.89655      442.11301      309.94027    
     14400   14400          297.7823      -203.88637      1306.6442      1510.8573      5040.8647     -3530.0075      1010.2235      4908.1922     -8466.8083     -47.268327     -3009.7726      6964.3816     -4888.9555     -467.43619      68678.28       40.951813      40.951813      40.951813      1.0656376     -567.46292     -1621.6239      1577.4277    
     14500   14500          300.68868      220.10133      1817.2505      1596.7369      5090.0641     -3493.3272      1038.5413      4986.9784     -8543.1449     -52.340347     -2997.7274      6962.4657     -4888.0999     -467.30999      68696.827      40.955499      40.955499      40.955499      1.0653499     -389.87667      1547.3106     -497.12993    
     14600   14600          300.58335     -273.5203       1342.4556      1617.0292      5088.281      -3471.2518      1060.3605      4844.4375     -8425.8499     -50.31511      -2980.1557      6965.1855     -4884.9146     -466.38911      68832.468      40.982437      40.982437      40.982437      1.0632506     -110.36342      471.28158     -1181.4791    
     14700   14700          297.61767      383.71579      2017.4266      1631.3974      5038.0779     -3406.6805      1029.8808      5007.1591     -8462.7955     -54.2084       -3005.4039      6963.3658     -4884.6783     -465.37934      68981.819      41.012057      41.012057      41.012057      1.0609485     -1011.3226      1749.7832      412.68677    
     14800   14800          295.22169     -422.01817      1187.8901      1613.1619      4997.5188     -3384.3569      1030.6717      4979.2177     -8436.8528     -49.842575     -2994.6528      6973.4284     -4886.3265     -464.6032       69097.057      41.034882      41.034882      41.034882      1.0591791      617.13183     -728.00056     -1155.1858    
     14900   14900          298.86679     -44.818037      1567.7052      1612.829       5059.2231     -3446.3941      1028.9466      4904.7548     -8437.4468     -50.545745     -2976.5852      6971.3932     -4886.9109     -465.01182      69036.34       41.022858      41.022858      41.022858      1.0601107     -261.48653      155.04667     -28.014256    
     15000   15000          299.81626      366.19122      1999.6334      1632.1886      5075.2958     -3443.1072      991.12354      5055.1112     -8530.9123     -51.550355     -2988.4103      6967.1213     -4885.5902     -466.58795      68803.134      40.976615      40.976615      40.976615      1.0637039      127.33996     -240.34265      1211.5763    
     15100   15100          301.63523     -121.43924      1471.3422      1593.0378      5106.0873     -3513.0494      1011.4169      4908.9433     -8462.8406     -50.614694     -3001.6079      6968.3712     -4886.7176     -467.19891      68713.161      40.958745      40.958745      40.958745      1.0650967     -710.18461      201.91416      143.95272    
     15200   15200          296.38623      621.29072      2121.8098      1499.8584      5017.2321     -3517.3738      1029.1907      4846.1008     -8397.1659     -51.289385     -3022.9864      6963.89       -4885.1135     -467.68781      68641.33       40.944468      40.944468      40.944468      1.0662113      486.773        648.34209      728.75709    
     15300   15300          296.61877      619.60699      2094.6827      1475.4496      5021.1685     -3545.7189      963.66195      4989.1664     -8525.03       -51.270451     -2999.2908      6962.2462     -4885.2023     -468.46782      68527.042      40.921731      40.921731      40.921731      1.0679895      416.48725      539.9957       902.33801    
     15400   15400          297.79278     -596.2267       1012.7029      1609.2895      5041.0423     -3431.7528      999.85536      4985.1868     -8411.1653     -51.895275     -3034.7816      6965.9769     -4884.9296     -467.90273      68609.802      40.938198      40.938198      40.938198      1.0667012     -935.85139     -947.76435      94.935643    
     15500   15500          304.17086      692.6509       2372.9685      1680.4843      5149.0105     -3468.5262      947.99517      4989.4528     -8432.8997     -53.958575     -3007.4007      6969.2223     -4880.9375     -468.29787      68551.911      40.926681      40.926681      40.926681      1.067602       1089.9572      1364.8648     -376.86929    
     15600   15600          302.42373      707.61735      2381.2722      1674.8411      5119.435      -3444.5939      1001.1489      4971.7183     -8459.6575     -53.325678     -2992.0948      6971.0013     -4883.3844     -468.97137      68453.461      40.907079      40.907079      40.907079      1.0691375      39.216437      414.08447      1669.5512    
     15700   15700          303.62547      185.33833      1824.4574      1639.0747      5139.7782     -3500.7035      1013.3052      4919.8246     -8483.2401     -55.107658     -2988.6203      6975.7854     -4882.6505     -468.07291      68584.857      40.933236      40.933236      40.933236      1.0670892     -523.27723      1465.5708     -386.27861    
     15800   15800          296.17972     -678.74061      848.33212      1530.4315      5013.7364     -3483.3048      1007.2377      4925.4934     -8425.8981     -50.499384     -3022.7621      6969.9749     -4886.8513     -465.87971      68907.731      40.997369      40.997369      40.997369      1.0620892      234.55354     -2063.9812     -206.79417    
     15900   15900          296.43718      89.923186      1583.2569      1492.4602      5018.0946     -3525.6344      975.86813      4965.0234     -8517.4674     -55.113018     -2985.0151      6975.0333     -4883.9637     -463.68077      69234.516      41.062075      41.062075      41.062075      1.0570762     -672.55342      607.44978      334.8732     
     16000   16000          300.73163     -1130.8896      482.12924      1625.2983      5090.7911     -3465.4928      988.74341      4896.5185     -8417.956      -53.561607     -2958.9536      6967.4982     -4887.7818     -463.1561       69312.946      41.077574      41.077574      41.077574      1.0558801     -1460.6762     -177.29833     -1754.6941    
     16100   16100          300.80515     -238.15515      1458.2007      1698.9371      5092.0357     -3393.0986      1044.0469      4968.8812     -8476.3108     -53.598372     -2953.48        6967.7023     -4890.3399     -463.1651       69311.598      41.077308      41.077308      41.077308      1.0559006      259.4525      -427.89312     -546.02482    
     16200   16200          302.11636      115.37768      1791.1242      1674.6901      5114.2318     -3439.5417      1063.962       4907.1077     -8495.4426     -51.391237     -2952.2943      6975.0994     -4886.5827     -463.93705      69196.27       41.054512      41.054512      41.054512      1.0576605     -1008.5215      851.26929      503.38526    
     16300   16300          297.34545     -617.1268       997.8249       1620.2065      5033.4698     -3413.2633      1043.1712      5037.4874     -8504.0857     -52.210382     -3027.7883      6973.4227     -4883.2603     -464.23227      69152.266      41.045808      41.045808      41.045808      1.0583335     -124.17058     -688.18718     -1039.0227    
     16400   16400          298.82486      68.311746      1619.5788      1550.835       5058.5132     -3507.6783      990.62784      4905.7364     -8463.2618     -52.321486     -2976.6727      6972.1607     -4883.9471     -465.24241      69002.122      41.01608       41.01608       41.01608       1.0606364     -234.91562      104.89562      334.95524    
     16500   16500          290.74012     -1529.4407     -73.818916      1461.2734      4921.6546     -3460.3813      1053.359       4890.1345     -8441.9168     -49.810336     -2981.7704      6955.3528     -4885.73       -466.46149      68821.787      40.980317      40.980317      40.980317      1.0634156     -1669.3018     -1825.8031     -1093.2172    
     16600   16600          296.87138      968.43963      2504.2821      1534.6034      5025.4448     -3490.8414      1036.1695      4937.0931     -8488.3719     -51.271649     -3023.3624      6981.2836     -4882.3817     -467.5869       68656.144      40.947413      40.947413      40.947413      1.0659812      1594.7977      90.745097      1219.7761    
     16700   16700          300.17806     -744.27984      923.7212       1668.1048      5081.4203     -3413.3155      1027.2888      5067.7743     -8485.3073     -53.521848     -3055.9123      6965.4079     -4879.0451     -468.11992      68577.97       40.931866      40.931866      40.931866      1.0671964     -613.56956     -441.7141      -1177.5559    
     16800   16800          300.28246      415.40801      2095.7504      1680.4637      5083.1876     -3402.7239      1063.0825      4983.2681     -8451.8162     -53.952063     -3017.4721      6959.7102     -4885.5443     -468.32193      68548.389      40.92598       40.92598       40.92598       1.0676569      1572.2446     -232.36999     -93.650569    
     16900   16900          301.01159      911.24403      2510.7287      1599.4797      5095.5304     -3496.0506      995.97312      4958.638      -8481.7133     -50.731365     -3002.4146      6967.121      -4882.9234     -468.1826       68568.789      40.930039      40.930039      40.930039      1.0673393      428.30334      1698.8408      606.58792    
     17000   17000          299.99417     -101.43826      1423.6305      1525.3796      5078.3075     -3552.9278      990.87059      4886.992      -8450.0024     -50.690527     -3011.6215      6965.9086     -4884.3846     -466.75449      68778.586      40.971741      40.971741      40.971741      1.0640835     -438.14569      902.13893     -768.30803    
     17100   17100          299.35824     -204.44976      1331.1583      1536.7478      5067.5423     -3530.7945      1044.2938      4850.3767     -8443.3208     -50.75918      -3012.1458      6963.9672     -4883.2066     -465.58975      68950.646      41.005878      41.005878      41.005878      1.0614282     -294.1834       742.32825     -1061.4941    
     17200   17200          300.18935     -1027.8052      548.75212      1582.5559      5081.6115     -3499.0555      1021.1113      4956.1939     -8507.4194     -52.704171     -2984.6888      6955.2598     -4886.8082     -465.46853      68968.602      41.009437      41.009437      41.009437      1.0611518     -334.28842     -2338.5908     -410.53639    
     17300   17300          300.33395      1158.4771      2775.8797      1612.4266      5084.0593     -3471.6327      1044.3745      4908.3108     -8527.4288     -52.830187     -2932.1841      6973.6171     -4885.492      -466.18276      68862.937      40.988483      40.988483      40.988483      1.0627801      1688.1811      471.7101       1315.5402    
     17400   17400          297.86151     -203.97062      1404.3929      1609.5403      5042.2057     -3432.6654      1018.7367      4968.7446     -8477.8811     -53.465928     -2972.4692      6966.1604     -4882.4909     -465.49942      68964.026      41.00853       41.00853       41.00853       1.0612223     -882.99841     -71.263861      342.35042    
     17500   17500          303.05575      123.27163      1777.3091      1653.0897      5130.1339     -3477.0442      995.59517      4969.7424     -8461.0269     -51.654673     -3003.1921      6958.4504     -4884.9585     -464.61326      69095.561      41.034585      41.034585      41.034585      1.059202       240.61885      843.27568     -714.07964    
     17600   17600          301.15788     -322.46407      1460.099       1785.3908      5098.0067     -3312.6159      1079.8529      5036.401      -8492.6154     -54.295647     -2956.5212      6961.3516     -4886.7892     -464.11521      69169.708      41.049258      41.049258      41.049258      1.0580666     -288.84737     -422.65114     -255.8937     
     17700   17700          308.57424     -860.78086      942.84634      1811.077       5223.5509     -3412.4739      1070.5617      5010.0127     -8489.1759     -51.127184     -3036.8426      6968.2642     -4884.1668     -464.16793      69161.852      41.047704      41.047704      41.047704      1.0581868      28.607376     -884.89735     -1726.0526    
     17800   17800          304.26254      1229.3868      2943.1033      1704.2128      5150.5624     -3446.3496      1029.5654      4934.5932     -8478.5594     -50.148445     -2975.233       6976.3418     -4882.9092     -464.59365      69098.477      41.035163      41.035163      41.035163      1.0591573      124.41647      1219.8179      2343.9262    
     17900   17900          302.81524     -112.37898      1513.2258      1626.4374      5126.0626     -3499.6251      1034.6693      4854.2165     -8469.2309     -49.542447     -2949.3918      6964.8517     -4885.1975     -464.74195      69076.428      41.030797      41.030797      41.030797      1.0594954      548.5423      -1053.8145      168.13522    
     18000   18000          301.50871     -990.51264      613.36818      1610.9114      5103.9455     -3493.0342      1010.992       4900.6613     -8441.524      -50.782919     -2991.5157      6965.734      -4886.5989     -464.88545      69055.105      41.026575      41.026575      41.026575      1.0598226     -1047.0049     -1372.3212     -552.21184    
     18100   18100          299.76581      177.71118      1786.6876      1607.9733      5074.4417     -3466.4685      1071.5531      4864.2719     -8449.5024     -53.445103     -2986.7711      6972.5715     -4885.1463     -465.55712      68955.477      41.006836      41.006836      41.006836      1.0613538      1259.6801     -188.15089     -538.39568    
     18200   18200          292.92321     -244.30115      1394.2231      1640.1287      4958.61       -3318.4813      1086.0098      4923.5762     -8431.548      -54.218067     -2921.9467      6966.067      -4886.4215     -465.13034      69018.749      41.019374      41.019374      41.019374      1.0603809      429.09582     -1698.4111      536.41181    
     18300   18300          299.40446      688.301        2407.1182      1713.4019      5068.3247     -3354.9228      1031.8584      4961.2359     -8440.6197     -53.65004      -2940.6978      6972.2686     -4885.3182     -464.53038      69107.888      41.037025      41.037025      41.037025      1.0590131      532.0376       2203.9062     -671.04081    
     18400   18400          305.51593      44.833649      1773.0276      1727.7543      5171.7799     -3444.0256      1043.3005      4865.1349     -8418.1082     -50.513187     -2972.4425      6975.0057     -4886.4028     -463.63868      69240.801      41.063317      41.063317      41.063317      1.0569802      1591.1062     -1791.8513      335.24607    
     18500   18500          298.56501      175.69978      1817.4701      1639.8726      5054.1146     -3414.242       1016.1225      5041.4364     -8535.6808     -55.418349     -2962.174       6964.3591     -4882.8868     -463.18245      69309.002      41.076795      41.076795      41.076795      1.0559402     -1183.1086      2314.9337     -604.72577    
     18600   18600          297.90839      109.08344      1661.9412      1551.5896      5042.9992     -3491.4096      1005.7196      4855.1241     -8418.077      -48.1066       -2972.643       6968.9014     -4882.3281     -462.80489      69365.546      41.087962      41.087962      41.087962      1.0550794      204.04076      813.33774     -690.12819    
     18700   18700          295.34069      380.26696      1961.0905      1576.172       4999.5333     -3423.3612      1073.0571      4909.5344     -8490.1728     -52.082872     -2942.4645      6964.5826     -4885.8151     -462.52735      69407.168      41.096179      41.096179      41.096179      1.0544467     -648.62177      953.21587      836.20678    
     18800   18800          295.75755     -654.5738       1030.833       1693.909       5006.5898     -3312.6808      1081.5609      5002.4387     -8423.279      -53.597926     -3008.9939      6970.5275     -4881.3371     -462.18188      69459.048      41.106416      41.106416      41.106416      1.0536591      363.2693       18.815704     -2345.8064    
     18900   18900          304.01937      479.43338      2212.8073      1728.1779      5146.446      -3418.2682      1040.4773      4994.8616     -8518.4272     -56.042815     -2953.6976      6959.6675     -4885.107      -463.16541      69311.552      41.077299      41.077299      41.077299      1.0559013      433.16507     -545.29198      1550.4271    
     19000   19000          306.64526     -287.10104      1394.6048      1684.0994      5190.8971     -3506.7978      1045.3041      4873.5539     -8465.4805     -53.4624       -2977.8384      6956.0681     -4884.9425     -464.31418      69140.067      41.043394      41.043394      41.043394      1.0585202      393.13617     -13.239089     -1241.2002    
     19100   19100          303.56291     -85.060489      1511.7319      1597.2685      5138.7191     -3541.4506      1015.3796      4936.6        -8500.4055     -52.634238     -3007.8629      6952.0872     -4884.6148     -465.57866      68952.288      41.006203      41.006203      41.006203      1.0614029     -775.24547     -259.80617      779.87017    
     19200   19200          300.79357     -963.62244      573.07165      1539.9011      5091.8397     -3551.9386      1047.1077      4887.9973     -8440.7868     -52.034611     -3058.7961      6948.5501     -4883.9762     -466.63216      68796.616      40.975321      40.975321      40.975321      1.0638046     -597.37091     -1456.6136     -836.88278    
     19300   19300          298.73953      480.36823      2030.4927      1550.9697      5057.0689     -3506.0992      993.54277      5066.1739     -8547.8        -54.63352      -3031.5451      6952.144      -4883.9812     -469.01038      68447.768      40.905945      40.905945      40.905945      1.0692264      1039.2693     -1074.0311      1475.8665    
     19400   19400          300.32599      369.16762      2064.2044      1696.4369      5083.9244     -3387.4875      1041.3971      5044.2563     -8543.4285     -53.081605     -2946.7227      6953.5922     -4883.5002     -469.96761      68308.354      40.878154      40.878154      40.878154      1.0714086     -239.97754      129.71559      1217.7648    
     19500   19500          302.87273     -118.62558      1629.737       1748.3574      5127.0356     -3378.6782      1053.1974      5064.0134     -8425.0162     -52.666767     -3084.3451      6952.5359     -4886.3968     -468.20522      68565.476      40.92938       40.92938       40.92938       1.0673908     -252.79815     -238.45037      135.37179    
     19600   19600          299.92233      12.429966      1679.5211      1667.063       5077.0912     -3410.0282      1034.2838      4993.487      -8487.8311     -53.510645     -2955.5855      6946.0649     -4886.9366     -467.12909      68723.43       40.960786      40.960786      40.960786      1.0649375     -543.00989      1324.6979     -744.39809    
     19700   19700          300.26127     -670.5042       914.85162      1590.3527      5082.8288     -3492.4761      1040.133       4894.2059     -8437.9712     -52.018993     -3008.7322      6956.4144     -4884.5071     -464.72186      69079.414      41.031389      41.031389      41.031389      1.0594496     -1498.5418      149.62567     -662.59651    
     19800   19800          297.4902      -1373.4319      192.52367      1580.5765      5035.9201     -3455.3435      1073.2245      4914.9987     -8431.2324     -54.183489     -3030.8634      6958.6794     -4885.9669     -463.25357      69298.363      41.074693      41.074693      41.074693      1.0561023     -780.54772     -1600.5857     -1739.1624    
     19900   19900          296.16719      453.9718       2087.2155      1629.0553      5013.5242     -3384.4689      1061.0696      4976.9394     -8453.3033     -54.430118     -2996.5932      6966.6648     -4884.8161     -463.90505      69201.044      41.055456      41.055456      41.055456      1.0575875      1080.4769      458.1992      -176.76067    
     20000   20000          300.34646     -1064.909       670.10359      1740.6232      5084.2709     -3343.6477      1076.1027      5024.4563     -8499.5242     -53.20447      -2975.6654      6966.0245     -4881.837      -465.7314       68929.675      41.00172       41.00172       41.00172       1.0617511     -1573.047      -892.67568     -729.00444    
     20100   20100          306.31776      361.7664       2172.5437      1810.0582      5185.3533     -3375.2951      1028.6881      5036.0711     -8466.6592     -51.89369      -3012.3454      6972.7881     -4881.9441     -467.25631      68704.719      40.957068      40.957068      40.957068      1.0652276      983.89629      164.98865     -63.585749    
     20200   20200          304.01431      602.23082      2335.0689      1732.2661      5146.3604     -3414.0943      1029.0747      5030.8812     -8460.3958     -52.037227     -3034.1596      6958.5969     -4886.0545     -467.74095      68633.533      40.942917      40.942917      40.942917      1.0663324      45.439312      927.89475      833.35839    
     20300   20300          295.27393     -922.88818      657.05923      1581.4937      4998.4031     -3416.9094      1057.5164      4982.4185     -8469.2357     -51.269258     -3018.8309      6964.8422     -4882.3506     -467.402        68683.304      40.952812      40.952812      40.952812      1.0655597     -888.54318     -1294.2427     -585.8787     
     20400   20400          296.11991     -70.635265      1460.7404      1531.522       5012.7238     -3481.2018      1004.6365      4937.7753     -8437.8748     -55.687383     -3017.6029      6969.3725     -4881.8209     -467.21713      68710.481      40.958213      40.958213      40.958213      1.0651382      460.18301     -258.42969     -413.65911    
     20500   20500          301.17653     -159.44648      1374.2512      1534.0647      5098.3225     -3564.2578      1008.7351      4877.2979     -8441.6115     -53.542408     -3027.928       6957.6631     -4884.8721     -467.10999      68726.241      40.961344      40.961344      40.961344      1.064894      -1153.7831     -491.4831       1166.9268    
     20600   20600          300.19444     -83.180456      1536.0559      1619.3372      5081.6976     -3462.3604      1062.1725      4941.9354     -8489.6266     -52.049806     -2997.939       6955.2124     -4882.0652     -467.61814      68651.557      40.946501      40.946501      40.946501      1.0660524      330.76146     -197.27544     -383.02739    
     20700   20700          303.35257      1448.7132      3139.8043      1689.7319      5135.1585     -3445.4266      998.93004      5021.8045     -8491.3694     -52.934968     -2996.2533      6961.9379     -4887.5413     -467.7463       68632.747      40.942761      40.942761      40.942761      1.0663446      944.84584      1208.1555      2193.1384    
     20800   20800          302.34094     -267.65687      1392.2248      1660.5769      5118.0335     -3457.4565      1031.0591      5003.1451     -8499.4841     -50.289926     -3016.4181      6959.9779     -4885.4464     -466.9721       68746.534      40.965375      40.965375      40.965375      1.0645796     -704.73811     -1307.0629      1208.8304    
     20900   20900          294.80719     -1126.8432      353.81755      1486.8779      4990.5021     -3503.6242      1052.9092      4818.2717     -8421.1057     -46.816003     -2994.9751      6971.7216     -4883.63       -465.6162       68946.729      41.005101      41.005101      41.005101      1.0614885     -1357.5859     -447.56863     -1575.375     
     21000   21000          297.20588      186.00133      1686.3209      1499.0928      5031.1071     -3532.0143      983.84984      4935.3101     -8455.0189     -53.592727     -3010.2818      6952.5655     -4884.8465     -465.11757      69020.642      41.019749      41.019749      41.019749      1.0603518      200.07925     -305.24353      663.16828    
     21100   21100          298.9055      -756.11334      838.89637      1599.9874      5059.8784     -3459.8911      1020.5092      4989.467      -8463.8474     -52.921214     -3025.4568      6957.3951     -4885.037      -465.12314      69019.816      41.019585      41.019585      41.019585      1.0603645     -1394.1934     -557.85225     -316.29439    
     21200   21200          300.81628     -608.88557      1052.1211      1663.1907      5092.224      -3429.0333      1021.9939      4977.175      -8445.2423     -51.250315     -3010.3782      6963.2521     -4884.5834     -466.51181      68814.364      40.978844      40.978844      40.978844      1.0635303     -299.65828     -1651.8786      124.88015    
[...]
    495200   495200         299.18921     -971.09602      622.17755      1603.4585      5064.6809     -3461.2225      1067.7195      4794.7721     -8330.5569     -52.247981     -3026.4352      6969.369      -4883.8429     -463.32577      69287.563      41.072559      41.072559      41.072559      1.0562669     -1505.9691      302.77704     -1710.096     
    495300   495300         304.42102     -119.3252       1521.9073      1642.4894      5153.2452     -3510.7559      1032.6208      4957.0018     -8517.0804     -52.935072     -3006.9287      6960.7289     -4884.1632     -463.30505      69290.663      41.073171      41.073171      41.073171      1.0562197     -628.2682      -287.77907      558.07167    
    495400   495400         301.60509     -588.0358       1088.5434      1681.114       5105.5771     -3424.4632      1033.8154      4893.104      -8447.6861     -50.437412     -2929.8492      6962.5653     -4885.9752     -464.60227      69097.195      41.034909      41.034909      41.034909      1.059177      -428.40516     -1682.6423      346.94009    
    495500   495500         301.09897      584.17285      2307.0597      1719.8207      5097.0095     -3377.1888      1032.9838      4959.5823     -8430.5313     -55.348463     -2966.7585      6966.3718     -4883.4884     -465.74059      68928.314      41.00145       41.00145       41.00145       1.0617721      712.70287     -0.87885625     1040.6945    
    495600   495600         302.0083      -461.91029      1260.1111      1723.214       5112.4027     -3389.1887      1050.9199      5063.9995     -8503.0196     -51.730466     -3018.1819      6953.9092     -4885.0853     -466.97948      68745.448      40.965159      40.965159      40.965159      1.0645964      319.25019     -1240.2266     -464.75444    
    495700   495700         298.34822      38.202891      1635.0424      1596.7517      5050.4447     -3453.693       1048.1258      4951.3646     -8492.6427     -50.542235     -2983.1164      6955.7777     -4882.6598     -467.1119       68725.96       40.961288      40.961288      40.961288      1.0648983     -611.1159       1153.0334     -427.30878    
    495800   495800         300.04025      777.30814      2327.5961      1547.4897      5079.0874     -3531.5976      994.365        4896.4177     -8449.1722     -53.872908     -2998.2627      6961.3452     -4882.4177     -466.50576      68815.257      40.979021      40.979021      40.979021      1.0635165      629.9634       739.57677      962.38424    
    495900   495900         297.46128     -799.57542      779.6543       1583.4592      5035.4306     -3451.9714      1043.2601      4907.4073     -8495.6345     -52.260932     -2930.7751      6958.8641     -4882.8324     -465.72164      68931.118      41.002006      41.002006      41.002006      1.0617289     -758.28228     -1190.0904     -450.35361    
    496000   496000         299.73647      200.93702      1914.4982      1711.8541      5073.9451     -3362.091       1036.9618      5138.5131     -8553.3487     -55.830125     -3012.4881      6965.4968     -4881.3958     -464.24108      69150.955      41.045548      41.045548      41.045548      1.0583536     -865.52484      406.28211      1062.0538    
    496100   496100         302.26203     -607.53979      1133.8219      1747.849       5116.6977     -3368.8488      1054.6747      4952.3888     -8413.2296     -53.139608     -2994.2565      6963.881      -4879.1675     -463.23869      69300.589      41.075133      41.075133      41.075133      1.0560684     -261.29405     -1352.9773     -208.34802    
    496200   496200         301.72288      381.97346      2099.8747      1713.9387      5107.571      -3393.6323      1008.5997      5011.5691     -8495.102      -52.830243     -2956.8359      6970.3456     -4879.3787     -463.37812      69279.736      41.071012      41.071012      41.071012      1.0563862     -624.05988      1509.1344      260.84588    
    496300   496300         299.37364      116.57726      1777.5217      1659.9691      5067.803      -3407.8339      1057.5807      4947.9459     -8463.5018     -52.476535     -2985.0936      6967.7891     -4880.0778     -464.30053      69142.1        41.043796      41.043796      41.043796      1.0584891      351.47769      604.81931     -606.56521    
    496400   496400         298.79372     -558.51392      1030.7525      1592.8055      5057.9862     -3465.1807      1042.4307      4902.8835     -8466.3069     -51.431898     -2976.234       6965.0755     -4881.5976     -465.23711      69002.908      41.016235      41.016235      41.016235      1.0606243     -1756.874      -1074.6816      1156.0139    
    496500   496500         296.68245     -84.975527      1469.9413      1555.1845      5022.2466     -3467.0621      1047.4029      4906.4117     -8440.0641     -51.894057     -3005.2524      6961.9411     -4885.6072     -466.71489      68784.421      40.972899      40.972899      40.972899      1.0639933     -1580.0234      302.47297      1022.6238    
    496600   496600         302.11522      369.15994      1931.3414      1562.3323      5114.2125     -3551.8802      1001.9144      4854.6106     -8442.9781     -52.251446     -2992.9511      6963.0335     -4883.2581     -468.37656      68540.393      40.924388      40.924388      40.924388      1.0677814      849.09817     -511.53448      769.91612    
    496700   496700         301.23641      404.53743      2045.2691      1641.7433      5099.336      -3457.5928      1021.2249      5037.06       -8547.4151     -54.438105     -2997.2666      6964.8198     -4881.5777     -469.35886      68396.948      40.895819      40.895819      40.895819      1.0700208      43.529389     -326.324        1496.4069    
    496800   496800         303.05067     -911.04323      762.8028       1671.6965      5130.0479     -3458.3514      1012.1631      5054.9111     -8527.6024     -52.794705     -3024.9573      6963.9764     -4884.0476     -469.29241      68406.633      40.897749      40.897749      40.897749      1.0698693     -481.15233     -2106.837      -145.1404     
    496900   496900         300.97041      963.71347      2586.903       1623.3606      5094.8332     -3471.4726      950.83534      4925.2455     -8417.3883     -48.919209     -2968.0614      6968.6967     -4881.8812     -468.26826      68556.246      40.927543      40.927543      40.927543      1.0675345      1177.6939      719.11333      994.33316    
    497000   497000         300.58856     -915.17446      665.48124      1584.3606      5088.3693     -3504.0087      1018.4379      4943.5873     -8469.2016     -52.238716     -3021.9942      6958.8521     -4881.4515     -466.29744      68846          40.985123      40.985123      40.985123      1.0630416     -225.83343     -1519.7718     -999.91812    
    497100   497100         299.58099      269.65957      1825.8603      1554.8361      5071.3131     -3516.477       997.66363      4971.4593     -8490.9417     -51.478724     -3005.7445      6948.5647     -4885.9997     -465.82784      68915.404      40.99889       40.99889       40.99889       1.061971       416.75274      366.07874      26.147238    
    497200   497200         301.97563      267.48311      1909.2041      1640.2311      5111.8496     -3471.6185      1013.4087      4977.3536     -8473.553      -52.893411     -3013.3183      6959.8989     -4882.5149     -465.59191      68950.325      41.005814      41.005814      41.005814      1.0614331     -385.68781     -289.53839      1477.6755    
    497300   497300         303.85888      875.97999      2611.7489      1732.6179      5143.7293     -3411.1115      1003.0065      5051.384      -8485.1576     -54.081781     -2979.9086      6939.9686     -4886.3225     -466.50706      68815.065      40.978983      40.978983      40.978983      1.0635195      978.91273      13.18035       1635.8469    
    497400   497400         301.41918     -667.01697      1019.7974      1688.6069      5102.4301     -3413.8232      1106.6896      4834.7483     -8400.1975     -50.973184     -2980.1119      6958.1554     -4882.134      -466.93036      68752.68       40.966596      40.966596      40.966596      1.0644845     -930.3845      -1168.6321      97.96568     
    497500   497500         300.59418      239.12073      1835.5609      1596.0481      5088.4644     -3492.4163      1024.1964      4919.3953     -8445.3752     -52.729915     -3019.2756      6963.9471     -4882.5744     -467.41869      68680.852      40.952324      40.952324      40.952324      1.0655977      1033.6635     -456.74313      140.44179    
    497600   497600         297.48918      600.27282      2172.9868      1571.5304      5035.9028     -3464.3724      1042.8619      5043.4824     -8545.2229     -51.666034     -3035.9069      6965.1466     -4883.0676     -467.26378      68703.621      40.95685       40.95685       40.95685       1.0652446      1153.5016      62.90004       584.41683    
    497700   497700         295.76013     -172.82524      1424.5598      1597.7827      5006.6334     -3408.8507      1045.4594      5003.2332     -8476.8632     -53.192692     -2997.1985      6952.2447     -4882.5336     -467.11019      68726.212      40.961338      40.961338      40.961338      1.0648944      193.34835     -352.35064     -359.47344    
    497800   497800         300.51645      1338.5258      3008.5415      1666.1296      5087.1486     -3421.019       1011.5618      4898.2218     -8433.1217     -50.617254     -2940.8778      6972.9647     -4879.1506     -466.8298       68767.49       40.969537      40.969537      40.969537      1.0642552      187.91532      1219.4799      2608.1822    
    497900   497900         299.78659     -724.84609      962.378        1691.4055      5074.7935     -3383.388       1007.6878      5012.0875     -8461.3439     -53.766095     -2987.8113      6975.3993     -4875.6413     -465.49982      68963.965      41.008518      41.008518      41.008518      1.0612232      50.923652     -109.17871     -2116.2832    
    498000   498000         298.53397      237.21637      1931.4183      1692.6224      5053.5891     -3360.9667      989.07413      5074.1939     -8542.1649     -51.369111     -2918.8486      6970.3375     -4882.1895     -465.0884       69024.972      41.020607      41.020607      41.020607      1.0602852     -72.123387      413.86876      369.90374    
    498100   498100         294.52736      129.65435      1714.8407      1584.2731      4985.7652     -3401.4921      1015.4495      4969.9487     -8479.0926     -53.140971     -2957.8009      6983.2431     -4880.099      -464.91039      69051.4        41.025841      41.025841      41.025841      1.0598794      72.435868     -621.23429      937.76147    
    498200   498200         295.25185     -392.28812      1085.0268      1480.0881      4998.0293     -3517.9412      1008.3673      4915.9047     -8487.4494     -49.473984     -3000.108       6974.8635     -4880.0452     -464.89861      69053.15       41.026188      41.026188      41.026188      1.0598526     -349.31507     -1155.2546      327.70528    
    498300   498300         295.05749      196.54461      1768.1959      1570.4205      4994.7392     -3424.3188      1057.6689      4965.1932     -8481.4356     -54.23005      -2995.4562      6965.5832     -4881.6423     -465.27153      68997.804      41.015224      41.015224      41.015224      1.0607027     -1562.7371      244.5264       1907.8445    
    498400   498400         301.79359      209.24752      1880.2933      1670.1957      5108.768      -3438.5722      1002.9337      4910.3624     -8439.5049     -48.465564     -2967.5603      6982.2483     -4878.5859     -466.29079      68846.981      40.985317      40.985317      40.985317      1.0630264      1714.0637     -501.23757     -585.08361    
    498500   498500         302.78269      568.992        2247.2857      1676.6588      5125.5116     -3448.8527      1007.1578      4963.2897     -8498.6779     -50.576892     -2964.3885      6975.1464     -4880.8035     -466.84378      68765.43       40.969128      40.969128      40.969128      1.0642871      744.0341      -81.437704      1044.3796    
    498600   498600         300.79765     -154.39076      1477.1616      1632.2781      5091.9087     -3459.6306      1025.9135      4883.6561     -8436.9207     -51.027438     -2976.0827      6975.0659     -4880.2353     -465.99474      68890.721      40.993995      40.993995      40.993995      1.0623515      2.9092871     -999.71927      533.6377     
    498700   498700         295.98215     -638.6017       885.30182      1527.9785      5010.3919     -3482.4134      1016.1405      4919.6572     -8469.8004     -52.353321     -2995.3218      6981.9928     -4882.7283     -465.21658      69005.954      41.016839      41.016839      41.016839      1.0605775      214.93066     -1685.6074     -445.12839    
    498800   498800         295.09747     -159.5509       1332.5912      1493.2084      4995.4159     -3502.2075      1016.7649      4912.4114     -8450.7321     -50.420935     -3034.4898      6983.9327     -4879.6737     -465.07716      69026.641      41.020937      41.020937      41.020937      1.0602596     -673.1763       29.247322      165.27626    
    498900   498900         298.91491      103.64785      1753.1697      1648.9241      5060.0377     -3411.1137      1002.9737      5017.7777     -8474.3479     -52.818125     -2988.7935      6966.9915     -4882.897      -465.50014      68963.918      41.008509      41.008509      41.008509      1.0612239      767.7838      -718.21857      261.37831    
    499000   499000         305.21477     -538.12286      1148.4844      1689.2735      5166.6819     -3477.4084      980.76201      5055.7092     -8559.5078     -50.612106     -2996.1617      6975.6241     -4883.2221     -465.87687      68908.152      40.997452      40.997452      40.997452      1.0620828     -1389.6326      92.286661     -317.02258    
    499100   499100         300.50384      767.07931      2401.3534      1631.4372      5086.9352     -3455.4979      1007.7432      5005.6235     -8510.195      -54.643737     -3000.6808      6981.4664     -4884.8114     -466.46005      68822          40.980359      40.980359      40.980359      1.0634123      741.75384      1184.6833      374.80078    
    499200   499200         294.76843     -765.1317       824.00934      1591.7042      4989.846      -3398.1418      1052.319       5005.5164     -8497.3354     -52.997196     -2984.9371      6966.2022     -4886.9097     -466.62201      68798.113      40.975618      40.975618      40.975618      1.0637815     -819.95007      19.4921       -1494.9371    
    499300   499300         298.20034      1409.0427      3025.9872      1610.5771      5047.9413     -3437.3642      1011.3645      4967.4768     -8471.0973     -55.548125     -2982.2703      6975.1903     -4882.4799     -466.07895      68878.275      40.991526      40.991526      40.991526      1.0625435      1204.6924      1330.801       1691.6345    
    499400   499400         300.6588      -2018.2211     -288.00511      1740.7608      5089.5583     -3348.7975      1031.0268      5084.1387     -8465.2962     -54.235891     -3025.8302      6965.4005     -4884.0013     -465.75169      68926.671      41.001124      41.001124      41.001124      1.0617974     -2292.5463     -1984.4142     -1777.7028    
    499500   499500         304.54271      655.3424       2410.5604      1753.0766      5155.3052     -3402.2286      1032.6637      4914.0341     -8421.4613     -57.771013     -2952.7885      6967.7705     -4884.6762     -466.66024      68792.476      40.974498      40.974498      40.974498      1.0638687     -795.20824      1349.8514      1411.384     
    499600   499600         300.15719     -166.77472      1477.9282      1645.1341      5081.067      -3435.9329      1028.9447      4935.4198     -8425.7081     -52.699235     -3002.6521      6965.8075     -4885.0456     -466.97804      68745.661      40.965202      40.965202      40.965202      1.0645932      346.37053     -842.54232     -4.1523903    
    499700   499700         301.8335       233.62569      1824.4759      1590.2015      5109.4436     -3519.2421      956.61628      4916.8389     -8472.4581     -52.448813     -2955.6369      6969.2695     -4881.4229     -466.88877      68758.804      40.967812      40.967812      40.967812      1.0643897     -42.252953      1307.3801     -564.25006    
    499800   499800         298.4449      -46.519238      1542.7551      1589.4837      5052.0813     -3462.5976      1044.5462      4866.9544     -8428.8003     -49.349105     -2979.0557      6966.0345     -4882.9276     -466.08765      68876.988      40.991271      40.991271      40.991271      1.0625633      860.2228      -2015.7224      1015.9419    
    499900   499900         301.99695      290.37191      1898.3247      1606.2671      5112.2106     -3505.9435      989.17277      4961.703      -8492.2345     -56.249072     -3000.7197      6975.5451     -4883.161      -465.48283      68966.483      41.009017      41.009017      41.009017      1.0611844     -257.83371      765.72611      363.22333    
    500000   500000         304.28416     -526.0402       1182.2947      1710.7281      5150.9284     -3440.2003      1041.9385      5022.9795     -8501.8474     -50.064691     -3030.2143      6963.2392     -4886.2311     -466.06474      68880.374      40.991942      40.991942      40.991942      1.0625111     -861.2622      -1626.3764      909.518      
Loop time of 6820.33 on 1 procs for 500000 steps with 7020 atoms

Performance: 6.334 ns/day, 3.789 hours/ns, 73.310 timesteps/s, 514.638 katom-step/s
99.9% CPU use with 1 MPI tasks x 1 OpenMP threads

MPI task timing breakdown:
Section |  min time  |  avg time  |  max time  |%varavg| %total
---------------------------------------------------------------
Pair    | 1113       | 1113       | 1113       |   0.0 | 16.32
Bond    | 933.03     | 933.03     | 933.03     |   0.0 | 13.68
Kspace  | 3109.3     | 3109.3     | 3109.3     |   0.0 | 45.59
Neigh   | 249.52     | 249.52     | 249.52     |   0.0 |  3.66
Comm    | 35.654     | 35.654     | 35.654     |   0.0 |  0.52
Output  | 11.198     | 11.198     | 11.198     |   0.0 |  0.16
Modify  | 1249.5     | 1249.5     | 1249.5     |   0.0 | 18.32
Other   |            | 119.1      |            |       |  1.75

Nlocal:           7020 ave        7020 max        7020 min
Histogram: 1 0 0 0 0 0 0 0 0 0
Nghost:          19659 ave       19659 max       19659 min
Histogram: 1 0 0 0 0 0 0 0 0 0
Neighs:              0 ave           0 max           0 min
Histogram: 1 0 0 0 0 0 0 0 0 0
FullNghs:  4.55024e+06 ave 4.55024e+06 max 4.55024e+06 min
Histogram: 1 0 0 0 0 0 0 0 0 0

Total # of neighbors = 4550240
Ave neighs/atom = 648.18234
Ave special neighs/atom = 5.7008547
Neighbor list builds = 14656
Dangerous builds = 0

# --- Cleanup ---
unfix npt_fix
unfix shake_fix
undump dump_npt

# --- Write Output ---
write_dump all custom /home/arz2/PolyJarvis/data/PEG1/lammps/mechanical/bm_series/bm_P0/bm_P0_last.dump id type mol x y z xu yu zu vx vy vz modify sort id
write_data /home/arz2/PolyJarvis/data/PEG1/lammps/mechanical/bm_series/bm_P0/bm_P0_out.data
System init for write_data ...
PPPM Kokkos initialization ...
  using 12-bit tables for long-range coulomb
  G vector (1/distance) = 0.30315793
  grid = 30 30 30
  stencil order = 5
  estimated absolute RMS force accuracy = 0.00030428882
  estimated relative force accuracy = 9.1635676e-07
  using double precision cuFFT
  3d grid and FFT values/proc = 50653 27000
Generated 10 of 10 mixed pair_coeff terms from sixthpower/sixthpower mixing rule

print "STAGE COMPLETE: NPT T=300.0->300.0K P=0.0->0.0atm steps=500000"
STAGE COMPLETE: NPT T=300.0->300.0K P=0.0->0.0atm steps=500000
quit
