LAMMPS (22 Jul 2025 - Update 3)
KOKKOS mode with Kokkos version 4.6.2 is enabled
  will use up to 1 GPU(s) per node
  using 1 OpenMP thread(s) per MPI task
Reading data file ...
  orthogonal box = (6.2276347 6.2276347 6.2276347) to (42.15786 42.15786 42.15786)
  1 by 1 by 1 MPI processor grid
  reading atoms ...
  3620 atoms
  reading velocities ...
  3620 velocities
  scanning bonds ...
  4 = max bonds/atom
  scanning angles ...
  12 = max angles/atom
  scanning dihedrals ...
  24 = max dihedrals/atom
  scanning impropers ...
  10 = max impropers/atom
  orthogonal box = (6.2276347 6.2276347 6.2276347) to (42.15786 42.15786 42.15786)
  1 by 1 by 1 MPI processor grid
  reading bonds ...
  3610 bonds
  reading angles ...
  7200 angles
  reading dihedrals ...
  10710 dihedrals
  reading impropers ...
  4800 impropers
Finding 1-2 1-3 1-4 neighbors ...
  special bond factors lj:    0        0        1       
  special bond factors coul:  0        0        1       
     4 = max # of 1-2 neighbors
     6 = max # of 1-3 neighbors
    10 = max # of special neighbors
  special bonds CPU = 0.003 seconds
  read_data CPU = 0.172 seconds
Finding SHAKE clusters ...
     590 = # of size 2 clusters
     600 = # of size 3 clusters
      10 = # of size 4 clusters
       0 = # of frozen angles
  find clusters CPU = 0.001 seconds
PPPM Kokkos initialization ...
  using 12-bit tables for long-range coulomb
  G vector (1/distance) = 0.29528808
  grid = 24 24 24
  stencil order = 5
  estimated absolute RMS force accuracy = 0.00037836216
  estimated relative force accuracy = 1.1394264e-06
  using double precision cuFFT
  3d grid and FFT values/proc = 29791 13824
Generated 6 of 6 mixed pair_coeff terms from sixthpower/sixthpower mixing rule
Neighbor list info ...
  update: every = 1 steps, delay = 0 steps, check = yes
  max neighbors/atom: 4000, page size: 100000
  master list distance cutoff = 11.5
  ghost atom cutoff = 11.5
  binsize = 11.5, bins = 4 4 4
  1 neighbor lists, perpetual/occasional/extra = 1 0 0
  (1) pair lj/class2/coul/long/kk, perpetual
      attributes: full, newton off, kokkos_device
      pair build: full/bin/kk/device
      stencil: full/bin/3d
      bin: kk/device
Setting up Verlet run ...
  Unit style    : real
  Current step  : 0
  Time step     : 1
Per MPI rank memory allocation (min/avg/max) = 24.92 | 24.92 | 24.92 Mbytes
   Step          Time           Temp          Press         Enthalpy        TotEng         KinEng         PotEng         E_bond        E_angle        E_dihed        E_impro         E_vdwl         E_coul         E_long         E_tail         Volume           Lx             Ly             Lz          Density          Pxx            Pyy            Pzz      
         0   0              368.36211     -3.9398327     -916.63039     -913.96516      3307.5946     -4221.5598      692.21962      2008.3296     -2081.7111      15.437357     -985.99346     -1620.8711     -2248.9708     -272.82288      46385.243      35.930226      35.930226      35.930226      1.343162      -791.91729     -431.08983      1211.1876    
       100   100            308.34307      2717.8016      322.55289     -1478.3296      2768.6721     -4247.0017      640.90578      1946.4338     -2059.1994      13.885893     -907.94626     -1629.465      -2251.6165     -278.52801      45435.128      35.68321       35.68321       35.68321       1.3712495      3278.1656      2424.5696      2450.6694    
       200   200            304.9383       2690.0642      215.02272     -1518.2142      2738.1        -4256.3142      657.50948      1953.6026     -2061.4311      13.924721     -932.02176     -1633.2969     -2254.6012     -286.445        44179.357      35.351387      35.351387      35.351387      1.4102265      2683.0613      1405.4939      3981.6374    
       300   300            306.32013      4644.0765      1388.4447     -1540.6358      2750.5077     -4291.1435      664.60736      1872.4035     -2056.4997      13.408049     -890.4956      -1642.5203     -2252.0468     -292.62039      43247.006      35.100935      35.100935      35.100935      1.4406292      5216.1977      4097.328       4618.7038    
       400   400            300.77868      4343.5434      1123.0381     -1588.1525      2700.75       -4288.9024      630.56999      1942.6576     -2058.6119      15.645384     -931.98473     -1636.9663     -2250.2125     -295.6791       42799.629      34.979479      34.979479      34.979479      1.4556878      4385.1092      4525.6356      4119.8853    
       500   500            299.79671      5578.3483      1829.8076     -1628.426       2691.9327     -4320.3587      623.64998      1914.6656     -2052.5619      14.412702     -918.66971     -1647.8915     -2253.9639     -297.70615      42508.21       34.899907      34.899907      34.899907      1.4656674      7010.5492      5120.1296      4604.3661    
       600   600            288.87327      3934.6849      776.35936     -1664.4194      2593.849      -4258.2683      647.29793      1929.4512     -2048.0696      14.844703     -911.32431     -1638.2976     -2252.1707     -297.5213       42534.621      34.907134      34.907134      34.907134      1.4647573      4383.8735      2496.2163      4923.9649    
       700   700            296.46734      4168.1677      967.25433     -1622.5399      2662.0376     -4284.5775      671.69159      1915.9109     -2044.8547      14.661051     -952.24527     -1638.0141     -2251.727      -297.04103      42603.392      34.925937      34.925937      34.925937      1.4623929      4180.7129      3667.78        4656.0103    
       800   800            309.50304      4698.6923      1387.7465     -1530.8625      2779.0877     -4309.9502      630.18647      1943.2127     -2056.1318      14.503785     -951.86354     -1639.1146     -2250.7432     -297.12391      42591.509      34.922689      34.922689      34.922689      1.4628009      4602.4293      4654.3087      4839.3391    
       900   900            300.00409      5736.3301      2002.6732     -1553.2472      2693.7948     -4247.042       620.26023      1979.9389     -2047.3445      16.331113     -925.30742     -1639.2392     -2251.6812     -297.72727      42505.195      34.899082      34.899082      34.899082      1.4657714      4474.3671      4615.4849      8119.1383    
      1000   1000           300.60515      5969.1631      2119.4469     -1577.1727      2699.1918     -4276.3645      604.42929      1944.0305     -2048.8308      15.189463     -893.06098     -1644.5852     -2253.5368     -298.01985      42463.465      34.887658      34.887658      34.887658      1.4672118      4842.6592      7234.4098      5830.4201    
      1100   1100           298.67601      4092.8792      946.4185      -1600.2016      2681.8697     -4282.0713      645.96165      1947.8766     -2047.9793      15.986075     -962.42601     -1632.5835     -2248.9067     -296.62058      42663.781      34.942431      34.942431      34.942431      1.4603229      4060.8055      5116.3324      3101.4997    
      1200   1200           302.74395      5356.4429      1727.4973     -1606.4872      2718.3965     -4324.8837      626.78751      1910.8794     -2063.8639      14.791754     -931.47818     -1636.2183     -2245.7819     -296.51688      42678.703      34.946504      34.946504      34.946504      1.4598124      4294.9089      5448.6276      6325.7923    
      1300   1300           297.14424      4467.9932      1114.7757     -1670.6012      2668.1156     -4338.7169      627.13013      1922.6091     -2052.7299      15.823404     -973.67026     -1628.8834     -2248.9959     -296.04999      42746.009      34.964865      34.964865      34.964865      1.4575138      4316.3988      3530.5942      5556.9867    
      1400   1400           293.86857      4547.4122      1135.5558     -1694.0575      2638.7027     -4332.7603      640.69917      1895.272      -2051.9717      15.188147     -949.4558      -1633.6052     -2248.8868     -296.60177      42666.488      34.94317       34.94317       34.94317       1.4602303      3645.148       3851.4456      6145.6429    
      1500   1500           297.52908      4793.0739      1362.117      -1614.0465      2671.5712     -4285.6177      623.21284      1964.0714     -2053.9299      15.133973     -945.26879     -1637.7908     -2251.0464     -297.23083      42576.188      34.918501      34.918501      34.918501      1.4633273      3451.4066      6291.8614      4635.9537    
      1600   1600           306.75159      5039.4575      1565.5352     -1556.0813      2754.3819     -4310.4632      629.31813      1931.6906     -2044.0685      14.796061     -946.45543     -1642.5563     -2253.1878     -297.94819      42473.678      34.890454      34.890454      34.890454      1.466859       5748.3197      3262.959       6107.0939    
      1700   1700           298.24886      4955.2028      1499.2051     -1566.3039      2678.0343     -4244.3382      622.95814      1970.1018     -2053.4969      14.987423     -906.74527     -1642.049      -2250.0944     -298.32892      42419.473      34.875606      34.875606      34.875606      1.4687334      4908.9271      4312.1266      5644.5547    
      1800   1800           296.87153      4810.1722      1414.419      -1563.4336      2665.6669     -4229.1005      625.87417      1956.7009     -2032.548       15.029002     -906.57703     -1638.4086     -2249.171      -298.12195      42448.923      34.883674      34.883674      34.883674      1.4677145      3391.4176      5062.4797      5976.6192    
      1900   1900           302.92481      4826.8         1412.0757     -1579.8873      2720.0205     -4299.9078      645.82941      1918.3314     -2036.2164      15.080656     -962.47751     -1632.6205     -2247.8349     -297.74165      42503.142      34.89852       34.89852       34.89852       1.4658422      4948.366       3578.1331      5953.9009    
      2000   2000           293.88235      4494.7342      1111.757      -1678.5789      2638.8265     -4317.4054      631.24494      1920.1621     -2049.322       15.228248     -949.51411     -1633.8566     -2251.348      -297.29257      42567.347      34.916084      34.916084      34.916084      1.4636312      3825.839       4182.6586      5475.705     
      2100   2100           291.03671      5525.083       1740.1038     -1687.8855      2613.2749     -4301.1605      627.64119      1930.1197     -2039.0712      15.98038      -956.16264     -1629.5448     -2250.1231     -297.46499      42542.673      34.909336      34.909336      34.909336      1.4644801      4457.3813      5540.741       6577.1267    
      2200   2200           303.63849      4092.1783      932.34738     -1599.867       2726.4287     -4326.2957      636.52479      1919.5589     -2045.2006      14.901497     -976.83416     -1624.9662     -2250.2799     -298.25697      42429.707      34.87841       34.87841       34.87841       1.4683792      3964.5676      4958.016       3353.9513    
      2300   2300           306.3909       6492.0366      2453.1202     -1545.0403      2751.1431     -4296.1834      628.15421      1876.2341     -2033.2554      13.694833     -893.96347     -1634.7068     -2252.3409     -299.67965      42228.278      34.823129      34.823129      34.823129      1.4753833      6489.2898      6067.0386      6919.7813    
      2400   2400           299.19388      4144.3044      981.16661     -1578.0347      2686.5197     -4264.5544      661.41666      1950.3574     -2032.3387      15.365453     -984.76631     -1624.2692     -2250.3197     -298.87096      42342.54       34.854509      34.854509      34.854509      1.471402       4500.956       3104.9874      4826.9699    
      2500   2500           302.92489      4697.3493      1270.1622     -1637.991       2720.0212     -4358.0122      611.22925      1911.0073     -2056.7963      15.207094     -959.02565     -1629.1958     -2250.438      -298.10695      42451.06       34.88426       34.88426       34.88426       1.4676406      3909.6845      4577.6442      5604.7192    
      2600   2600           291.24657      5462.583       1630.9141     -1758.0838      2615.1593     -4373.2432      587.0832       1942.2055     -2064.7459      14.03726      -964.54855     -1637.222      -2250.0527     -297.48376      42539.989      34.908602      34.908602      34.908602      1.4645725      5082.5916      6679.4105      4625.747     
      2700   2700           292.70711      3534.2386      443.95578     -1753.2222      2628.2738     -4381.496       628.42717      1911.8841     -2037.4186      14.824498     -1020.783      -1627.5016     -2250.9285     -296.87057      42627.855      34.93262       34.93262       34.93262       1.4615537      4478.8291      1713.5414      4410.3453    
      2800   2800           293.1454       5448.4463      1706.8851     -1669.6691      2632.2093     -4301.8784      609.44849      1917.2202     -2040.1419      14.426746     -915.6264      -1636.2163     -2250.9892     -297.80739      42493.761      34.895952      34.895952      34.895952      1.4661658      5679.3483      5834.8438      4831.1468    
      2900   2900           297.49779      4589.4367      1230.524      -1612.5777      2671.2902     -4283.868       620.8244       1952.0648     -2040.3803      14.743447     -951.66002     -1629.5056     -2249.9547     -297.92264      42477.321      34.891452      34.891452      34.891452      1.4667332      3957.3416      4504.3791      5306.5895    
      3000   3000           302.91227      5502.0508      1839.5151     -1572.9141      2719.9079     -4292.8219      615.07686      1990.6126     -2061.0441      14.617406     -973.3558      -1627.9781     -2250.7508     -297.5757       42526.845      34.905006      34.905006      34.905006      1.4650252      5436.634       5588.7564      5480.762     
      3100   3100           304.73583      4302.7939      1099.9186     -1572.1478      2736.2819     -4308.4298      618.57243      1945.7844     -2049.5361      15.567145     -950.81884     -1634.682      -2253.3168     -297.19385      42581.487      34.919949      34.919949      34.919949      1.4631452      3749.5403      5043.8711      4114.9702    
      3200   3200           301.73325      4259.4345      987.09759     -1654.2728      2709.3212     -4363.594       649.12803      1864.5432     -2040.2041      15.015905     -969.40582     -1629.6669     -2253.0043     -297.61798      42520.803      34.903353      34.903353      34.903353      1.4652333      4464.7814      4049.0873      4264.4348    
      3300   3300           296.63768      5846.0342      1926.0506     -1690.0472      2663.5671     -4353.6143      600.89188      1887.1576     -2057.1086      14.873668     -907.73007     -1638.9065     -2252.7922     -298.37176      42413.384      34.873937      34.873937      34.873937      1.4689443      5689.3199      5224.2754      6624.5074    
      3400   3400           297.97401      4828.4262      1343.4686     -1642.5017      2675.5663     -4318.068       623.94177      1984.3207     -2076.9888      15.957869     -971.34955     -1638.331      -2255.619      -298.43972      42403.725      34.871289      34.871289      34.871289      1.4692789      4476.4016      5120.4408      4888.4362    
      3500   3500           301.43191      4935.4187      1442.9206     -1607.3721      2706.6154     -4313.9876      656.35859      1936.9885     -2062.3586      15.925127     -967.70843     -1634.647      -2258.5457     -298.62008      42378.114      34.864267      34.864267      34.864267      1.4701669      5145.3126      4730.3019      4930.6417    
      3600   3600           301.5932       5952.9496      2080.3324     -1595.9602      2708.0637     -4304.0239      634.41488      1950.5271     -2081.0912      15.448002     -928.54029     -1640.0772     -2254.7052     -298.85371      42344.985      34.85518       34.85518       34.85518       1.4713171      5177.1091      6389.879       6291.8607    
      3700   3700           298.22067      4601.5358      1244.769      -1603.9447      2677.7811     -4281.7258      633.53057      1978.378      -2045.5212      15.332818     -980.86835     -1629.932      -2252.6456     -298.11959      42449.259      34.883767      34.883767      34.883767      1.4677028      5024.485       5259.7413      3520.3813    
      3800   3800           297.61433      5659.4256      1878.3082     -1628.788       2672.3367     -4301.1246      639.37962      1913.4816     -2060.4257      14.506001     -916.71591     -1639.328      -2252.0222     -297.82503      42491.243      34.895263      34.895263      34.895263      1.4662527      5997.6481      4711.7694      6268.8594    
      3900   3900           300.1906       5368.663       1646.2395     -1688.3684      2695.4695     -4383.8378      620.49531      1911.5929     -2066.97        14.928281     -973.81542     -1636.2521     -2253.8168     -297.13779      42589.519      34.922145      34.922145      34.922145      1.4628693      5223.6816      4798.5077      6083.7996    
      4000   4000           296.56425      5613.5201      1781.1706     -1704.26        2662.9077     -4367.1677      629.35604      1880.8251     -2065.0572      15.12858      -934.28494     -1639.0142     -2254.1211     -297.24555      42574.08       34.917925      34.917925      34.917925      1.4633998      5715.4193      5426.916       5698.2251    
      4100   4100           300.86647      6563.0636      2440.6788     -1625.8189      2701.5382     -4327.3571      597.03961      1948.2799     -2054.9564      15.685999     -936.89093     -1642.2496     -2254.2656     -297.86714      42485.236      34.893619      34.893619      34.893619      1.46646        6467.1921      6326.5096      6895.4891    
      4200   4200           306.10426      4967.4467      1507.4809     -1566.9763      2748.5693     -4315.5457      637.34094      1920.838      -2054.1945      16.010281     -949.81374     -1632.8994     -2252.8273     -298.19563      42438.435      34.880801      34.880801      34.880801      1.4680772      6011.1165      3797.1835      5094.0401    
      4300   4300           297.19688      5312.3481      1695.1318     -1594.5593      2668.5882     -4263.1476      622.12407      1976.8166     -2059.0469      15.872211     -932.92957     -1635.2738     -2250.71       -298.03545      42461.243      34.887049      34.887049      34.887049      1.4672886      4544.6216      5065.931       6326.4917    
      4400   4400           299.16239      4281.1875      1042.5878     -1616.389       2686.237      -4302.626       668.40649      1915.7203     -2047.8746      15.301961     -969.75483     -1632.8188     -2251.6066     -297.15717      42586.742      34.921386      34.921386      34.921386      1.4629647      3874.626       4619.7406      4349.196     
      4500   4500           299.04423      4190.9094      1010.9362     -1596.084       2685.176      -4281.2599      644.10374      1975.5954     -2057.4519      15.389702     -973.99522     -1630.6271     -2254.2744     -296.68829      42654.045      34.939773      34.939773      34.939773      1.4606562      5301.1678      3890.9633      3380.5972    
      4600   4600           305.66683      4384.9018      1189.4484     -1534.0603      2744.6416     -4278.7019      642.35011      1986.4196     -2062.5204      16.104322     -980.09099     -1629.8474     -2251.1171     -297.14445      42588.566      34.921884      34.921884      34.921884      1.462902       4990.1586      2412.0177      5752.5291    
      4700   4700           311.4502       4974.8842      1586.0647     -1487.384       2796.5716     -4283.9556      638.18402      1929.9431     -2050.0256      13.726312     -946.77263     -1622.4377     -2246.5731     -298.74011      42361.087      34.859597      34.859597      34.859597      1.4707578      4401.2294      5380.8594      5142.5638    
      4800   4800           303.13833      5327.7551      1726.3496     -1564.814       2721.9377     -4286.7517      626.62333      1916.7193     -2042.0247      14.911681     -928.09027     -1627.2097     -2247.6815     -298.76609      42357.404      34.858587      34.858587      34.858587      1.4708857      5876.8873      4207.4182      5898.9597    
      4900   4900           298.15004      5839.9772      1996.7158     -1615.998       2677.1469     -4293.1449      623.9032       1954.6658     -2053.3421      15.707037     -951.27165     -1633.3657     -2249.4415     -298.3418       42417.642      34.875104      34.875104      34.875104      1.4687968      4437.1539      5967.326       7115.4516    
      5000   5000           295.84972      6427.748       2348.9274     -1628.3393      2656.4919     -4284.8312      625.23567      1980.3593     -2048.4926      15.695232     -968.15827     -1637.6959     -2251.7747     -298.27074      42427.748      34.877873      34.877873      34.877873      1.468447       6849.1091      4898.6169      7535.5182    
      5100   5100           296.99999      5052.1194      1493.9561     -1633.4817      2666.8203     -4300.3021      622.67525      1957.3305     -2044.0142      15.20268      -965.83508     -1635.6807     -2249.9805     -298.14083      42446.236      34.882938      34.882938      34.882938      1.4678074      5015.0517      4843.4729      5297.8337    
      5200   5200           300.35125      4785.0214      1369.9911     -1590.5371      2696.912      -4287.4492      654.95554      1928.6796     -2030.8533      14.87179      -964.33731     -1636.5287     -2254.2367     -298.29859      42423.787      34.876788      34.876788      34.876788      1.4685841      5115.421       4279.2154      4960.4277    
      5300   5300           299.09649      4835.5954      1454.7588     -1534.0147      2685.6453     -4219.6599      635.31395      2007.6711     -2049.2128      15.508385     -944.5909      -1631.3918     -2252.9578     -298.60253      42380.605      34.86495       34.86495       34.86495       1.4700804      5414.2743      4656.818       4435.694     
      5400   5400           304.08734      6320.9308      2374.9705     -1525.8389      2730.459      -4256.298       632.32581      1971.8905     -2029.3646      14.513407     -961.1597      -1632.3793     -2252.1241     -299.06309      42315.337      34.847043      34.847043      34.847043      1.4723479      6228.5801      6521.5404      6212.6718    
      5500   5500           293.61821      5721.8636      1910.1905     -1618.3756      2636.4547     -4254.8303      638.30068      1957.4284     -2028.4103      15.576837     -951.21001     -1631.7613     -2254.7546     -299.27868      42284.856      34.838674      34.838674      34.838674      1.4734092      5921.3799      5635.8384      5608.3726    
      5600   5600           291.53673      5311.6643      1633.946      -1640.3643      2617.7647     -4258.129       664.34643      1938.8539     -2032.9674      14.224835     -953.49322     -1635.7643     -2253.3293     -299.39691      42268.158      34.834088      34.834088      34.834088      1.4739913      4693.5677      4842.1213      6399.3038    
      5700   5700           295.52512      4809.6504      1367.065      -1603.8297      2653.5772     -4257.4069      636.32133      1988.4929     -2051.7974      15.330104     -956.54038     -1635.0843     -2254.1292     -298.78774      42354.334      34.857745      34.857745      34.857745      1.4709923      4863.6263      4518.2174      5047.1075    
      5800   5800           301.42027      4517.3403      1209.5683     -1588.4491      2706.5109     -4294.96        664.55031      1941.6242     -2042.2423      14.689482     -979.82944     -1639.6132     -2254.1392     -297.96751      42470.925      34.8897        34.8897        34.8897        1.4669541      4221.664       4959.1598      4371.1971    
      5900   5900           299.50096      4076.9275      916.12915     -1611.3047      2689.2771     -4300.5818      630.21129      1978.945      -2055.0965      15.829362     -985.4928      -1632.2734     -2252.7048     -297.70746      42508.024      34.899856      34.899856      34.899856      1.4656738      2874.645       4965.1013      4391.0363    
      6000   6000           301.40237      5248.5629      1620.7904     -1621.9723      2706.3501     -4328.3225      599.14686      1948.4585     -2049.6466      15.035955     -963.78901     -1628.3194     -2249.2088     -298.71824      42364.188      34.860448      34.860448      34.860448      1.4706501      6106.295       5417.7769      4221.6166    
      6100   6100           295.89793      4467.0283      1057.3475     -1697.5155      2656.9247     -4354.4402      662.20686      1872.1531     -2043.7379      14.477349     -988.38639     -1622.7115     -2248.4418     -299.26452      42286.856      34.839223      34.839223      34.839223      1.4733396      3394.4833      6116.1691      3890.4325    
      6200   6200           287.34583      5313.4629      1556.365      -1717.8774      2580.1338     -4298.0112      622.64662      1945.3816     -2035.1344      14.213934     -959.81686     -1635.471      -2249.8311     -299.5045       42252.974      34.829916      34.829916      34.829916      1.474521       6331.1903      3987.6884      5621.51      
      6300   6300           298.98901      4688.0489      1264.7302     -1622.5492      2684.6802     -4307.2294      645.22517      1928.4558     -2041.8241      14.785947     -976.61687     -1629.3779     -2247.8774     -299.66763      42229.972      34.823594      34.823594      34.823594      1.4753242      3951.2749      5124.9711      4987.9007    
      6400   6400           306.10486      4286.0098      1073.643      -1566.6239      2748.5748     -4315.1987      653.8194       1940.051      -2044.6465      15.661729     -1012.8656     -1619.5936     -2247.6251     -299.60002      42239.502      34.826214      34.826214      34.826214      1.4749913      4207.8618      5485.0345      3165.1332    
      6500   6500           299.13106      5450.199       1812.9181     -1544.0477      2685.9557     -4230.0034      656.92542      1950.3033     -2033.8426      14.799611     -940.79898     -1627.6406     -2249.7496     -299.6415       42233.654      34.824607      34.824607      34.824607      1.4751955      4830.1778      4235.5879      7284.8314    
      6600   6600           302.77766      4431.6041      1199.7142     -1536.7356      2718.6992     -4255.4348      667.2268       1978.7703     -2039.3711      15.504717     -997.78379     -1629.9792     -2249.8025     -298.88904      42339.979      34.853806      34.853806      34.853806      1.471491       3897.2548      3343.0061      6054.5514    
      6700   6700           301.5727       5096.9605      1543.7111     -1602.7409      2707.8796     -4310.6204      624.39822      1935.5478     -2059.1622      14.994274     -934.47379     -1640.0756     -2251.8492     -298.96936      42328.604      34.850685      34.850685      34.850685      1.4718864      4946.7661      6208.1103      4136.0049    
      6800   6800           297.46737      5164.4868      1512.8121     -1674.4746      2671.0171     -4345.4916      629.81115      1895.4244     -2041.3346      14.874234     -966.89084     -1628.8629     -2248.5131     -299.04914      42317.312      34.847585      34.847585      34.847585      1.4722792      3532.4517      6271.9727      5689.036     
      6900   6900           299.48875      4723.7112      1249.5018     -1668.9235      2689.1674     -4358.0909      639.77575      1917.2574     -2065.2712      15.112411     -987.58631     -1628.1981     -2249.1809     -298.7248       42363.258      34.860193      34.860193      34.860193      1.4706824      5054.5047      4333.5538      4783.075     
      7000   7000           298.90517      4567.2748      1203.343      -1620.2426      2683.9273     -4304.1699      650.11375      1906.6641     -2034.4571      15.554475     -964.13291     -1628.7103     -2249.202      -298.53325      42390.44       34.867647      34.867647      34.867647      1.4697393      2308.6264      4474.0242      6919.1736    
      7100   7100           305.65547      4766.5437      1420.595      -1525.1613      2744.5396     -4269.7009      640.59969      1983.8219     -2056.9792      15.914173     -968.51112     -1634.868      -2249.6783     -298.63677      42375.745      34.863618      34.863618      34.863618      1.470249       5202.7812      4112.903       4983.947     
      7200   7200           301.30048      5308.2667      1739.4038     -1541.486       2705.4353     -4246.9213      643.02627      1968.3397     -2031.8298      15.510283     -966.59841     -1629.0881     -2246.2812     -298.60537      42380.202      34.86484       34.86484       34.86484       1.4700944      6797.5284      4766.4739      4360.7977    
      7300   7300           299.26496      5273.5655      1686.9842     -1570.587       2687.158      -4257.745       669.06802      1952.992      -2034.7502      15.505916     -988.75272     -1628.3054     -2243.5027     -298.77685      42355.878      34.858168      34.858168      34.858168      1.4709386      4926.5356      5080.0457      5814.1151    
      7400   7400           297.47362      5675.7964      1869.7789     -1636.7815      2671.0732     -4307.8547      613.03756      1958.5328     -2050.1066      16.011302     -965.96094     -1633.744      -2245.6249     -298.73218      42362.211      34.859906      34.859906      34.859906      1.4707187      5258.128       6642.5753      5126.6858    
      7500   7500           295.1306       5269.8148      1595.192      -1659.0808      2650.0348     -4309.1156      629.17384      1962.2804     -2060.6643      15.897665     -977.71612     -1630.7554     -2247.3318     -298.86696      42343.107      34.854665      34.854665      34.854665      1.4713823      5727.5422      3553.5285      6528.3737    
      7600   7600           302.87781      5104.163       1522.2742     -1628.7264      2719.5985     -4348.3249      605.64454      1932.1612     -2049.1927      15.997472     -979.37681     -1625.8154     -2247.7433     -298.95964      42329.981      34.851063      34.851063      34.851063      1.4718386      5644.5452      3855.6382      5812.3054    
      7700   7700           300.39651      4632.8421      1252.6698     -1604.4839      2697.3184     -4301.8023      640.14203      1930.7758     -2041.2514      14.483272     -969.85909     -1626.9825     -2249.1104     -299.26121      42287.325      34.839352      34.839352      34.839352      1.4733232      4318.9253      4289.1841      5290.4169    
      7800   7800           300.8469       4472.5581      1171.1489     -1583.9928      2701.3625     -4285.3553      650.08402      1952.0254     -2053.4847      14.774714     -971.78625     -1628.4394     -2248.5291     -299.60466      42238.848      34.826034      34.826034      34.826034      1.4750141      5798.8053      3681.0375      3937.8314    
      7900   7900           297.43627      3384.9252      500.99646     -1585.2315      2670.7378     -4255.9694      654.59358      1978.5526     -2037.2202      15.447667     -994.94602     -1624.8319     -2247.5651     -299.44966      42260.711      34.832042      34.832042      34.832042      1.4742511      2508.5198      3880.591       3765.6648    
      8000   8000           305.31186      4162.5346      947.50023     -1616.008       2741.4542     -4357.4622      634.1821       1860.6783     -2036.5241      13.679423     -957.26604     -1627.1367     -2245.0752     -299.68132      42228.044      34.823065      34.823065      34.823065      1.4753915      5593.9449      4399.1391      2494.5199    
      8100   8100           293.64403      4562.7256      1118.6589     -1697.6837      2636.6866     -4334.3703      629.31656      1938.3316     -2025.9743      15.134239     -1016.2345     -1626.4053     -2248.5386     -299.00289      42323.857      34.849382      34.849382      34.849382      1.4720515      2723.5047      6376.9113      4587.7607    
      8200   8200           292.25398      4392.8202      1034.9512     -1677.8995      2624.205      -4302.1045      602.61893      1978.987      -2040.3304      15.119255     -980.23718     -1628.7831     -2249.4791     -298.85055      42345.433      34.855303      34.855303      34.855303      1.4713015      4219.835       4867.0426      4091.583     
      8300   8300           299.32666      6019.4133      2146.0715     -1571.5086      2687.712      -4259.2206      619.37901      1993.9853     -2055.386       14.170141     -953.77699     -1629.241      -2248.3511     -298.83423      42347.745      34.855937      34.855937      34.855937      1.4712211      5252.4128      7287.5444      5518.2826    
      8400   8400           300.40548      4942.4308      1495.6573     -1561.7232      2697.3989     -4259.1221      640.79449      2009.1391     -2049.6891      15.245642     -992.825       -1631.7328     -2250.0545     -298.35109      42416.322      34.874742      34.874742      34.874742      1.4688425      4160.872       5179.7237      5486.6966    
      8500   8500           299.83721      4929.3668      1448.6215     -1597.3349      2692.2964     -4289.6313      634.69964      1951.3524     -2058.0788      14.677491     -946.70168     -1634.8506     -2250.7297     -298.6785       42369.825      34.861994      34.861994      34.861994      1.4704544      3660.8164      5896.8096      5230.4744    
      8600   8600           297.89023      4582.0137      1179.4824     -1648.3293      2674.814      -4323.1434      638.50282      1947.0619     -2048.5773      15.301076     -999.86004     -1626.7016     -2248.8702     -299.04904      42317.326      34.847589      34.847589      34.847589      1.4722787      5711.507       4481.7621      3552.7719    
      8700   8700           289.25485      5040.869       1466.1586     -1637.1721      2597.2752     -4234.4473      661.56223      1963.9253     -2039.0649      15.848096     -951.10786     -1636.6358     -2248.9744     -299.78775      42213.051      34.818943      34.818943      34.818943      1.4759155      5032.5124      5733.7593      4356.3353    
      8800   8800           302.82958      5613.6318      1935.2517     -1516.2027      2719.1654     -4235.3681      644.25071      1990.9104     -2042.5142      15.337776     -958.20319     -1636.1334     -2249.0162     -300.17762      42158.226      34.803862      34.803862      34.803862      1.4778349      5571.1391      5609.0802      5660.676     
      8900   8900           302.20805      5198.893       1685.8128     -1513.3346      2713.5846     -4226.9192      659.27175      1989.089      -2053.1984      14.628419     -951.94906     -1635.6599     -2249.1009     -299.92534      42193.687      34.813618      34.813618      34.813618      1.4765929      5467.2491      4921.2178      5208.212     
      9000   9000           304.29063      4559.4748      1234.6484     -1583.1568      2732.2845     -4315.4412      645.79989      1964.0079     -2055.5579      15.794751     -1009.668      -1627.8003     -2248.0175     -298.63478      42376.028      34.863695      34.863695      34.863695      1.4702392      4461.2267      5431.0967      3786.1009    
      9100   9100           296.04301      4500.0934      1146.2334     -1640.6776      2658.2274     -4298.9051      621.68761      1991.3783     -2053.6315      15.168752     -990.34565     -1633.7254     -2249.4371     -298.01282      42464.468      34.887932      34.887932      34.887932      1.4671772      4471.7949      3473.8165      5554.6689    
      9200   9200           301.94717      4212.3227      958.40502     -1644.2255      2711.2421     -4355.4676      625.98838      1917.1471     -2054.6632      14.876943     -987.20954     -1625.1437     -2246.4636     -298.70717      42365.758      34.860879      34.860879      34.860879      1.4705956      4115.4213      4595.1051      3926.4417    
      9300   9300           297.36245      5509.6016      1777.0321     -1616.497       2670.075      -4286.572       612.92152      1955.1851     -2039.805       14.413269     -955.53406     -1624.462      -2249.2908     -299.6437       42233.345      34.824522      34.824522      34.824522      1.4752063      2637.1327      6198.9115      7692.7606    
      9400   9400           298.30689      6051.7853      2127.3918     -1596.7154      2678.5553     -4275.2707      647.6573       1956.0159     -2041.1539      14.65465      -974.92735     -1627.324      -2250.1933     -299.91477      42195.173      34.814027      34.814027      34.814027      1.4765409      5115.0293      5977.8369      7062.4896    
      9500   9500           302.30379      4117.0618      960.51079     -1574.9796      2714.4442     -4289.4238      652.25662      1978.5825     -2044.4008      15.076962     -1020.7675     -1622.5427     -2247.6289     -299.68288      42227.824      34.823004      34.823004      34.823004      1.4753992      3600.6714      4756.6649      3993.849     
      9600   9600           307.59961      5894.2313      2082.163      -1538.8307      2761.9965     -4300.8271      662.17403      1900.4112     -2057.7225      14.079572     -937.71536     -1632.6931     -2249.361      -300.4249       42123.525      34.794311      34.794311      34.794311      1.4790523      6128.98        6106.6631      5447.0508    
      9700   9700           304.37865      4360.1957      1111.4762     -1572.5659      2733.0748     -4305.6407      642.25118      1955.4284     -2046.9395      15.423428     -989.04206     -1630.4902     -2252.2719     -299.81487      42209.233      34.817893      34.817893      34.817893      1.476049       3974.5065      4336.4949      4769.5857    
      9800   9800           300.52326      5647.6307      1842.2573     -1641.8082      2698.4565     -4340.2647      643.31754      1894.1643     -2045.2994      14.751337     -957.11645     -1637.9566     -2252.1255     -299.16894      42300.367      34.842933      34.842933      34.842933      1.472869       5124.399       5504.4351      6314.0579    
      9900   9900           295.22533      4771.1654      1288.3332     -1664.6039      2650.8854     -4315.4893      646.84432      1937.1964     -2028.1261      14.848099     -1005.4392     -1630.0199     -2250.793      -298.19941      42437.896      34.880654      34.880654      34.880654      1.4680958      5811.4417      4084.124       4417.9304    
     10000   10000          308.25822      4966.7804      1468.5859     -1605.1623      2767.9102     -4373.0725      632.45634      1917.1153     -2048.4173      15.465551     -1009.8009     -1630.822      -2249.0695     -298.22441      42434.338      34.879679      34.879679      34.879679      1.4682189      4010.7824      5037.7218      5851.8368    
     10100   10100          299.67865      5722.7881      1988.5722     -1533.6309      2690.8726     -4224.5034      628.54561      2041.592      -2066.3594      15.884117     -965.42264     -1628.9042     -2249.8389     -299.86777      42201.787      34.815846      34.815846      34.815846      1.4763095      5314.3178      5670.9179      6183.1285    
     10200   10200          304.28061      7429.8554      3006.5741     -1535.0442      2732.1945     -4267.2386      627.61616      1960.349      -2061.8839      15.062111     -923.26974     -1635.7946     -2249.3176     -301.92999      41913.543      34.736399      34.736399      34.736399      1.4864622      7714.5482      5715.0423      8859.9758    
     10300   10300          295.95528      5358.3541      1611.8354     -1662.4563      2657.4397     -4319.8961      612.65815      1951.3118     -2036.0293      15.029379     -984.72136     -1631.0633     -2247.0814     -302.03033      41899.619      34.732552      34.732552      34.732552      1.4869562      5950.067       5034.8421      5090.1533    
     10400   10400          303.02782      5605.167       1761.4835     -1677.3044      2720.9455     -4398.2498      580.00932      1899.5519     -2041.0253      14.637414     -970.17596     -1632.5087     -2248.7385     -300.82899      42066.942      34.778724      34.778724      34.778724      1.4810418      4611.5682      5449.4216      6754.5111    
     10500   10500          301.88628      3556.7792      574.08484     -1622.3618      2710.6953     -4333.057       632.72564      1940.2827     -2050.1868      15.323517     -997.66594     -1625.3197     -2248.2164     -298.86343      42343.608      34.854802      34.854802      34.854802      1.4713649      4110.3763      3513.8038      3046.1574    
     10600   10600          294.64298      4389.2365      1139.9209     -1578.2628      2645.6564     -4223.9192      640.10843      2009.5633     -2054.8666      14.071849     -962.96882     -1623.4676     -2246.3597     -298.02088      42463.319      34.887617      34.887617      34.887617      1.4672169      4496.418       3650.6281      5020.6633    
     10700   10700          304.59099      4313.4469      1102.6163     -1576.9316      2734.9814     -4311.913       606.76957      1943.1064     -2049.9949      14.154735     -965.40985     -1615.7174     -2244.8216     -297.0978       42595.252      34.923712      34.923712      34.923712      1.4626724      4513.1408      3111.4562      5315.7436    
     10800   10800          296.73579      4631.2631      1263.899      -1616.5542      2664.4481     -4281.0023      629.63181      1967.1373     -2041.2704      14.073883     -970.7166      -1630.488      -2249.3703     -296.73936      42646.704      34.937768      34.937768      34.937768      1.4609077      4027.2072      5975.2263      3891.3559    
     10900   10900          295.00902      3879.231       700.05599     -1708.0166      2648.9431     -4356.9597      622.85778      1942.2212     -2063.2955      15.908263     -999.93011     -1625.5559     -2249.1654     -297.3121       42564.549      34.915319      34.915319      34.915319      1.4637274      3465.2684      2810.9233      5361.5014    
     11000   11000          303.10467      4768.1643      1242.9557     -1695.8834      2721.6355     -4417.5189      609.36572      1917.2091     -2056.3427      15.111366     -1022.9161     -1631.0503     -2248.896      -299.44144      42261.871      34.832361      34.832361      34.832361      1.4742106      4421.8892      4155.8511      5726.7525    
     11100   11100          301.37683      5632.2188      1871.7723     -1570.1311      2706.1209     -4276.252       620.96224      1953.2119     -2040.2291      14.43316      -946.19614     -1631.326      -2247.108      -302.00724      41902.823      34.733437      34.733437      34.733437      1.4868425      5458.6208      5881.7897      5556.2457    
     11200   11200          301.17684      5186.6685      1635.7486     -1528.4659      2704.3251     -4232.791       668.74444      1975.0417     -2046.5859      15.791525     -977.86769     -1622.3955     -2245.5196     -302.52349      41831.316      34.713668      34.713668      34.713668      1.4893841      4631.621       4645.0322      6283.3523    
     11300   11300          302.82826      5698.0821      1915.9573     -1575.4188      2719.1535     -4294.5723      641.2534       1967.702      -2054.5656      15.142105     -987.14868     -1627.8969     -2249.0586     -301.20945      42013.807      34.764075      34.764075      34.764075      1.4829148      5914.4796      6512.6007      4667.166     
     11400   11400          292.89711      4849.043       1326.2216     -1668.0617      2629.9798     -4298.0415      659.29231      1936.1587     -2035.9049      15.461167     -994.43886     -1626.6779     -2251.9321     -298.88194      42340.985      34.854082      34.854082      34.854082      1.471456       4366.4995      4455.6829      5724.9466    
     11500   11500          289.76447      5685.4372      1845.3683     -1678.8994      2601.8513     -4280.7506      625.29565      1966.881      -2041.1615      13.860717     -960.70402     -1633.8514     -2251.0711     -297.7361       42503.934      34.898737      34.898737      34.898737      1.4658148      5603.9459      6357.1592      5095.2065    
     11600   11600          301.02615      3506.0599      570.72481     -1607.7598      2702.972      -4310.7318      672.45035      1916.3091     -2015.7454      15.392298     -1030.6519     -1619.8087     -2248.6775     -297.03072      42604.872      34.926341      34.926341      34.926341      1.4623421      3679.6804      1924.3055      4914.1937    
     11700   11700          298.41311      5267.1748      1695.129      -1562.9332      2679.5091     -4242.4423      642.97365      1948.6087     -2030.7472      13.580783     -934.72454     -1631.2323     -2250.9014     -298.3698       42413.661      34.874013      34.874013      34.874013      1.4689347      4802.2203      4583.4359      6415.8682    
     11800   11800          304.6634       5042.9507      1536.5665     -1569.5497      2735.6316     -4305.1813      632.58671      1974.2866     -2021.7505      14.877894     -1035.7563     -1619.9678     -2249.4578     -299.6426       42233.5        34.824564      34.824564      34.824564      1.4752009      6688.9319      2934.9994      5504.9209    
     11900   11900          294.98289      5472.0806      1752.6099     -1598.1217      2648.7085     -4246.8302      611.34293      1962.1086     -1991.1662      15.231342     -966.39681     -1626.2348     -2251.7153     -301.40425      41986.654      34.756584      34.756584      34.756584      1.4838739      5334.6855      5393.477       5688.0795    
     12000   12000          296.25768      5129.08        1520.8584     -1613.4204      2660.155      -4273.5754      635.20141      1937.4974     -2025.2141      14.761507     -951.79965     -1630.7698     -2253.2521     -302.02185      41900.795      34.732877      34.732877      34.732877      1.4869145      5453.4366      5181.3472      4752.4561    
     12100   12100          305.31441      5883.2856      1994.2164     -1607.7507      2741.4772     -4349.2279      637.42718      1908.5109     -2034.4153      14.831168     -984.469       -1639.0118     -2252.1009     -301.45098      41980.144      34.754788      34.754788      34.754788      1.484104       5829.1446      5516.7344      6303.9776    
     12200   12200          303.11624      5580.49        1858.75       -1574.2497      2721.7394     -4295.9891      601.92521      1985.3734     -2051.545       14.926031     -959.24066     -1635.6059     -2251.8222     -300.00955      42181.843      34.81036       34.81036       34.81036       1.4770075      4932.5718      5578.7926      6230.1056    
     12300   12300          304.663        4578.2915      1300.4303     -1528.8714      2735.628      -4264.4993      625.27515      1990.8245     -2027.5285      15.039947     -979.23531     -1636.4075     -2252.4676     -298.64875      42374.045      34.863151      34.863151      34.863151      1.470308       3641.7114      5593.6044      4499.5587    
     12400   12400          306.90038      5516.9241      1871.6121     -1543.5893      2755.7179     -4299.3072      615.75383      1974.7303     -2044.0406      14.955508     -962.93753     -1644.297      -2253.4717     -298.13792      42446.649      34.883052      34.883052      34.883052      1.4677931      6957.0976      4360.8016      5232.8732    
     12500   12500          301.67377      4079.5618      876.38591     -1647.129       2708.7871     -4355.9161      624.84276      1928.2372     -2033.336       15.219419     -1000.9172     -1635.1315     -2254.8308     -298.36245      42414.706      34.874299      34.874299      34.874299      1.4688985      3253.8715      3927.6718      5057.1423    
     12600   12600          296.61912      4869.4289      1355.0798     -1645.812       2663.4005     -4309.2125      634.71872      1912.397      -2042.9673      13.837416     -941.33        -1635.5208     -2250.3475     -299.47751      42256.782      34.830962      34.830962      34.830962      1.4743881      4117.1147      4633.2311      5857.9408    
     12700   12700          295.75365      4000.9404      865.13862     -1597.0568      2655.6292     -4252.686       672.57468      1943.7171     -2032.5856      14.044563     -966.43366     -1636.2825     -2247.7206     -299.89974      42197.289      34.814608      34.814608      34.814608      1.4764669      4003.1629      2016.2815      5983.3769    
     12800   12800          303.1313       5600.5582      1885.7013     -1556.2678      2721.8746     -4278.1424      655.43924      1945.4459     -2036.441       15.061187     -967.14553     -1638.7321     -2251.7701     -300.30383      42140.507      34.798986      34.798986      34.798986      1.4784563      5161.0764      4391.7116      7248.8865    
     12900   12900          298.36116      4954.1028      1454.2147     -1588.8283      2679.0426     -4267.8708      628.47845      1974.6024     -2052.0709      14.809443     -938.32435     -1642.1337     -2253.2322     -300.46469      42117.947      34.792775      34.792775      34.792775      1.4792482      4980.8968      4564.2942      5317.1173    
     13000   13000          291.01161      4238.7524      901.34961     -1703.3819      2613.0495     -4316.4314      683.70566      1932.2224     -2051.4281      15.284127     -1016.9343     -1628.1252     -2251.156      -300.33891      42135.585      34.797631      34.797631      34.797631      1.478629       4298.4367      3223.9189      5193.9015    
     13100   13100          297.21236      6328.067       2202.6162     -1684.1416      2668.7273     -4352.8689      611.76376      1919.305      -2048.6362      14.550633     -969.39181     -1631.9733     -2248.4869     -300.48314      42115.36       34.792062      34.792062      34.792062      1.4793391      5581.1866      5462.3543      7940.66      
     13200   13200          295.95065      4980.2944      1437.6136     -1632.5199      2657.3981     -4289.918       638.14398      1974.4319     -2040.0447      15.592868     -993.05038     -1634.4159     -2250.5758     -299.38792      42269.426      34.834436      34.834436      34.834436      1.4739471      4876.8396      5140.4118      4923.6317    
     13300   13300          300.13818      4592.7882      1241.6845     -1598.2727      2694.9988     -4293.2715      632.91911      1946.6372     -2030.8377      14.8632       -968.85065     -1635.8228     -2252.1799     -298.47031      42399.379      34.870098      34.870098      34.870098      1.4694295      4102.849       5238.8242      4436.6915    
     13400   13400          296.58372      4757.8538      1359.3887     -1591.3618      2663.0826     -4254.4445      680.54447      1962.1352     -2046.6388      14.620506     -975.08034     -1639.2421     -2250.7834     -297.5878       42525.116      34.904533      34.904533      34.904533      1.4650847      4103.6853      6836.0301      3333.846     
     13500   13500          300.36716      4968.9685      1497.3066     -1581.3968      2697.0548     -4278.4516      655.97348      1972.4269     -2053.4177      15.72044      -971.92533     -1643.0494     -2254.1799     -297.87559      42484.031      34.893289      34.893289      34.893289      1.4665016      4193.2686      5539.3677      5174.2691    
     13600   13600          303.5723       4843.3265      1423.8437     -1565.1073      2725.8344     -4290.9417      667.61647      1944.3392     -2055.1854      13.778242     -967.735       -1641.566      -2252.1891     -299.06217      42315.469      34.847079      34.847079      34.847079      1.4723433      6443.3256      2501.7922      5584.8617    
     13700   13700          294.07972      4216.0218      914.39974     -1679.7621      2640.5987     -4320.3608      677.66539      1942.0694     -2054.3413      14.597027     -1013.1503     -1639.0942     -2248.1068     -299.94547      42190.855      34.812839      34.812839      34.812839      1.476692       5284.7468      2849.044       4514.2746    
     13800   13800          290.27346      5361.6977      1582.3188     -1708.0297      2606.4215     -4314.4512      652.71279      1918.8085     -2038.045       14.855436     -981.92731     -1633.6814     -2247.1741     -300.74399      42078.832      34.782001      34.782001      34.782001      1.4806233      4681.7241      6366.463       5036.9059    
     13900   13900          299.40665      6198.7594      2160.8746     -1636.4106      2688.4303     -4324.8409      628.89832      1966.3315     -2048.0831      15.686386     -1008.4233     -1629.0127     -2250.238      -301.27846      42004.184      34.761421      34.761421      34.761421      1.4832546      6300.5413      5871.6606      6424.0764    
     14000   14000          301.92325      4240.9612      1029.1917     -1565.2849      2711.0273     -4276.3122      673.57388      1950.0789     -2024.3483      15.070921     -1007.0417     -1631.9891     -2251.657      -301.68315      41947.838      34.74587       34.74587       34.74587       1.4852469      3238.8681      7247.2418      2236.7737    
     14100   14100          305.33786      6295.0708      2317.2544     -1531.7052      2741.6877     -4273.3929      631.36115      1952.6265     -2037.7976      15.039972     -943.26423     -1638.8836     -2252.4751     -301.85182      41924.398      34.739397      34.739397      34.739397      1.4860773      7237.7446      4212.0378      7435.4301    
     14200   14200          307.0225       5111.9721      1583.3152     -1562.2228      2756.8144     -4319.0373      668.13399      1906.953      -2040.0899      14.601183     -984.45607     -1632.8709     -2251.3085     -299.937        42192.046      34.813167      34.813167      34.813167      1.4766503      5050.2245      5380.6986      4904.9931    
     14300   14300          294.26268      3996.0703      782.71969     -1689.6521      2642.2416     -4331.8936      632.51316      1927.9638     -2037.1017      14.451958     -983.77051     -1636.5272     -2249.4232     -298.3018       42423.33       34.876663      34.876663      34.876663      1.4685999      4334.4399      3922.7743      3730.9968    
     14400   14400          298.72794      3261.2075      295.7134      -1723.4783      2682.3359     -4405.8142      627.95268      1881.3916     -2026.8058      12.999218     -1014.4953     -1634.9256     -2251.9309     -298.08314      42454.45       34.885189      34.885189      34.885189      1.4675234      2914.1666      2775.2652      4094.1907    
     14500   14500          294.34923      5473.9544      1716.6005     -1660.5248      2643.0187     -4303.5436      604.06396      1955.9834     -2040.8871      13.864342     -942.85798     -1640.1183     -2253.5918     -299.15104      42302.898      34.843628      34.843628      34.843628      1.4727808      5526.9786      5361.2248      5533.6597    
     14600   14600          300.19541      4638.6871      1268.227      -1590.1864      2695.5127     -4285.6991      648.26769      1968.4309     -2047.7067      14.926893     -982.0822      -1636.1785     -2251.3572     -299.50671      42252.663      34.82983       34.82983       34.82983       1.4745319      4938.0882      4588.1509      4389.8221    
     14700   14700          300.08012      5370.4752      1726.0475     -1578.6114      2694.4775     -4273.0889      602.30395      1981.6158     -2049.1983      14.945315     -940.3864      -1633.1692     -2249.2        -299.93186      42192.769      34.813365      34.813365      34.813365      1.476625       4631.2357      5451.567       6028.623     
     14800   14800          295.4363       5075.4082      1525.8427     -1593.6167      2652.7797     -4246.3965      643.209        1994.1632     -2046.1416      15.112175     -965.93962     -1634.7129     -2252.0867     -300.28121      42143.682      34.79986       34.79986       34.79986       1.4783449      4406.0272      5331.909       5488.2885    
     14900   14900          285.55095      5672.9716      1814.868      -1676.6932      2564.0172     -4240.7104      638.63703      1988.279      -2045.3022      15.307782     -950.8911      -1634.877      -2251.8639     -299.86618      42202.011      34.815907      34.815907      34.815907      1.4763016      5064.4585      5516.1041      6438.3523    
     15000   15000          296.28561      4530.8116      1092.443      -1699.9375      2660.4058     -4360.3433      624.62748      1929.6047     -2047.0126      14.417542     -994.25365     -1635.6021     -2252.1246     -299.45938      42259.34       34.831665      34.831665      34.831665      1.4742989      5350.4907      5521.2017      2720.7424    
     15100   15100          303.70491      3808.5109      763.58974     -1583.1029      2727.0251     -4310.128       661.65357      1927.2784     -2034.4412      14.620006     -994.86192     -1630.8962     -2253.4807     -299.52668      42249.845      34.829056      34.829056      34.829056      1.4746302      3364.9474      3325.1704      4735.4149    
     15200   15200          303.14569      5732.4576      1978.4441     -1543.7441      2722.0038     -4265.7479      642.93923      1961.3924     -2032.627       14.323311     -958.61611     -1642.3384     -2250.8214     -300.3757       42130.424      34.79621       34.79621       34.79621       1.4788101      6226.9921      5206.0259      5764.3547    
     15300   15300          302.31195      4193.7585      993.50696     -1582.617       2714.5175     -4297.1345      663.03878      1955.6234     -2029.8586      15.577533     -1021.2906     -1629.9288     -2250.2963     -300.45067      42119.912      34.793316      34.793316      34.793316      1.4791792      3572.4851      3709.3439      5299.4465    
     15400   15400          304.70914      5487.6318      1726.1535     -1641.196       2736.0423     -4377.2383      623.62121      1893.9596     -2058.0384      13.764179     -954.48972     -1644.7794     -2251.2757     -300.76916      42075.311      34.78103       34.78103       34.78103       1.4807472      5514.3764      4924.9713      6023.5478    
     15500   15500          298.43659      4420.6616      1041.2765     -1683.1765      2679.7199     -4362.8964      604.13785      1931.6529     -2039.4731      15.589944     -984.53231     -1638.1048     -2252.1669     -299.46389      42258.704      34.83149       34.83149       34.83149       1.4743211      3875.5547      5128.5984      4257.8317    
     15600   15600          304.6898       4918.6401      1449.0785     -1589.402       2735.8687     -4325.2706      649.67048      1946.5405     -2058.001       14.728378     -987.81147     -1639.5994     -2250.7981     -298.76183      42358.007      34.858752      34.858752      34.858752      1.4708647      5389.712       5174.6385      4191.5698    
     15700   15700          302.39974      3653.3996      731.37964     -1526.4661      2715.3058     -4241.7718      667.58959      1996.071      -2051.1408      14.82808      -983.80908     -1636.3069     -2249.0037     -298.63413      42376.12       34.86372       34.86372       34.86372       1.470236       2831.0079      3768.3901      4360.801     
     15800   15800          297.41565      5598.1474      1908.027      -1544.2396      2670.5526     -4214.7922      647.20371      1993.8597     -2052.8305      14.757019     -927.08686     -1641.6079     -2249.0874     -299.27919      42284.783      34.838654      34.838654      34.838654      1.4734118      5861.5605      4598.0148      6334.8668    
     15900   15900          307.62906      5564.7074      1847.5062     -1581.4496      2762.2609     -4343.7104      627.97169      1918.1308     -2039.4131      14.524693     -976.22936     -1639.8745     -2248.8207     -299.51389      42251.648      34.829552      34.829552      34.829552      1.4745673      5076.0291      5383.4477      6234.6453    
     16000   16000          300.18604      6234.483       2170.317      -1662.2891      2695.4286     -4357.7176      629.83275      1911.7723     -2052.7104      13.982549     -972.44891     -1639.6028     -2248.5431     -300.22218      42151.968      34.80214       34.80214       34.80214       1.4780543      6251.089       5351.3236      7101.0363    
     16100   16100          297.79301      5519.5139      1701.6703     -1681.4578      2673.941      -4355.3988      600.89724      1950.0436     -2040.7439      14.382246     -999.99889     -1630.6376     -2249.3416     -301.10565      42028.29       34.768069      34.768069      34.768069      1.4824038      4977.5731      5936.6383      5644.3302    
     16200   16200          290.52737      5015.7224      1428.0494     -1643.6218      2608.7015     -4252.3233      640.91054      1999.5993     -2054.4448      15.098384     -964.22385     -1638.9792     -2250.2836     -301.36672      41991.883      34.758027      34.758027      34.758027      1.4836891      4282.6432      4850.1959      5914.3282    
     16300   16300          299.28288      4990.5831      1453.7834     -1606.5853      2687.3189     -4293.9042      655.03291      1962.6225     -2052.1827      14.545646     -983.51379     -1639.8644     -2250.5444     -300.96365      42048.12       34.773536      34.773536      34.773536      1.4817047      5769.9822      4400.1822      4801.5849    
     16400   16400          300.57501      5069.209       1505.8913     -1611.6525      2698.9211     -4310.5737      646.79323      1935.2773     -2054.5512      14.203694     -976.80864     -1627.197      -2248.2911     -300.09873      42169.308      34.806912      34.806912      34.806912      1.4774465      4264.1626      6176.1189      4767.3455    
     16500   16500          294.64947      5565.2493      1809.5212     -1626.7471      2645.7146     -4272.4618      640.09974      1971.1897     -2037.2452      15.434529     -978.36743     -1632.6995     -2250.8736     -298.90562      42337.631      34.853162      34.853162      34.853162      1.4715726      6560.7683      5342.786       4792.1936    
     16600   16600          297.8477       4825.5465      1375.5405     -1609.3576      2674.4322     -4283.7898      655.76783      1980.543      -2047.3537      15.378148     -1004.2143     -1632.3693     -2251.5415     -298.36888      42413.792      34.874049      34.874049      34.874049      1.4689301      3729.4977      5964.7368      4782.4051    
     16700   16700          305.21351      4063.9777      1025.9632     -1483.1836      2740.5712     -4223.7548      702.69809      1964.4228     -2048.7759      14.681982     -971.8097      -1633.8322     -2251.1398     -298.92468      42334.932      34.852421      34.852421      34.852421      1.4716664      3165.33        3757.8292      5268.774     
     16800   16800          308.02449      5328.927       1837.9268     -1440.9926      2765.8115     -4206.8041      647.84645      2024.3432     -2067.066       15.476358     -930.55441     -1644.1798     -2252.6698     -299.94771      42190.539      34.812752      34.812752      34.812752      1.4767031      4483.0547      5190.0394      6313.6868    
     16900   16900          303.82593      4614.6618      1318.9225     -1514.5906      2728.1118     -4242.7023      671.77105      1983.2307     -2046.6294      14.979853     -981.92143     -1634.0553     -2250.0778     -300.57384      42102.652      34.788562      34.788562      34.788562      1.4797856      3197.4183      5454.383       5192.1841    
     17000   17000          298.22198      5194.394       1596.0167     -1587.802       2677.7928     -4265.5949      639.15769      1992.1443     -2049.3741      15.361204     -976.44384     -1635.6397     -2250.8004     -301.10854      42027.887      34.767958      34.767958      34.767958      1.482418       5510.314       5489.7328      4583.1354    
     17100   17100          298.21817      4852.3335      1340.7928     -1631.7161      2677.7586     -4309.4748      634.57329      1958.5479     -2022.4992      14.973641     -1004.6371     -1639.2898     -2251.1435     -301.27563      42004.579      34.76153       34.76153       34.76153       1.4832406      4034.3523      5749.1329      4773.5152    
     17200   17200          294.14608      4595.4443      1150.3904     -1664.1765      2641.1945     -4305.3711      636.52385      1950.9297     -2039.8153      15.11297      -983.88147     -1637.1645     -2247.0763     -301.33698      41996.026      34.75917       34.75917       34.75917       1.4835427      3737.5386      4893.0219      5155.7723    
     17300   17300          297.9282       4667.3723      1213.9581     -1654.2481      2675.1549     -4329.4031      638.3289       1935.6174     -2035.7055      15.144176     -995.37461     -1636.9927     -2250.4207     -300.32991      42136.848      34.797978      34.797978      34.797978      1.4785847      4776.3718      3043.6362      6182.1088    
     17400   17400          307.40108      5141.5468      1609.9305     -1557.6988      2760.2138     -4317.9126      618.35546      1979.3722     -2055.8285      15.392639     -988.71031     -1635.878      -2250.6162     -299.56837      42243.965      34.82744       34.82744       34.82744       1.4748355      4526.6057      6942.8769      3955.1577    
     17500   17500          300.16483      6300.9162      2338.7578     -1542.8489      2695.238      -4238.087       619.84426      1993.9449     -2048.7365      15.362186     -935.77124     -1636.1429     -2246.5877     -299.59095      42240.781      34.826565      34.826565      34.826565      1.4749466      6128.8603      7765.2293      5008.659     
     17600   17600          298.31042      5756.2082      1966.1233     -1585.0568      2678.587      -4263.6438      629.42555      1994.5271     -2037.9288      16.407806     -983.95901     -1633.1508     -2248.9657     -299.15779      42301.943      34.843366      34.843366      34.843366      1.4728141      6417.0259      5807.4244      5044.1744    
     17700   17700          299.20425      5138.4074      1516.3074     -1654.1824      2686.6129     -4340.7953      638.84629      1932.6429     -2037.7818      15.029529     -1000.7938     -1637.57       -2251.1684     -299.11534      42307.946      34.845014      34.845014      34.845014      1.4726051      3880.8266      5300.0678      6234.3278    
     17800   17800          304.3217       5437.3632      1612.2571     -1737.9672      2732.5634     -4470.5306      590.17851      1877.8504     -2055.5719      14.92667      -1003.4136     -1641.9988     -2252.5018     -299.53735      42248.34       34.828643      34.828643      34.828643      1.4746827      5287.6916      7507.0377      3517.3603    
     17900   17900          287.62334      5252.3026      1428.1371     -1798.107       2582.6256     -4380.7326      618.56437      1913.3587     -2044.7528      14.807432     -980.07842     -1650.3113     -2252.3206     -300.46164      42118.374      34.792892      34.792892      34.792892      1.4792332      4064.8491      5942.9484      5749.1102    
     18000   18000          298.64742      5234.0934      1513.5737     -1693.7207      2681.613      -4375.3336      629.6667       1883.7676     -2053.3339      14.780733     -954.49951     -1644.221      -2251.4943     -301.18904      42016.654      34.76486       34.76486       34.76486       1.4828144      4737.2274      4141.0171      6824.0358    
     18100   18100          305.66861      5561.806       1782.4874     -1629.5398      2744.6576     -4374.1974      630.69284      1900.7393     -2041.3027      14.14113      -994.14531     -1634.5176     -2249.8051     -300.84297      42064.988      34.778186      34.778186      34.778186      1.4811106      4037.7537      6949.5738      5698.0906    
     18200   18200          301.42582      4936.1579      1449.3515     -1594.7756      2706.5608     -4301.3363      648.53698      1915.6016     -2035.9657      14.258378     -954.73267     -1637.5885     -2251.4464     -299.26973      42286.121      34.839021      34.839021      34.839021      1.4733652      4612.5672      4325.703       5870.2035    
     18300   18300          297.90321      3174.4792      406.70968     -1560.5937      2674.9305     -4235.5242      651.46741      2030.5153     -2047.934       14.425169     -1003.6079     -1630.422      -2249.9683     -297.8089       42493.545      34.895893      34.895893      34.895893      1.4661732      1981.4184      4451.717       3090.3022    
     18400   18400          302.07658      4483.7099      1227.8723     -1552.5328      2712.4041     -4264.9369      646.8315       1952.9846     -2029.2513      14.623066     -958.2448      -1640.2176     -2251.6624     -297.62262      42520.141      34.903172      34.903172      34.903172      1.4652562      4762.0374      4728.7127      3960.3794    
     18500   18500          295.27791      3573.2789      594.0072      -1620.1653      2651.3575     -4271.5228      648.58836      2010.2746     -2036.2644      15.014297     -1025.3419     -1631.914      -2251.8798     -297.84615      42488.23       34.894438      34.894438      34.894438      1.4663566      3125.724       2510.785       5083.3278    
     18600   18600          287.84644      5368.2922      1641.6473     -1671.6147      2584.6289     -4256.2437      648.47863      1957.6839     -2037.4117      15.320741     -947.67798     -1639.8255     -2252.8117     -299.03147      42319.813      34.848272      34.848272      34.848272      1.4721922      4373.297       6190.0369      5541.5429    
     18700   18700          301.24919      5908.2854      1994.0805     -1640.9549      2704.9748     -4345.9297      576.67662      1985.2844     -2038.9274      15.73194      -984.44819     -1642.9867     -2257.2603     -299.97796      42186.285      34.811582      34.811582      34.811582      1.476852       6393.8174      6069.081       5261.9579    
     18800   18800          300.7377       5790.4699      2019.0704     -1530.4618      2700.382      -4230.8438      630.25391      2015.2346     -2028.0033      15.211591     -966.16768     -1642.0251     -2255.3478     -301.07813      42032.133      34.769129      34.769129      34.769129      1.4822683      5796.1414      6575.8098      4999.4585    
     18900   18900          306.41859      5131.1478      1678.5613     -1462.7794      2751.3918     -4214.1711      666.96439      2011.2558     -2027.4478      14.660674     -980.18909     -1642.7178     -2256.6972     -301.46438      41978.278      34.754273      34.754273      34.754273      1.4841699      3157.8076      6553.934       5681.7017    
     19000   19000          304.49051      6134.5806      2241.3052     -1523.0628      2734.0792     -4257.142       637.07838      1960.4351     -2032.1273      15.353557     -942.32177     -1641.6048     -2253.9553     -300.76641      42075.696      34.781136      34.781136      34.781136      1.4807336      4361.2753      7313.4751      6728.9915    
     19100   19100          300.06836      5135.4382      1565.8919     -1597.7792      2694.3719     -4292.1511      627.76081      1964.2871     -2022.5907      15.634568     -988.54761     -1637.7281     -2250.9672     -299.58682      42241.363      34.826725      34.826725      34.826725      1.4749263      3211.0272      5641.0391      6554.2485    
     19200   19200          300.56184      6225.5642      2218.759      -1620.9823      2698.8029     -4319.7852      604.26525      1945.0386     -2031.366       14.864157     -954.26038     -1642.7833     -2255.5435     -299.2356       42290.943      34.840346      34.840346      34.840346      1.4731972      6791.997       6412.4559      5472.2396    
     19300   19300          300.47507      4223.164       1009.9539     -1597.2579      2698.0238     -4295.2817      663.10653      1952.9812     -2037.6423      15.391198     -997.98372     -1636.5178     -2254.6168     -298.94972      42331.385      34.851448      34.851448      34.851448      1.4717897      3709.8062      4521.0856      4438.6003    
     19400   19400          309.25541      4099.8347      1033.8554     -1491.9816      2776.8641     -4268.8457      653.2083       1978.1561     -2044.1227      14.916859     -973.37659     -1643.6971     -2253.9305     -299.56946      42243.811      34.827398      34.827398      34.827398      1.4748408      3870.6208      4210.378       4218.5052    
     19500   19500          303.02981      5140.8159      1659.2696     -1498.5113      2720.9633     -4219.4746      653.28057      1980.2679     -2031.9878      15.118527     -940.69438     -1642.9813     -2252.4782     -300.45994      42118.613      34.792958      34.792958      34.792958      1.4792248      4422.6153      5627.5938      5372.2386    
     19600   19600          299.02882      5455.4045      1774.1573     -1570.4791      2685.0376     -4255.5167      605.92153      2020.4738     -2033.5778      15.799734     -968.54985     -1641.5853     -2253.9989     -301.03332      42038.389      34.770854      34.770854      34.770854      1.4820477      4451.7503      5518.8901      6395.5732    
     19700   19700          301.51952      5905.0353      2020.1193     -1600.852       2707.4021     -4308.2541      640.45458      1943.4742     -2052.9115      14.586267     -964.08368     -1635.5782     -2254.1957     -300.97744      42046.194      34.773006      34.773006      34.773006      1.4817726      4574.6287      7363.3221      5777.1552    
     19800   19800          297.8255       4542.3328      1160.6684     -1634.7959      2674.2328     -4309.0287      651.79154      1951.4998     -2058.7642      14.705995     -980.7886      -1633.3256     -2254.1476     -299.88969      42198.703      34.814997      34.814997      34.814997      1.4764174      4554.3446      5210.4569      3862.1968    
     19900   19900          294.78431      4640.3563      1214.9411     -1655.8203      2646.9253     -4302.7456      616.02721      1965.6019     -2051.5499      14.285693     -959.30917     -1635.8844     -2251.917      -298.32576      42419.923      34.875729      34.875729      34.875729      1.4687178      2652.2594      5998.5525      5270.2569    
     20000   20000          305.16597      4037.6807      928.97115     -1576.9348      2740.1443     -4317.0791      628.95735      1972.7324     -2042.5447      14.989136     -997.94497     -1639.8704     -2253.398      -297.3745       42555.619      34.912877      34.912877      34.912877      1.4640346      3143.5837      4568.926       4400.5326    
     20100   20100          300.41715      4239.5742      1107.079      -1520.6813      2697.5037     -4218.185       656.34635      2010.997      -2030.882       15.22049      -983.08016     -1633.5639     -2253.2227     -297.76455      42499.873      34.897625      34.897625      34.897625      1.4659549      2520.072       4394.1631      5804.4874    
     20200   20200          300.23431      4327.6375      1140.0988     -1530.6304      2695.862      -4226.4924      648.14999      1987.3713     -2021.748       14.113139     -963.80591     -1636.148      -2254.4248     -299.05946      42315.851      34.847184      34.847184      34.847184      1.47233        2273.7422      7073.3046      3635.8657    
     20300   20300          300.86237      6042.1992      2114.3179     -1594.5699      2701.5014     -4296.0713      625.52753      1968.6408     -2038.9169      15.168779     -974.28803     -1639.3406     -2252.863      -300.66845      42089.403      34.784913      34.784913      34.784913      1.4802514      5280.6791      6139.9687      6705.9497    
     20400   20400          290.74005      4672.8162      1259.284      -1603.8179      2610.6111     -4214.429       676.10498      1985.5663     -2024.1579      15.093301     -982.4598      -1635.632      -2248.9439     -301.21626      42012.857      34.763813      34.763813      34.763813      1.4829484      5499.0822      4180.3906      4338.9757    
     20500   20500          298.17154      5170.6213      1586.5793     -1583.6553      2677.3399     -4260.9952      667.44361      1934.9348     -2027.9638      14.09011      -958.73012     -1638.36       -2252.4099     -301.0148       42040.976      34.771567      34.771567      34.771567      1.4819565      5941.8524      4535.2895      5034.722     
     20600   20600          305.85574      4531.6958      1223.2095     -1565.8165      2746.3379     -4312.1544      633.84888      1955.8926     -2041.278       14.76616      -982.4513      -1639.9318     -2253.0009     -299.87808      42200.337      34.815447      34.815447      34.815447      1.4763602      3592.8863      5809.3727      4192.8285    
     20700   20700          304.99416      4326.8986      1088.2399     -1582.3522      2738.6016     -4320.9539      659.43109      1910.5004     -2031.3438      14.417057     -985.01518     -1636.0118     -2252.9316     -299.02374      42320.907      34.848572      34.848572      34.848572      1.4721541      4331.6413      5592.8277      3056.2268    
     20800   20800          294.01015      5842.8596      1934.7143     -1675.5324      2639.974      -4315.5064      627.18511      1911.763      -2027.4445      14.49795      -951.33155     -1638.8354     -2251.341      -298.69303      42367.764      34.861429      34.861429      34.861429      1.470526       5261.9817      5640.6994      6625.8976    
     20900   20900          298.5634       4298.9619      982.17756     -1678.0394      2680.8585     -4358.8979      644.94975      1951.8479     -2070.2065      14.965358     -1007.5682     -1639.193      -2253.6932     -298.25179      42430.443      34.878612      34.878612      34.878612      1.4683537      3278.8744      5434.8163      4183.195     
     21000   21000          301.68375      4482.4012      1149.046      -1617.7792      2708.8768     -4326.656       645.83853      1957.6978     -2055.4412      15.542762     -1008.8658     -1632.3357     -2249.0923     -298.9961       42324.819      34.849646      34.849646      34.849646      1.4720181      4736.2255      4752.5699      3958.4081    
     21100   21100          301.23911      6164.008       2286.8293     -1498.0863      2704.8842     -4202.9706      627.85317      2017.2308     -2032.9356      14.985205     -947.47086     -1633.6206     -2249.0127     -300.56853      42103.395      34.788767      34.788767      34.788767      1.4797595      5656.6256      7433.6509      5401.7474    
     21200   21200          304.37686      4073.5295      1014.4411     -1485.4497      2733.0587     -4218.5084      651.10656      2020.0889     -2032.8067      16.387518     -990.63541     -1630.7106     -2251.9386     -300.73664      42079.86       34.782284      34.782284      34.782284      1.4805871      1876.0039      5928.4255      4416.159     
     21300   21300          303.9556       5143.207       1627.0343     -1528.482       2729.2761     -4257.7581      627.77861      1978.4334     -2022.2044      15.083826     -964.07496     -1640.625      -2252.1496     -300.81542      42068.839      34.779247      34.779247      34.779247      1.480975       4918.9529      5343.1232      5167.5449    
     21400   21400          297.31387      5807.9556      1965.1436     -1604.1797      2669.6387     -4273.8184      616.691        1973.4361     -2045.324       14.418329     -943.80288     -1638.779      -2250.458      -300.31285      42139.241      34.798637      34.798637      34.798637      1.4785007      7917.3333      3855.4752      5651.0583    
     21500   21500          299.74029      4241.3923      965.00845     -1651.6198      2691.4261     -4343.0459      624.56734      1924.0516     -2043.1475      14.758781     -976.02097     -1636.1934     -2251.0617     -299.15959      42301.688      34.843296      34.843296      34.843296      1.472823       3627.2239      4997.798       4099.155     
[...]
    495100   495100         301.59968      4442.665       1018.9164     -1687.3012      2708.1219     -4395.4231      647.33517      1893.9514     -2050.4164      13.782424     -1017.131      -1631.8405     -2251.1041     -302.98238      41767.959      34.696134      34.696134      34.696134      1.4916433      4276.578       5130.3963      3921.0208    
    495200   495200         302.00096      4845.1497      1324.426      -1624.6893      2711.725      -4336.4143      677.40309      1928.6212     -2035.4703      14.809613     -1044.9278     -1625.8332     -2251.0168     -303.21591      41735.791      34.687224      34.687224      34.687224      1.492793       4661.1176      5185.293       4689.0387    
    495300   495300         303.52542      4574.9281      1182.6839     -1606.5081      2725.4134     -4331.9216      643.4473       1946.9429     -2029.4217      15.662001     -1028.5821     -1630.3861     -2249.5839     -302.72088      41804.04       34.706122      34.706122      34.706122      1.4903559      4088.1821      4982.3798      4654.2224    
    495400   495400         298.32531      6279.7468      2218.0724     -1619.5851      2678.7207     -4298.3058      599.97599      2027.7577     -2044.6649      15.493696     -1009.7511     -1636.1592     -2250.958      -302.00382      41903.297      34.733568      34.733568      34.733568      1.4868257      7370.7855      5413.2913      6055.1637    
    495500   495500         298.72483      4002.1486      800.51799     -1653.4995      2682.308      -4335.8075      652.0912       1973.853      -2035.5183      15.26971      -1062.0673     -1626.8168     -2252.6191     -300.99001      42044.438      34.772521      34.772521      34.772521      1.4818345      4203.54        3468.8827      4334.0231    
    495600   495600         301.02161      5406.0481      1644.055      -1664.4048      2702.9313     -4367.336       644.9315       1953.1428     -2045.5858      15.037054     -1045.0022     -1636.9354     -2252.924      -301.57168      41963.342      34.750151      34.750151      34.750151      1.4846982      5070.4753      6777.5816      4370.0873    
    495700   495700         292.59013      5330.4272      1586.5681     -1656.1047      2627.2234     -4283.3281      642.60612      1977.2257     -2027.54        14.392418     -1013.584      -1628.6179     -2247.8103     -303.38591      41712.404      34.680744      34.680744      34.680744      1.49363        3734.0492      6054.7044      6202.528     
    495800   495800         297.47635      5793.1948      1907.7726     -1594.8936      2671.0977     -4265.9913      675.50301      1980.3692     -2057.0676      15.538815     -1003.7646     -1626.1313     -2250.4387     -305.25015      41457.655      34.609998      34.609998      34.609998      1.502808       5308.4645      7581.1308      4489.989     
    495900   495900         304.78576      5978.7259      2070.3869     -1537.9332      2736.7303     -4274.6635      672.22411      1980.8201     -2034.495       15.131393     -1027.2583     -1630.3302     -2250.7556     -305.80185      41382.863      34.589173      34.589173      34.589173      1.5055241      6723.8709      5718.6554      5493.6512    
    496000   496000         301.24409      4831.416       1315.1348     -1612.3274      2704.9289     -4317.2563      664.19172      1983.109      -2044.4912      15.196575     -1056.2443     -1628.7973     -2250.2207     -304.59282      41547.124      34.634877      34.634877      34.634877      1.4995719      5128.4365      5074.0944      4291.717     
    496100   496100         291.38915      3612.1643      497.38364     -1707.4377      2616.4396     -4323.8773      676.40664      1979.833      -2048.1288      16.143357     -1074.4882     -1623.5806     -2250.0628     -302.36437      41853.329      34.719756      34.719756      34.719756      1.4886008      5463.2632      3014.972       2358.2578    
    496200   496200         296.46295      5295.9685      1570.6547     -1676.9482      2661.9982     -4338.9464      644.87766      1951.9395     -2059.5459      15.786959     -1011.8665     -1629.6277     -2250.5104     -300.96708      42047.641      34.773405      34.773405      34.773405      1.4817216      4471.9136      5129.3215      6286.6703    
    496300   496300         304.80768      4852.008       1347.1673     -1633.5661      2736.9271     -4370.4932      621.92078      1965.8196     -2048.8113      15.407783     -1049.0472     -1625.7116     -2250.0712     -300.42419      42123.624      34.794338      34.794338      34.794338      1.4790488      5101.631       4470.2287      4984.1643    
    496400   496400         301.37324      5237.7337      1584.7337     -1617.1787      2706.0886     -4323.2673      652.14047      1977.3067     -2052.2939      15.216843     -1027.6125     -1634.534      -2253.491      -301.90513      41916.995      34.737352      34.737352      34.737352      1.4863398      4833.5238      5420.9729      5458.7045    
    496500   496500         297.63682      5577.5216      1761.3185     -1629.1039      2672.5386     -4301.6426      657.60534      1939.8562     -2020.3313      14.758427     -1010.5937     -1630.1596     -2252.7779     -303.61552      41680.86       34.672         34.672         34.672         1.4947604      3868.7436      6934.1716      5929.6495    
    496600   496600         298.36999      4879.067       1272.0918     -1687.2895      2679.1218     -4366.4114      635.52784      1925.8506     -2030.0017      14.699632     -1038.0079     -1623.0112     -2251.4686     -304.27927      41589.937      34.64677       34.64677       34.64677       1.4980282      4192.8575      5828.8155      4615.528     
    496700   496700         296.95282      5403.6298      1563.1245     -1715.2345      2666.3968     -4381.6313      651.27973      1931.5091     -2038.0786      15.863013     -1067.7581     -1625.7335     -2248.7129     -304.20447      41600.163      34.649609      34.649609      34.649609      1.4976599      5404.9287      4591.6612      6214.2995    
    496800   496800         299.79334      5182.9606      1475.7552     -1671.265       2691.9024     -4363.1674      652.0006       1931.9651     -2040.1012      15.741144     -1050.7156     -1622.4016     -2249.6557     -303.95893      41633.769      34.658937      34.658937      34.658937      1.4964511      5161.2703      5969.5817      4418.0298    
    496900   496900         305.31087      5686.2377      1863.9409     -1596.8364      2741.4454     -4338.2818      633.20118      1962.0667     -2040.0293      15.480918     -1039.6017     -1622.0741     -2247.3254     -303.24097      41732.342      34.686269      34.686269      34.686269      1.4929164      4657.3235      5774.6538      6626.7359    
    497000   497000         303.70974      4852.3114      1352.4066     -1613.7996      2727.0685     -4340.8681      650.12754      1945.1674     -2038.4877      15.421682     -1040.2748     -1626.4326     -2246.3897     -301.91441      41915.706      34.736996      34.736996      34.736996      1.4863855      5356.0994      4336.0444      4864.7904    
    497100   497100         298.11342      3420.0645      449.33327     -1643.7419      2676.8181     -4320.56        682.07994      1974.6241     -2060.1696      15.603596     -1056.7571     -1627.1027     -2248.8381     -301.56851      41963.784      34.750273      34.750273      34.750273      1.4846825      5114.161       2453.8441      2692.1884    
    497200   497200         297.50269      4329.4927      932.48101     -1710.8799      2671.3342     -4382.2141      645.46742      1928.9402     -2054.8703      14.633943     -1032.5253     -1629.6434     -2254.2167     -302.28533      41864.273      34.722782      34.722782      34.722782      1.4882116      3368.4962      5401.4856      4218.4963    
    497300   497300         301.34767      4175.2535      776.49386     -1766.2553      2705.8591     -4472.1144      610.29139      1870.358      -2047.9064      14.115818     -1042.3611     -1623.0967     -2253.5154     -303.05109      41758.49       34.693512      34.693512      34.693512      1.4919816      2917.6417      4699.8927      4908.2261    
    497400   497400         299.70314      4472.6674      1007.1048     -1713.7237      2691.0925     -4404.8161      608.51575      1917.4966     -2015.4554      14.926255     -1050.5757     -1628.3063     -2251.4172     -303.39049      41711.775      34.68057       34.68057       34.68057       1.4936525      4742.9321      4104.1749      4570.8952    
    497500   497500         299.77355      6354.9662      2216.8029     -1649.4677      2691.7247     -4341.1924      625.07623      1962.053      -2059.8947      14.958973     -1001.2058     -1632.3789     -2249.8011     -303.35945      41716.043      34.681753      34.681753      34.681753      1.4934997      5082.0454      7112.2244      6870.6288    
    497600   497600         300.51138      4610.9557      1179.4023     -1635.9928      2698.3498     -4334.3426      665.89287      1950.1842     -2051.5274      14.849906     -1042.774      -1624.0531     -2246.915      -302.26518      41867.065      34.723554      34.723554      34.723554      1.4881124      4455.1591      5281.4479      4096.2601    
    497700   497700         300.4188       5344.8104      1643.7994     -1624.5769      2697.5185     -4322.0954      644.85226      1975.3004     -2053.8771      15.488818     -1037.3056     -1621.3792     -2245.175      -301.81219      41929.903      34.740918      34.740918      34.740918      1.4858822      4646.1285      5550.8811      5837.4216    
    497800   497800         307.9381       4509.0344      1143.6305     -1614.4801      2765.0358     -4379.5159      648.14934      1935.6683     -2060.3697      15.975335     -1047.738      -1622.1464     -2249.0548     -301.72299      41942.299      34.744341      34.744341      34.744341      1.4854431      2797.0923      5249.0884      5480.9226    
    497900   497900         300.37082      4771.9504      1258.2148     -1654.1745      2697.0877     -4351.2622      653.8333       1968.8525     -2066.7416      15.408083     -1052.3959     -1622.4616     -2247.757      -302.40085      41848.28       34.71836       34.71836       34.71836       1.4887804      4475.3287      5151.5445      4688.9781    
    498000   498000         297.06814      4555.9637      1049.9713     -1721.5368      2667.4323     -4388.9691      638.81066      1891.3636     -2038.0545      14.280928     -1021.3861     -1625.6894     -2248.2941     -303.38955      41711.903      34.680605      34.680605      34.680605      1.4936479      4098.3192      5264.6318      4304.9402    
    498100   498100         298.76584      5043.6149      1362.0453     -1696.1385      2682.6763     -4378.8148      622.25129      1918.9986     -2039.8762      14.243045     -1014.6393     -1631.6954     -2248.0969     -304.37912      41576.294      34.642981      34.642981      34.642981      1.4985197      4319.1909      5270.5515      5541.1024    
    498200   498200         304.18305      5598.9153      1787.7304     -1608.0211      2731.3184     -4339.3396      622.22702      1941.9225     -2037.8231      14.185567     -1000.3034     -1630.809      -2248.7392     -304.30179      41586.859      34.645915      34.645915      34.645915      1.4981391      6919.6287      5323.0483      4554.069     
    498300   498300         300.93417      5189.468       1570.1587     -1588.0739      2702.1461     -4290.22        649.53154      1995.6428     -2035.8898      15.791562     -1035.7028     -1627.9735     -2251.6199     -303.26008      41729.711      34.68554       34.68554       34.68554       1.4930105      5212.0874      4829.1823      5527.1343    
    498400   498400         304.07821      5382.2509      1674.5057     -1607.6645      2730.3771     -4338.0416      661.93007      1960.0585     -2042.0699      15.635863     -1055.9788     -1624.615      -2253.0024     -302.64908      41813.957      34.708866      34.708866      34.708866      1.4900024      6332.5119      4897.625       4916.6159    
    498500   498500         298.24922      5075.5761      1441.6885     -1652.6237      2678.0374     -4330.6611      656.65765      1958.6193     -2032.2278      15.47596      -1041.9133     -1633.0696     -2254.2033     -302.73159      41802.562      34.705713      34.705713      34.705713      1.4904086      3914.3426      6336.7707      4975.6151    
    498600   498600         304.97736      5170.1841      1450.3946     -1693.2066      2738.4507     -4431.6574      608.2407       1920.1303     -2051.4337      14.812833     -1034.0711     -1635.8126     -2253.5237     -303.5394       41691.311      34.674897      34.674897      34.674897      1.4943857      5170.0592      6334.9509      4005.5423    
    498700   498700         295.44467      5885.316       1871.5786     -1711.6281      2652.8548     -4364.4829      626.64838      1953.3787     -2047.6122      15.411879     -1025.8327     -1634.8154     -2251.6616     -303.13386      41747.088      34.690354      34.690354      34.690354      1.4923891      6787.5952      5212.7274      5655.6254    
    498800   498800         301.56291      4838.49        1327.2417     -1632.091       2707.7917     -4339.8827      657.39692      1980.1997     -2065.7881      15.314492     -1053.7133     -1624.2864     -2249.006      -301.75368      41938.033      34.743163      34.743163      34.743163      1.4855942      4218.0144      5004.945       5292.5108    
    498900   498900         305.49169      5573.4978      1841.5513     -1574.4521      2743.069      -4317.521       639.81968      2002.6595     -2056.8476      15.296609     -1044.8821     -1622.4161     -2251.1511     -301.12448      42025.662      34.767345      34.767345      34.767345      1.4824965      5208.6026      5901.6742      5610.2166    
    499000   499000         304.55225      4214.2771      985.47927     -1599.0893      2734.6336     -4333.7229      674.39161      1963.6722     -2056.8092      15.100253     -1053.3173     -1625.3844     -2251.376      -300.9342       42052.236      34.774671      34.774671      34.774671      1.4815597      4442.4238      3320.9652      4879.4422    
    499100   499100         297.44523      4958.6879      1363.3987     -1668.4955      2670.8183     -4339.3137      649.46003      1939.5472     -2038.1725      14.767697     -1035.497      -1619.7839     -2249.6353     -301.84867      41924.835      34.739518      34.739518      34.739518      1.4860618      4724.2868      5182.0735      4969.7034    
    499200   499200         296.49781      4544.9861      1078.5408     -1690.8211      2662.3112     -4353.1324      650.53904      1963.8537     -2059.1133      15.770344     -1052.7577     -1620.7155     -2250.7089     -302.89309      41780.272      34.699543      34.699543      34.699543      1.4912037      4333.4383      3146.1928      6155.3271    
    499300   499300         297.87292      5598.379       1732.4273     -1666.7949      2674.6586     -4341.4534      643.80472      1910.6354     -2027.5303      14.625017     -1003.0825     -1628.791      -2251.1148     -303.96198      41633.351      34.658821      34.658821      34.658821      1.4964661      5881.7049      4444.2984      6469.1336    
    499400   499400         297.8436       5548.2549      1739.9356     -1629.8373      2674.3953     -4304.2326      633.6092       1991.3929     -2044.1323      15.56517      -1019.1514     -1631.3151     -2250.2011     -303.87313      41645.524      34.662199      34.662199      34.662199      1.4960287      5618.936       5589.5422      5436.2865    
    499500   499500         302.08024      4822.8441      1320.8687     -1614.4227      2712.4369     -4326.8596      659.55716      1961.9575     -2051.2324      14.810532     -1028.6934     -1635.8345     -2247.4245     -303.24142      41732.279      34.686252      34.686252      34.686252      1.4929186      4252.524       4884.0086      5331.9997    
    499600   499600         303.37024      3821.7305      697.40264     -1632.3435      2724.0201     -4356.3635      642.55404      1980.8563     -2047.722       15.406322     -1071.1731     -1629.0625     -2247.2227     -302.75267      41799.651      34.704907      34.704907      34.704907      1.4905124      3386.0287      4960.6337      3118.5289    
    499700   499700         294.98576      6076.0561      2047.1012     -1653.8093      2648.7342     -4302.5435      642.2733       1982.0847     -2077.1337      15.219395     -978.29089     -1636.5432     -2250.1531     -303.00494      41764.85       34.695273      34.695273      34.695273      1.4917544      4934.9117      7717.1454      5576.1113    
    499800   499800         297.26858      5165.9669      1477.6162     -1674.1534      2669.2321     -4343.3855      638.17472      1977.4001     -2063.9573      15.90654      -1029.6357     -1631.914      -2249.3599     -302.50578      41833.765      34.714346      34.714346      34.714346      1.4892969      5110.4255      4941.687       5445.7884    
    499900   499900         302.05338      4171.4379      895.37489     -1651.3392      2712.1957     -4363.5349      634.02064      1934.7586     -2039.6577      15.231413     -1030.4463     -1628.018      -2249.4236     -302.30276      41861.859      34.722115      34.722115      34.722115      1.4882974      3222.7069      5009.7406      4281.8662    
    500000   500000         305.18931      4754.4888      1335.7598     -1564.5515      2740.3539     -4304.9054      662.93052      2003.4687     -2062.8281      16.308447     -1050.3056     -1626.9981     -2247.4812     -302.549        41827.788      34.712692      34.712692      34.712692      1.4895097      3562.297       5291.7884      5409.3809    
Loop time of 955.697 on 1 procs for 500000 steps with 3620 atoms

Performance: 45.203 ns/day, 0.531 hours/ns, 523.178 timesteps/s, 1.894 Matom-step/s
99.8% CPU use with 1 MPI tasks x 1 OpenMP threads

MPI task timing breakdown:
Section |  min time  |  avg time  |  max time  |%varavg| %total
---------------------------------------------------------------
Pair    | 66.404     | 66.404     | 66.404     |   0.0 |  6.95
Bond    | 103.03     | 103.03     | 103.03     |   0.0 | 10.78
Kspace  | 435.98     | 435.98     | 435.98     |   0.0 | 45.62
Neigh   | 40.812     | 40.812     | 40.812     |   0.0 |  4.27
Comm    | 10.353     | 10.353     | 10.353     |   0.0 |  1.08
Output  | 2.9813     | 2.9813     | 2.9813     |   0.0 |  0.31
Modify  | 269.65     | 269.65     | 269.65     |   0.0 | 28.22
Other   |            | 26.49      |            |       |  2.77

Nlocal:           3620 ave        3620 max        3620 min
Histogram: 1 0 0 0 0 0 0 0 0 0
Nghost:          13065 ave       13065 max       13065 min
Histogram: 1 0 0 0 0 0 0 0 0 0
Neighs:              0 ave           0 max           0 min
Histogram: 1 0 0 0 0 0 0 0 0 0
FullNghs:  1.98926e+06 ave 1.98926e+06 max 1.98926e+06 min
Histogram: 1 0 0 0 0 0 0 0 0 0

Total # of neighbors = 1989262
Ave neighs/atom = 549.51989
Ave special neighs/atom = 5.9723757
Neighbor list builds = 11373
Dangerous builds = 0
System init for write_data ...
PPPM Kokkos initialization ...
  using 12-bit tables for long-range coulomb
  G vector (1/distance) = 0.29843904
  grid = 24 24 24
  stencil order = 5
  estimated absolute RMS force accuracy = 0.00033972368
  estimated relative force accuracy = 1.0230678e-06
  using double precision cuFFT
  3d grid and FFT values/proc = 29791 13824
Generated 6 of 6 mixed pair_coeff terms from sixthpower/sixthpower mixing rule
STAGE COMPLETE: NPT T=300.0->300.0K P=5000.0->5000.0atm steps=500000
