units real
atom_style full
boundary p p p

# --- Force Field Styles ---
pair_style lj/class2/coul/long 9.5 9.5
kspace_style pppm 1e-6
dielectric 1.000000
bond_style class2
angle_style class2
dihedral_style class2
improper_style class2
special_bonds lj/coul 0 0 1
pair_modify mix sixthpower tail yes
neighbor 2.0 bin
neigh_modify delay 0 every 1 check yes
neigh_modify one 4000
package gpu 1 neigh no

read_data /home/arz2/PolyJarvis/data/PVC1/lammps/equil/minimize/minimize_out.data
Reading data file ...
  orthogonal box = (0 0 0) to (48.385495 48.385495 48.385495)
  1 by 1 by 1 MPI processor grid
  reading atoms ...
  3620 atoms
  reading velocities ...
  3620 velocities
  scanning bonds ...
  4 = max bonds/atom
  scanning angles ...
  6 = max angles/atom
  scanning dihedrals ...
  12 = max dihedrals/atom
  scanning impropers ...
  4 = max impropers/atom
  orthogonal box = (0 0 0) to (48.385495 48.385495 48.385495)
  1 by 1 by 1 MPI processor grid
  reading bonds ...
  3610 bonds
  reading angles ...
  7200 angles
  reading dihedrals ...
  10710 dihedrals
  reading impropers ...
  4800 impropers
Finding 1-2 1-3 1-4 neighbors ...
  special bond factors lj:    0        0        1       
  special bond factors coul:  0        0        1       
     4 = max # of 1-2 neighbors
     6 = max # of 1-3 neighbors
    10 = max # of special neighbors
  special bonds CPU = 0.002 seconds
  read_data CPU = 0.326 seconds
include /home/arz2/PolyJarvis/data/PVC1/lammps/equil/emc_build.params
# LAMMPS parameters created by EMC v9.4.4, build Jul 31 2025 20:33:44

# Variables

variable	seed		index	-1
variable	ntotal		index	3620
variable	fshape		index	1
variable	output		index	emc_build
variable	field		index	pcff/pcff
variable	location1	index	/home/arz2/emc/field/
variable	nav		index	0.6022141179
variable	temperature	index	300
variable	radius		index	5
variable	nrelax		index	100
variable	weight_nonbond	index	0.0001
variable	weight_bond	index	0.0001
variable	weight_focus	index	1
variable	cutoff		index	9.5
variable	charge_cutoff	index	9.5
variable	kappa		index	4
variable	density1	index	0.55
variable	lprevious	index	0
variable	lphase		index	48.3854950346
variable	f_poly		index	10
variable	chem_repeat	index	*CC(Cl)*
variable	chem_cap	index	*[H]
variable	lg_repeat	index	6
variable	lg_cap		index	1
variable	norm_poly	index	100
variable	l_poly		index	362
variable	mg_repeat	index	50.48806
variable	mg_cap		index	1.00797
variable	m_poly		index	3031.29954
variable	n_poly		index	10
variable	mtotal		index	37519.6854
variable	nphase1		index	3620
variable	mphase1		index	37519.6854
variable	vphase1		index	113277.998291
variable	lbox		index	48.3854950346
variable	lphase1		index	48.3854950346
variable	lxx		index	48.3854950346
variable	lyy		index	48.3854950346
variable	lzz		index	48.3854950346
variable	lzy		index	0
variable	lzx		index	0
variable	lyx		index	0
variable	vtotal		index	113277.998291
variable	nl_poly		index	10

# Types

variable	type_c		index	1
variable	type_c1		index	2
variable	type_cl		index	3
variable	type_hc		index	4

variable	type_bond_c_c	index	1
variable	type_bond_c_c1	index	2
variable	type_bond_c_cl	index	3
variable	type_bond_c_hc	index	4
variable	type_bond_c1_cl	index	5
variable	type_bond_c1_hc	index	6

variable	type_angle_c_c_c1 index	1
variable	type_angle_c_c_cl index	2
variable	type_angle_c_c_hc index	3
variable	type_angle_c_c1_c index	4
variable	type_angle_c_c1_cl index	5
variable	type_angle_c_c1_hc index	6
variable	type_angle_c1_c_c1 index	7
variable	type_angle_c1_c_hc index	8
variable	type_angle_cl_c_hc index	9
variable	type_angle_cl_c1_hc index	10
variable	type_angle_hc_c_hc index	11

# Clusters

variable	n0_poly		index	1
variable	n1_poly		index	10
variable	nl_poly		index	10

# Flags

variable	flag_charged	index	1

# Masses

mass		1    12.01115  # c
mass		2    12.01115  # c1
mass		3    35.45300  # cl
mass		4     1.00797  # hc

# Potentials

pair_modify	mix sixthpower tail yes
special_bonds	lj/coul 0 0 1

# Pair Coeffs

pair_coeff	 1  1    0.05400    4.01000  # c,c
pair_coeff	 2  2    0.05400    4.01000  # c1,c1
pair_coeff	 3  3    0.22470    3.92000  # cl,cl
pair_coeff	 4  4    0.02000    2.99500  # hc,hc

# Bond Coeffs

bond_coeff	1    1.53000  299.67000 -501.77000  679.81000  # c,c
bond_coeff	2    1.53000  299.67000 -501.77000  679.81000  # c,c1
bond_coeff	3    1.79000  194.31900    0.00000    0.00000  # c,cl
bond_coeff	4    1.10100  345.00000 -691.89000  844.60000  # c,hc
bond_coeff	5    1.79000  194.31900    0.00000    0.00000  # c1,cl
bond_coeff	6    1.10100  345.00000 -691.89000  844.60000  # c1,hc

# Angle Coeffs

angle_coeff	 1  112.67000   39.51600   -7.44300   -9.55830  # c,c,c1
angle_coeff	 2  107.00000   61.17450    0.00000    0.00000  # c,c,cl
angle_coeff	 3  110.77000   41.45300  -10.60400    5.12900  # c,c,hc
angle_coeff	 4  112.67000   39.51600   -7.44300   -9.55830  # c,c1,c
angle_coeff	 5  107.00000   61.17450    0.00000    0.00000  # c,c1,cl
angle_coeff	 6  110.77000   41.45300  -10.60400    5.12900  # c,c1,hc
angle_coeff	 7  112.67000   39.51600   -7.44300   -9.55830  # c1,c,c1
angle_coeff	 8  110.77000   41.45300  -10.60400    5.12900  # c1,c,hc
angle_coeff	 9  107.99680   51.09870    0.00000    0.00000  # cl,c,hc
angle_coeff	10  107.99680   51.09870    0.00000    0.00000  # cl,c1,hc
angle_coeff	11  107.66000   39.64100  -12.92100   -2.43180  # hc,c,hc

# BondBond Coeffs

angle_coeff	 1 bb    0.00000    1.53000    1.53000  # c,c,c1
angle_coeff	 2 bb    0.00000    1.53000    1.79000  # c,c,cl
angle_coeff	 3 bb    3.38720    1.53000    1.10100  # c,c,hc
angle_coeff	 4 bb    0.00000    1.53000    1.53000  # c,c1,c
angle_coeff	 5 bb    0.00000    1.53000    1.79000  # c,c1,cl
angle_coeff	 6 bb    3.38720    1.53000    1.10100  # c,c1,hc
angle_coeff	 7 bb    0.00000    1.53000    1.53000  # c1,c,c1
angle_coeff	 8 bb    3.38720    1.53000    1.10100  # c1,c,hc
angle_coeff	 9 bb    0.00000    1.79000    1.10100  # cl,c,hc
angle_coeff	10 bb    0.00000    1.79000    1.10100  # cl,c1,hc
angle_coeff	11 bb    5.33160    1.10100    1.10100  # hc,c,hc

# BondAngle Coeffs

angle_coeff	 1 ba    8.01600    8.01600    1.53000    1.53000  # c,c,c1
angle_coeff	 2 ba    0.00000    0.00000    1.53000    1.79000  # c,c,cl
angle_coeff	 3 ba   20.75400   11.42100    1.53000    1.10100  # c,c,hc
angle_coeff	 4 ba    8.01600    8.01600    1.53000    1.53000  # c,c1,c
angle_coeff	 5 ba    0.00000    0.00000    1.53000    1.79000  # c,c1,cl
angle_coeff	 6 ba   20.75400   11.42100    1.53000    1.10100  # c,c1,hc
angle_coeff	 7 ba    8.01600    8.01600    1.53000    1.53000  # c1,c,c1
angle_coeff	 8 ba   20.75400   11.42100    1.53000    1.10100  # c1,c,hc
angle_coeff	 9 ba    0.00000    0.00000    1.79000    1.10100  # cl,c,hc
angle_coeff	10 ba    0.00000    0.00000    1.79000    1.10100  # cl,c1,hc
angle_coeff	11 ba   18.10300   18.10300    1.10100    1.10100  # hc,c,hc

# Dihedral Coeffs

dihedral_coeff	 1    0.00000    0.00000    0.05140    0.00000   -0.14300    0.00000  # c,c,c1,c
dihedral_coeff	 2    0.00000    0.00000    0.00000    0.00000    0.15000    0.00000  # c,c,c1,cl
dihedral_coeff	 3    0.00000    0.00000    0.03160    0.00000   -0.16810    0.00000  # c,c,c1,hc
dihedral_coeff	 4    0.00000    0.00000    0.05140    0.00000   -0.14300    0.00000  # c,c1,c,c1
dihedral_coeff	 5    0.00000    0.00000    0.03160    0.00000   -0.16810    0.00000  # c,c1,c,hc
dihedral_coeff	 6    0.00000    0.00000    0.00000    0.00000    0.15000    0.00000  # c1,c,c,cl
dihedral_coeff	 7    0.00000    0.00000    0.03160    0.00000   -0.16810    0.00000  # c1,c,c,hc
dihedral_coeff	 8    0.00000    0.00000    0.00000    0.00000    0.15000    0.00000  # c1,c,c1,cl
dihedral_coeff	 9    0.00000    0.00000    0.03160    0.00000   -0.16810    0.00000  # c1,c,c1,hc
dihedral_coeff	10    0.00000    0.00000    0.00000    0.00000   -0.10000    0.00000  # cl,c,c,hc
dihedral_coeff	11    0.00000    0.00000    0.00000    0.00000   -0.10000    0.00000  # cl,c1,c,hc
dihedral_coeff	12   -0.14320    0.00000    0.06170    0.00000   -0.10830    0.00000  # hc,c,c,hc
dihedral_coeff	13   -0.14320    0.00000    0.06170    0.00000   -0.10830    0.00000  # hc,c,c1,hc

# MiddleBondTorsion Coeffs

dihedral_coeff	 1 mbt  -17.78700   -7.18770    0.00000    1.53000  # c,c,c1,c
dihedral_coeff	 2 mbt    0.00000    0.00000    0.00000    1.53000  # c,c,c1,cl
dihedral_coeff	 3 mbt  -14.87900   -3.65810   -0.31380    1.53000  # c,c,c1,hc
dihedral_coeff	 4 mbt  -17.78700   -7.18770    0.00000    1.53000  # c,c1,c,c1
dihedral_coeff	 5 mbt  -14.87900   -3.65810   -0.31380    1.53000  # c,c1,c,hc
dihedral_coeff	 6 mbt    0.00000    0.00000    0.00000    1.53000  # c1,c,c,cl
dihedral_coeff	 7 mbt  -14.87900   -3.65810   -0.31380    1.53000  # c1,c,c,hc
dihedral_coeff	 8 mbt    0.00000    0.00000    0.00000    1.53000  # c1,c,c1,cl
dihedral_coeff	 9 mbt  -14.87900   -3.65810   -0.31380    1.53000  # c1,c,c1,hc
dihedral_coeff	10 mbt    0.00000    0.00000    0.00000    1.53000  # cl,c,c,hc
dihedral_coeff	11 mbt    0.00000    0.00000    0.00000    1.53000  # cl,c1,c,hc
dihedral_coeff	12 mbt  -14.26100   -0.53220   -0.48640    1.53000  # hc,c,c,hc
dihedral_coeff	13 mbt  -14.26100   -0.53220   -0.48640    1.53000  # hc,c,c1,hc

# EndBondTorsion Coeffs

dihedral_coeff	 1 ebt   -0.07320    0.00000    0.00000   -0.07320    0.00000    0.00000    1.53000    1.53000  # c,c,c1,c
dihedral_coeff	 2 ebt    0.00000    0.00000    0.00000    0.00000    0.00000    0.00000    1.53000    1.79000  # c,c,c1,cl
dihedral_coeff	 3 ebt    0.24860    0.24220   -0.09250    0.08140    0.05910    0.22190    1.53000    1.10100  # c,c,c1,hc
dihedral_coeff	 4 ebt   -0.07320    0.00000    0.00000   -0.07320    0.00000    0.00000    1.53000    1.53000  # c,c1,c,c1
dihedral_coeff	 5 ebt    0.24860    0.24220   -0.09250    0.08140    0.05910    0.22190    1.53000    1.10100  # c,c1,c,hc
dihedral_coeff	 6 ebt    0.00000    0.00000    0.00000    0.00000    0.00000    0.00000    1.53000    1.79000  # c1,c,c,cl
dihedral_coeff	 7 ebt    0.24860    0.24220   -0.09250    0.08140    0.05910    0.22190    1.53000    1.10100  # c1,c,c,hc
dihedral_coeff	 8 ebt    0.00000    0.00000    0.00000    0.00000    0.00000    0.00000    1.53000    1.79000  # c1,c,c1,cl
dihedral_coeff	 9 ebt    0.24860    0.24220   -0.09250    0.08140    0.05910    0.22190    1.53000    1.10100  # c1,c,c1,hc
dihedral_coeff	10 ebt    0.00000    0.00000    0.00000    0.00000    0.00000    0.00000    1.79000    1.10100  # cl,c,c,hc
dihedral_coeff	11 ebt    0.00000    0.00000    0.00000    0.00000    0.00000    0.00000    1.79000    1.10100  # cl,c1,c,hc
dihedral_coeff	12 ebt    0.21300    0.31200    0.07770    0.21300    0.31200    0.07770    1.10100    1.10100  # hc,c,c,hc
dihedral_coeff	13 ebt    0.21300    0.31200    0.07770    0.21300    0.31200    0.07770    1.10100    1.10100  # hc,c,c1,hc

# AngleTorsion Coeffs

dihedral_coeff	 1 at    0.38860   -0.31390    0.13890    0.38860   -0.31390    0.13890  112.67000  112.67000  # c,c,c1,c
dihedral_coeff	 2 at    0.00000    0.00000    0.00000    0.00000    0.00000    0.00000  112.67000  107.00000  # c,c,c1,cl
dihedral_coeff	 3 at   -0.24540    0.00000   -0.11360    0.31130    0.45160   -0.19880  112.67000  110.77000  # c,c,c1,hc
dihedral_coeff	 4 at    0.38860   -0.31390    0.13890    0.38860   -0.31390    0.13890  112.67000  112.67000  # c,c1,c,c1
dihedral_coeff	 5 at   -0.24540    0.00000   -0.11360    0.31130    0.45160   -0.19880  112.67000  110.77000  # c,c1,c,hc
dihedral_coeff	 6 at    0.00000    0.00000    0.00000    0.00000    0.00000    0.00000  112.67000  107.00000  # c1,c,c,cl
dihedral_coeff	 7 at   -0.24540    0.00000   -0.11360    0.31130    0.45160   -0.19880  112.67000  110.77000  # c1,c,c,hc
dihedral_coeff	 8 at    0.00000    0.00000    0.00000    0.00000    0.00000    0.00000  112.67000  107.00000  # c1,c,c1,cl
dihedral_coeff	 9 at   -0.24540    0.00000   -0.11360    0.31130    0.45160   -0.19880  112.67000  110.77000  # c1,c,c1,hc
dihedral_coeff	10 at    0.00000    0.00000    0.00000    0.00000    0.00000    0.00000  107.00000  110.77000  # cl,c,c,hc
dihedral_coeff	11 at    0.00000    0.00000    0.00000    0.00000    0.00000    0.00000  107.00000  110.77000  # cl,c1,c,hc
dihedral_coeff	12 at   -0.80850    0.55690   -0.24660   -0.80850    0.55690   -0.24660  110.77000  110.77000  # hc,c,c,hc
dihedral_coeff	13 at   -0.80850    0.55690   -0.24660   -0.80850    0.55690   -0.24660  110.77000  110.77000  # hc,c,c1,hc

# AngleAngleTorsion Coeffs

dihedral_coeff	 1 aat  -22.04500  112.67000  112.67000  # c,c,c1,c
dihedral_coeff	 2 aat    0.00000  112.67000  107.00000  # c,c,c1,cl
dihedral_coeff	 3 aat  -16.16400  112.67000  110.77000  # c,c,c1,hc
dihedral_coeff	 4 aat  -22.04500  112.67000  112.67000  # c,c1,c,c1
dihedral_coeff	 5 aat  -16.16400  112.67000  110.77000  # c,c1,c,hc
dihedral_coeff	 6 aat    0.00000  112.67000  107.00000  # c1,c,c,cl
dihedral_coeff	 7 aat  -16.16400  112.67000  110.77000  # c1,c,c,hc
dihedral_coeff	 8 aat    0.00000  112.67000  107.00000  # c1,c,c1,cl
dihedral_coeff	 9 aat  -16.16400  112.67000  110.77000  # c1,c,c1,hc
dihedral_coeff	10 aat    0.00000  107.00000  110.77000  # cl,c,c,hc
dihedral_coeff	11 aat    0.00000  107.00000  110.77000  # cl,c1,c,hc
dihedral_coeff	12 aat  -12.56400  110.77000  110.77000  # hc,c,c,hc
dihedral_coeff	13 aat  -12.56400  110.77000  110.77000  # hc,c,c1,hc

# BondBond13 Coeffs

dihedral_coeff	 1 bb13    0.00000    1.53000    1.53000  # c,c,c1,c
dihedral_coeff	 2 bb13    0.00000    1.53000    1.79000  # c,c,c1,cl
dihedral_coeff	 3 bb13    0.00000    1.53000    1.10100  # c,c,c1,hc
dihedral_coeff	 4 bb13    0.00000    1.53000    1.53000  # c,c1,c,c1
dihedral_coeff	 5 bb13    0.00000    1.53000    1.10100  # c,c1,c,hc
dihedral_coeff	 6 bb13    0.00000    1.53000    1.79000  # c1,c,c,cl
dihedral_coeff	 7 bb13    0.00000    1.53000    1.10100  # c1,c,c,hc
dihedral_coeff	 8 bb13    0.00000    1.53000    1.79000  # c1,c,c1,cl
dihedral_coeff	 9 bb13    0.00000    1.53000    1.10100  # c1,c,c1,hc
dihedral_coeff	10 bb13    0.00000    1.79000    1.10100  # cl,c,c,hc
dihedral_coeff	11 bb13    0.00000    1.79000    1.10100  # cl,c1,c,hc
dihedral_coeff	12 bb13    0.00000    1.10100    1.10100  # hc,c,c,hc
dihedral_coeff	13 bb13    0.00000    1.10100    1.10100  # hc,c,c1,hc

# Improper Coeffs

improper_coeff	 1    0.00000    0.00000  # c,c,cl,hc
improper_coeff	 2    0.00000    0.00000  # c,c,hc,c1
improper_coeff	 3    0.00000    0.00000  # c,c,hc,cl
improper_coeff	 4    0.00000    0.00000  # c,c,hc,hc
improper_coeff	 5    0.00000    0.00000  # c,c1,c1,hc
improper_coeff	 6    0.00000    0.00000  # c,c1,hc,hc
improper_coeff	 7    0.00000    0.00000  # c,cl,hc,hc
improper_coeff	 8    0.00000    0.00000  # c,hc,hc,hc
improper_coeff	 9    0.00000    0.00000  # c1,c,c,cl
improper_coeff	10    0.00000    0.00000  # c1,c,c,hc
improper_coeff	11    0.00000    0.00000  # c1,c,cl,hc

# AngleAngle Coeffs

improper_coeff	 1 aa    0.00000    0.00000    0.00000  107.00000  110.77000  107.99680  # c,c,cl,hc
improper_coeff	 2 aa    0.11840   -1.31990   -1.31990  110.77000  112.67000  110.77000  # c,c,hc,c1
improper_coeff	 3 aa    0.00000    0.00000    0.00000  110.77000  107.00000  107.99680  # c,c,hc,cl
improper_coeff	 4 aa    0.27380   -0.48250    0.27380  110.77000  110.77000  107.66000  # c,c,hc,hc
improper_coeff	 5 aa   -1.31990   -1.31990    0.11840  112.67000  110.77000  110.77000  # c,c1,c1,hc
improper_coeff	 6 aa    0.27380   -0.48250    0.27380  110.77000  110.77000  107.66000  # c,c1,hc,hc
improper_coeff	 7 aa    0.00000    0.00000    0.00000  107.99680  107.99680  107.66000  # c,cl,hc,hc
improper_coeff	 8 aa   -0.31570   -0.31570   -0.31570  107.66000  107.66000  107.66000  # c,hc,hc,hc
improper_coeff	 9 aa    0.00000    0.00000    0.00000  112.67000  107.00000  107.00000  # c1,c,c,cl
improper_coeff	10 aa   -1.31990   -1.31990    0.11840  112.67000  110.77000  110.77000  # c1,c,c,hc
improper_coeff	11 aa    0.00000    0.00000    0.00000  107.00000  110.77000  107.99680  # c1,c,cl,hc


# --- Thermo Output ---
thermo_style custom step time temp press enthalpy etotal ke pe ebond eangle edihed eimp evdwl ecoul elong etail vol lx ly lz density pxx pyy pzz
thermo_modify flush yes
thermo 1000

# --- Trajectory ---
dump dump_nvt all custom 1000 nvt_softheat.dump id type mol x y z ix iy iz vx vy vz

# --- Restart Checkpointing ---
restart 10000 nvt_1.rst nvt_2.rst

# --- Initial Velocities (optional) ---
velocity all create 300.0 934981 mom yes rot yes dist gaussian

# --- SHAKE Constraints ---
# Constrains H-X bonds to allow 2fs timestep
# SHAKE disabled

# --- NVT Thermostat (Nose-Hoover) ---
# T_damp = 50.0 fs  (coupling timescale for heat exchange)
# Ramp: 300.0 K -> 610.0 K over 300000 steps
timestep 0.5
fix nvt_fix all nvt temp 300.0 610.0 50.0

run 300000

CITE-CITE-CITE-CITE-CITE-CITE-CITE-CITE-CITE-CITE-CITE-CITE-CITE

Your simulation uses code contributions which should be cited:

- GPU package (short-range, long-range and three-body potentials): doi:10.1016/j.cpc.2010.12.021, doi:10.1016/j.cpc.2011.10.012, doi:10.1016/j.cpc.2013.08.002, doi:10.1016/j.commatsci.2014.10.068, doi:10.1016/j.cpc.2016.10.020, doi:10.3233/APC200086

@Article{Brown11,
 author = {W. M. Brown and P. Wang and S. J. Plimpton and A. N. Tharrington},
 title = {Implementing Molecular Dynamics on Hybrid High Performance Computers---Short Range Forces},
 journal = {Comput.\ Phys.\ Commun.},
 year =    2011,
 volume =  182,
 pages =   {898--911},
 doi =     {10.1016/j.cpc.2010.12.021}
}

@Article{Brown12,
 author = {W. M. Brown and A. Kohlmeyer and S. J. Plimpton and A. N. Tharrington},
 title = {Implementing Molecular Dynamics on Hybrid High Performance Computers - Particle-Particle Particle-Mesh},
 journal = {Comput.\ Phys.\ Commun.},
 year =    2012,
 volume =  183,
 doi =     {10.1016/j.cpc.2011.10.012},
 pages =   {449--459}
}

@Article{Brown13,
 author = {W. M. Brown and Y. Masako},
 title = {Implementing Molecular Dynamics on Hybrid High Performance Computers---Three-Body Potentials},
 journal = {Comput.\ Phys.\ Commun.},
 year =    2013,
 volume =  184,
 pages =   {2785--2793},
 doi =     {10.1016/j.cpc.2013.08.002},
}

@Article{Trung15,
 author = {T. D. Nguyen and S. J. Plimpton},
 title = {Accelerating Dissipative Particle Dynamics Simulations for Soft Matter Systems},
 journal = {Comput.\ Mater.\ Sci.},
 year =    2015,
 doi =     {10.1016/j.commatsci.2014.10.068},
 volume =  100,
 pages =   {173--180}
}

@Article{Trung17,
 author = {T. D. Nguyen},
 title = {{GPU}-Accelerated {T}ersoff Potentials for Massively Parallel
    Molecular Dynamics Simulations},
 journal = {Comput.\ Phys.\ Commun.},
 year =    2017,
 doi =     {10.1016/j.cpc.2016.10.020},
 volume =  212,
 pages =   {113--122}
}

@inproceedings{Nikolskiy19,
 author = {V. Nikolskiy and V. Stegailov},
 title = {{GPU} Acceleration of Four-Site Water Models in {LAMMPS}},
 booktitle = {Proceedings of the International Conference on Parallel
    Computing (ParCo 2019), Prague, Czech Republic},
 doi =     {10.3233/APC200086},
 year =    2019
}

CITE-CITE-CITE-CITE-CITE-CITE-CITE-CITE-CITE-CITE-CITE-CITE-CITE

PPPM initialization ...
  using 12-bit tables for long-range coulomb
  G vector (1/distance) = 0.28916327
  grid = 30 30 30
  stencil order = 5
  estimated absolute RMS force accuracy = 0.00033761496
  estimated relative force accuracy = 1.0167174e-06
  using double precision KISS FFT
  3d grid and FFT values/proc = 50653 27000
Generated 6 of 6 mixed pair_coeff terms from sixthpower/sixthpower mixing rule
Neighbor list info ...
  update: every = 1 steps, delay = 0 steps, check = yes
  max neighbors/atom: 4000, page size: 100000
  master list distance cutoff = 11.5
  ghost atom cutoff = 11.5
  binsize = 5.75, bins = 9 9 9
  1 neighbor lists, perpetual/occasional/extra = 1 0 0
  (1) pair lj/class2/coul/long/gpu, perpetual
      attributes: full, newton on
      pair build: full/bin
      stencil: full/bin/3d
      bin: standard
Per MPI rank memory allocation (min/avg/max) = 24.7 | 24.7 | 24.7 Mbytes
   Step          Time           Temp          Press         Enthalpy        TotEng         KinEng         PotEng         E_bond        E_angle        E_dihed        E_impro         E_vdwl         E_coul         E_long         E_tail         Volume           Lx             Ly             Lz          Density          Pxx            Pyy            Pzz      
         0   0              300            989.41759     -570.49886     -2205.0597      3236.2655     -5441.3251      132.65571      770.72824     -2046.1665      17.958468     -567.33818     -1582.6546     -2166.5083     -111.71592      113278         48.385495      48.385495      48.385495      0.54999999     936.4859       998.54029      1033.2266    
      1000   500            304.40205     -468.52678      373.30797      1147.3345      3283.7528     -2136.4183      1304.0593      2341.8424     -1962.7414      25.3107       -155.33815     -1538.6518     -2150.8994     -111.71592      113278         48.385495      48.385495      48.385495      0.54999999    -205.54795     -777.40918     -422.62319    
      2000   1000           306.66424     -677.03142      145.44518      1263.9305      3308.1563     -2044.2258      1323.628       2332.8957     -1946.5564      23.721582     -88.480049     -1539.5019     -2149.9327     -111.71592      113278         48.385495      48.385495      48.385495      0.54999999    -272.54866     -543.48998     -1215.0556    
      3000   1500           301.4988      -394.23837      603.79457      1255.0935      3252.4339     -1997.3404      1365.9698      2328.8771     -1971.6372      23.344077     -49.013051     -1541.0483     -2153.8329     -111.71592      113278         48.385495      48.385495      48.385495      0.54999999    -832.82566     -234.25169     -115.63778    
      4000   2000           300.68483     -112.11076      1050.6947      1235.9065      3243.6531     -2007.7466      1326.786       2321.3893     -1948.5301      23.372044     -29.242494     -1547.3619     -2154.1595     -111.71592      113278         48.385495      48.385495      48.385495      0.54999999    -300.04193      273.8895      -310.17985    
      5000   2500           305.80125     -383.21951      637.2992       1270.3945      3298.8468     -2028.4523      1320.9443      2311.2307     -1938.9729      23.321601     -61.287521     -1533.6476     -2150.0409     -111.71592      113278         48.385495      48.385495      48.385495      0.54999999    -560.56878     -120.14061     -468.94915    
      6000   3000           301.86946     -688.95939      30.394232      1168.585       3256.4324     -2087.8473      1340.5692      2274.8186     -1956.6598      22.675793     -70.111465     -1544.8552     -2154.2845     -111.71592      113278         48.385495      48.385495      48.385495      0.54999999    -1040.3014     -203.65771     -822.91904    
      7000   3500           300.31833     -384.79153      528.22752      1163.9198      3239.6995     -2075.7796      1296.1813      2364.049      -1988.0209      24.195568     -74.91621      -1545.7888     -2151.4796     -111.71592      113278         48.385495      48.385495      48.385495      0.54999999    -345.13469     -182.29409     -626.94581    
      8000   4000           307.85557     -19.683892      1147.4753      1179.9939      3321.0078     -2141.0139      1262.8644      2317.005      -1961.3343      23.191694     -77.364492     -1548.5017     -2156.8745     -111.71592      113278         48.385495      48.385495      48.385495      0.54999999     68.72875      -342.87883      215.0984     
      9000   4500           313.7992      -261.84286      907.919        1340.4948      3385.1251     -2044.6303      1372.1263      2272.9968     -1957.5594      22.117994     -53.742152     -1543.6839     -2156.8859     -111.71592      113278         48.385495      48.385495      48.385495      0.54999999    -943.2572       129.7724       27.956229    
     10000   5000           308.34202     -86.315495      1183.9433      1326.5403      3326.2554     -1999.7151      1368.1595      2300.0762     -1987.6939      24.079062     -16.921476     -1539.0655     -2148.3492     -111.71592      113278         48.385495      48.385495      48.385495      0.54999999    -136.43738     -463.03696      340.52786    
     11000   5500           313.49995     -274.59323      855.40743      1309.0474      3381.8969     -2072.8496      1315.6704      2300.3453     -1977.756       23.632088     -47.068069     -1541.5699     -2146.1034     -111.71592      113278         48.385495      48.385495      48.385495      0.54999999    -1040.3024      267.09591     -50.573161    
     12000   6000           308.8883      -513.87275      450.62272      1299.5628      3332.1484     -2032.5856      1386.679       2277.6261     -1955.1533      21.934078     -58.927435     -1550.4505     -2154.2935     -111.71592      113278         48.385495      48.385495      48.385495      0.54999999    -467.74144     -318.99106     -754.88575    
     13000   6500           316.77775     -123.22589      1159.7611      1363.3356      3417.2564     -2053.9208      1360.4544      2312.0484     -1984.8734      24.055465     -59.493408     -1551.3357     -2154.7765     -111.71592      113278         48.385495      48.385495      48.385495      0.54999999    -181.24705      161.27528     -349.7059     
     14000   7000           312.37591     -449.25356      537.01815      1279.2045      3369.7713     -2090.5667      1387.2601      2245.7593     -1962.0097      21.996037     -61.131927     -1560.0242     -2162.4163     -111.71592      113278         48.385495      48.385495      48.385495      0.54999999    -500.15667     -418.80277     -428.80124    
     15000   7500           314.14313     -116.65495      1129.6581      1322.3771      3388.8352     -2066.4581      1365.3037      2293.3833     -1963.6806      23.696305     -67.204867     -1561.486      -2156.47       -111.71592      113278         48.385495      48.385495      48.385495      0.54999999    -643.58861     -160.78906      454.41283    
     16000   8000           315.69775     -179.55123      1056.2111      1352.8375      3405.6057     -2052.7682      1346.5564      2307.5647     -1969.6409      22.300793     -44.812107     -1558.8661     -2155.8709     -111.71592      113278         48.385495      48.385495      48.385495      0.54999999    -30.748438     -155.96564     -351.93961    
     17000   8500           315.88741     -516.17948      482.20954      1334.9604      3407.6517     -2072.6913      1394.1747      2321.0509     -1978.9678      23.552488     -123.60506     -1554.0289     -2154.8676     -111.71592      113278         48.385495      48.385495      48.385495      0.54999999    -930.50051     -198.65211     -419.3858     
     18000   9000           313.03983     -564.79452      428.22089      1361.286       3376.9333     -2015.6473      1401.4864      2319.3833     -1974.6771      23.119382     -69.487573     -1554.1247     -2161.347      -111.71592      113278         48.385495      48.385495      48.385495      0.54999999    -864.22924     -342.42472     -487.72959    
     19000   9500           316.18105     -507.69321      491.87107      1330.6023      3410.8194     -2080.2171      1379.0141      2304.8        -1963.0976      22.0101       -99.598053     -1558.2554     -2165.0902     -111.71592      113278         48.385495      48.385495      48.385495      0.54999999    -981.31452     -323.1249      -218.64019    
     20000   10000          322.56429      27.420061      1419.5925      1374.2933      3479.6789     -2105.3856      1372.0107      2301.598      -2000.2824      23.202942     -67.904428     -1566.3702     -2167.6401     -111.71592      113278         48.385495      48.385495      48.385495      0.54999999    -323.42735      697.91073     -292.2232     
     21000   10500          326.24296      171.76739      1759.0834      1475.3162      3519.3627     -2044.0465      1371.4337      2309.1259     -1958.4665      21.610332     -57.297359     -1567.9722     -2162.4804     -111.71592      113278         48.385495      48.385495      48.385495      0.54999999    -365.91277     -2.5698159      883.78476    
     22000   11000          329.21781     -567.77068      502.43042      1440.4122      3551.454      -2111.0418      1363.639       2323.247      -1980.073       22.595338     -107.07925     -1565.1517     -2168.2192     -111.71592      113278         48.385495      48.385495      48.385495      0.54999999    -1127.8249     -529.57216     -45.914976    
     23000   11500          329.82694     -137.06743      1347.5713      1574.0127      3558.0251     -1984.0125      1393.1894      2329.6576     -1947.8733      22.365263     -55.885983     -1559.3663     -2166.0991     -111.71592      113278         48.385495      48.385495      48.385495      0.54999999     132.35077     -951.78887      408.23582    
     24000   12000          325.65858     -252.54649      990.66834      1407.8861      3513.0587     -2105.1726      1374.7341      2348.0655     -1999.1485      22.942997     -121.78575     -1559.5366     -2170.4445     -111.71592      113278         48.385495      48.385495      48.385495      0.54999999     193.71574     -486.2572      -465.09802    
     25000   12500          324.54143      112.34328      1515.4184      1329.8224      3501.0074     -2171.1851      1321.1273      2276.7213     -1980.6734      20.956624     -83.038535     -1563.199      -2163.0794     -111.71592      113278         48.385495      48.385495      48.385495      0.54999999     342.57166     -5.5406178     -0.0012180955 
     26000   13000          322.09388     -410.30844      731.25804      1409.1054      3474.6044     -2065.499       1372.3778      2332.9915     -1961.9997      21.899138     -94.486996     -1567.6547     -2168.6261     -111.71592      113278         48.385495      48.385495      48.385495      0.54999999    -293.38554     -331.1244      -606.41539    
     27000   13500          323.8596      -408.34459      811.58813      1486.1911      3493.6521     -2007.461       1451.8362      2331.4382     -1970.5372      20.750356     -116.85803     -1555.7345     -2168.356      -111.71592      113278         48.385495      48.385495      48.385495      0.54999999    -734.79752     -452.67926     -37.556999    
     28000   14000          323.5806      -111.84024      1285.6848      1470.4497      3490.6424     -2020.1927      1391.2613      2352.2082     -1981.2988      21.735294     -75.03344      -1563.859      -2165.2062     -111.71592      113278         48.385495      48.385495      48.385495      0.54999999     144.38263      5.0624887     -484.96585    
     29000   14500          329.6998      -69.06799       1398.5429      1512.6463      3556.6536     -2044.0073      1396.0119      2344.9508     -1974.4671      23.032903     -97.905986     -1566.3521     -2169.2777     -111.71592      113278         48.385495      48.385495      48.385495      0.54999999     102.59932     -385.8775       76.074214    
     30000   15000          325.98842     -189.98591      1063.9473      1377.8123      3516.6169     -2138.8046      1382.0329      2279.3015     -1971.8797      22.05846      -128.90145     -1556.5325     -2164.8838     -111.71592      113278         48.385495      48.385495      48.385495      0.54999999    -564.71627     -295.80237      290.56092    
     31000   15500          328.77757     -317.50437      979.79594      1504.3269      3546.705      -2042.3781      1397.3676      2340.8373     -1949.7979      21.379641     -123.09739     -1562.8571     -2166.2102     -111.71592      113278         48.385495      48.385495      48.385495      0.54999999     46.024968     -43.265593     -955.27249    
     32000   16000          330.50419     -195.4025       1196.9479      1519.7613      3565.331      -2045.5696      1425.6017      2283.6607     -1946.386       20.065535     -89.88164      -1574.4021     -2164.2278     -111.71592      113278         48.385495      48.385495      48.385495      0.54999999     450.37094     -357.49518     -679.08327    
     33000   16500          327.4617      -5.5308568      1486.9656      1496.1028      3532.5099     -2036.4071      1396.5645      2336.0155     -1986.9348      21.333115     -55.425902     -1580.0209     -2167.9386     -111.71592      113278         48.385495      48.385495      48.385495      0.54999999    -55.50328      -197.7283       236.63901    
     34000   17000          334.95682      70.675969      1782.2287      1665.4689      3613.364      -1947.8951      1475.708       2342.2824     -1955.1932      21.142693     -79.955048     -1575.9706     -2175.9093     -111.71592      113278         48.385495      48.385495      48.385495      0.54999999    -86.849375     -15.038598      313.91588    
     35000   17500          338.18873     -326.46994      994.84256      1534.1851      3648.2284     -2114.0433      1381.4283      2313.393      -1965.6943      21.243138     -114.02689     -1574.1855     -2176.2011     -111.71592      113278         48.385495      48.385495      48.385495      0.54999999    -245.45745     -769.86451      35.912141    
     36000   18000          340.97983     -820.51255      443.22531      1798.7477      3678.3375     -1879.5899      1517.2679      2372.7944     -1940.2457      20.933049     -104.61028     -1571.8078     -2173.9215     -111.71592      113278         48.385495      48.385495      48.385495      0.54999999    -1103.1884     -678.98613     -679.36316    
     37000   18500          336.09997     -15.315819      1635.8565      1661.1589      3625.6958     -1964.5369      1411.5313      2396.1737     -1952.0458      20.564077     -101.35836     -1569.6838     -2169.718      -111.71592      113278         48.385495      48.385495      48.385495      0.54999999     593.96445      72.190735     -712.10264    
     38000   19000          329.49274      127.35163      1703.4948      1493.1044      3554.42       -2061.3156      1386.0501      2347.8913     -1973.2771      21.242799     -105.04268     -1571.4145     -2166.7655     -111.71592      113278         48.385495      48.385495      48.385495      0.54999999     628.00866      169.50039     -415.45417    
     39000   19500          341.80643      175.8797       1987.9416      1697.3807      3687.2545     -1989.8739      1440.0887      2322.8764     -1963.4238      20.942288     -65.293295     -1578.7143     -2166.3499     -111.71592      113278         48.385495      48.385495      48.385495      0.54999999    -47.487522      547.18067      27.94594     
     40000   20000          349.3532       401.03973      2478.0279      1815.4929      3768.6657     -1953.1728      1434.1831      2370.6225     -1944.426       21.290893     -90.084298     -1573.3367     -2171.4223     -111.71592      113278         48.385495      48.385495      48.385495      0.54999999     583.75002      76.97278       542.3964     
     41000   20500          336.85059     -340.63365      1037.7202      1600.4617      3633.7931     -2033.3314      1473.8008      2346.6537     -1998.0098      20.847263     -131.18935     -1576.2268     -2169.2072     -111.71592      113278         48.385495      48.385495      48.385495      0.54999999    -98.924712      224.88463     -1147.8609    
     42000   21000          349.50907     -179.19203      1500.1891      1796.2222      3770.3471     -1974.1249      1495.0207      2369.4317     -1994.466       21.998269     -117.2656      -1579.5061     -2169.3379     -111.71592      113278         48.385495      48.385495      48.385495      0.54999999     94.952862     -306.04826     -326.48068    
     43000   21500          352.32071     -364.30728      1245.4641      1847.3156      3800.6778     -1953.3623      1491.9963      2397.3798     -1990.4605      21.761227     -117.68274     -1583.4697     -2172.8867     -111.71592      113278         48.385495      48.385495      48.385495      0.54999999    -242.58044     -445.03116     -405.31025    
     44000   22000          337.6962       123.35957      1909.8989      1706.1035      3642.9152     -1936.8117      1476.7776      2414.1822     -2012.8467      21.093184     -82.533308     -1581.8488     -2171.6359     -111.71592      113278         48.385495      48.385495      48.385495      0.54999999     204.67961      200.96635     -35.567256    
     45000   22500          345.0571      -428.96538      1045.5531      1754.2226      3722.3212     -1968.0987      1519.66        2377.1807     -1999.4132      21.936132     -144.22308     -1572.2219     -2171.0174     -111.71592      113278         48.385495      48.385495      48.385495      0.54999999    -1072.2327      127.09082     -341.75428    
     46000   23000          344.1366      -390.88783      1123.6966      1769.4602      3712.3913     -1942.931       1492.6512      2395.2588     -2009.6224      21.903475     -111.52308     -1565.7414     -2165.8576     -111.71592      113278         48.385495      48.385495      48.385495      0.54999999    -580.47613      194.23051     -786.41787    
     47000   23500          348.71911     -412.20307      1184.5087      1865.4861      3761.8254     -1896.3393      1514.9777      2418.2003     -2003.9432      22.295174     -112.1276      -1571.149      -2164.5927     -111.71592      113278         48.385495      48.385495      48.385495      0.54999999    -592.12494     -505.96381     -138.52046    
     48000   24000          356.85839     -748.52035      601.44441      1838.0325      3849.6283     -2011.5958      1465.0084      2373.0159     -1988.3649      20.733983     -143.51211     -1572.1079     -2166.3692     -111.71592      113278         48.385495      48.385495      48.385495      0.54999999    -832.44019     -711.77685     -701.344      
     49000   24500          347.76138      138.77901      1872.7665      1643.4975      3751.4939     -2107.9963      1391.7664      2324.4314     -2011.6317      20.474912     -93.484382     -1575.8085     -2163.7444     -111.71592      113278         48.385495      48.385495      48.385495      0.54999999     352.02575      359.06317     -294.75189    
     50000   25000          348.71379     -47.753738      1767.3903      1846.2816      3761.768      -1915.4864      1485.7173      2430.8823     -2004.0467      21.770439     -107.39489     -1576.4117     -2166.0031     -111.71592      113278         48.385495      48.385495      48.385495      0.54999999    -307.92097      325.12332     -160.46356    
     51000   25500          347.89008     -123.306        1554.3482      1758.0551      3752.8822     -1994.8271      1460.1939      2400.2646     -1996.9099      21.566697     -132.55734     -1581.1836     -2166.2014     -111.71592      113278         48.385495      48.385495      48.385495      0.54999999     247.34307     -128.05854     -489.20254    
     52000   26000          354.19508     -713.03514      684.15124      1862.1162      3820.8977     -1958.7814      1507.3782      2388.2961     -1976.4513      20.722761     -149.32641     -1582.5649     -2166.836      -111.71592      113278         48.385495      48.385495      48.385495      0.54999999    -536.91962     -1383.1926     -218.99323    
     53000   26500          353.50942     -602.68122      911.16517      1906.8207      3813.501      -1906.6803      1499.6853      2416.1028     -1966.6914      21.579874     -135.1136      -1572.517      -2169.7264     -111.71592      113278         48.385495      48.385495      48.385495      0.54999999    -154.62175     -432.77283     -1220.6491    
     54000   27000          357.61479     -317.69655      1497.3779      2022.2263      3857.788      -1835.5617      1555.3701      2408.6528     -1985.1708      20.231101     -103.87178     -1567.933      -2162.84       -111.71592      113278         48.385495      48.385495      48.385495      0.54999999    -345.01602     -553.83398     -54.239658    
     55000   27500          356.99964     -54.321356      1781.4584      1871.1996      3851.152      -1979.9524      1464.0972      2385.4336     -1997.3431      20.877814     -104.89857     -1581.3124     -2166.807      -111.71592      113278         48.385495      48.385495      48.385495      0.54999999     394.0965      -1105.8804      548.81979    
     56000   28000          360.67845     -436.06643      1306.988       2027.3887      3890.8374     -1863.4487      1602.3095      2358.9131     -1990.7262      21.268832     -105.80087     -1579.0722     -2170.3408     -111.71592      113278         48.385495      48.385495      48.385495      0.54999999    -330.47308     -332.44055     -645.28566    
     57000   28500          356.00354      67.000721      2132.1044      2021.4163      3840.4065     -1818.9902      1504.6573      2472.4345     -1972.3558      22.525058     -90.308042     -1582.3373     -2173.6059     -111.71592      113278         48.385495      48.385495      48.385495      0.54999999     734.90495     -139.67765     -394.22515    
     58000   29000          366.07897     -298.74701      1567.0139      2060.5569      3949.0958     -1888.5389      1512.2492      2477.0204     -1990.5491      21.811935     -163.45232     -1573.639      -2171.98       -111.71592      113278         48.385495      48.385495      48.385495      0.54999999    -193.61907     -561.93329     -140.68867    
     59000   29500          365.37588      114.85182      2181.0382      1991.298       3941.5112     -1950.2132      1460.7971      2434.0246     -1987.8665      22.708277     -138.43094     -1571.6885     -2169.7572     -111.71592      113278         48.385495      48.385495      48.385495      0.54999999     1091.5668     -1292.8116      545.80028    
     60000   30000          356.71337     -839.14105      591.9387       1978.2361      3848.0639     -1869.8278      1559.9599      2405.2664     -2001.6923      20.777579     -111.5892      -1577.4198     -2165.1303     -111.71592      113278         48.385495      48.385495      48.385495      0.54999999    -695.33367     -1236.5445     -585.545      
     61000   30500          364.80575      273.3665       2561.3879      2109.7746      3935.3609     -1825.5863      1494.2683      2469.5684     -1961.1559      21.108469     -112.01219     -1571.3238     -2166.0396     -111.71592      113278         48.385495      48.385495      48.385495      0.54999999     586.9007       320.93138     -87.732597    
     62000   31000          356.40846     -529.0661       1182.7649      2056.8051      3844.7747     -1787.9696      1508.4282      2493.5336     -1956.4724      20.537828     -108.42783     -1580.8321     -2164.7369     -111.71592      113278         48.385495      48.385495      48.385495      0.54999999    -60.068557     -892.98352     -634.14621    
     63000   31500          374.5857       326.5928       2683.8871      2144.3417      4040.8625     -1896.5209      1478.5406      2394.63       -1982.3802      19.792975     -48.563195     -1590.0247     -2168.5163     -111.71592      113278         48.385495      48.385495      48.385495      0.54999999     239.94104      831.75317     -91.915824    
     64000   32000          368.99949     -565.83541      1197.0211      2131.8058      3980.6011     -1848.7953      1564.8804      2371.6474     -1982.5185      19.82521      -72.311866     -1582.2158     -2168.1022     -111.71592      113278         48.385495      48.385495      48.385495      0.54999999    -224.17362     -648.07155     -825.26106    
     65000   32500          371.77924      143.57553      2368.6244      2131.4314      4010.5877     -1879.1563      1477.5328      2411.8095     -1997.9223      20.362465     -33.623239     -1587.1361     -2170.1794     -111.71592      113278         48.385495      48.385495      48.385495      0.54999999     672.82497     -202.81432     -39.28407     
     66000   33000          366.3462      -230.13935      1830.1846      2210.3848      3951.9785     -1741.5938      1586.0901      2468.5377     -1979.4769      21.577185     -92.799603     -1580.5163     -2165.006      -111.71592      113278         48.385495      48.385495      48.385495      0.54999999    -123.17562      157.68962     -724.93205    
     67000   33500          364.77503     -646.34877      1141.817       2209.6132      3935.0295     -1725.4163      1656.3054      2407.097      -2000.7015      20.239167     -56.325684     -1582.0583     -2169.9724     -111.71592      113278         48.385495      48.385495      48.385495      0.54999999    -392.19731     -586.52345     -960.32554    
     68000   34000          375.37548     -2.6587127      2253.6603      2258.0526      4049.3824     -1791.3298      1523.5663      2497.3137     -1994.9006      21.360394     -78.66959      -1586.9705     -2173.0295     -111.71592      113278         48.385495      48.385495      48.385495      0.54999999     14.11843       239.52629     -261.62085    
     69000   34500          364.75084     -140.97581      1845.2874      2078.1856      3934.7685     -1856.583       1545.8917      2389.9955     -1992.084       20.62762      -73.908434     -1575.2654     -2171.8399     -111.71592      113278         48.385495      48.385495      48.385495      0.54999999    -34.80566      -83.576718     -304.54504    
     70000   35000          371.75782      222.72634      2717.9076      2349.954       4010.3566     -1660.4026      1585.6185      2509.7966     -1974.4141      21.781076     -68.721843     -1570.3462     -2164.1166     -111.71592      113278         48.385495      48.385495      48.385495      0.54999999     713.41585      61.972853     -107.20967    
     71000   35500          369.32332      256.62004      2636.5099      2212.5624      3984.0943     -1771.5319      1519.315       2417.9256     -1957.2458      20.9612       -15.036823     -1586.7999     -2170.6512     -111.71592      113278         48.385495      48.385495      48.385495      0.54999999     823.11276     -62.503785      9.2511565    
     72000   36000          370.79131     -582.93198      1403.1195      2366.1484      3999.9303     -1633.7819      1572.0477      2501.445      -1960.2588      20.752186     -17.581833     -1582.8733     -2167.3129     -111.71592      113278         48.385495      48.385495      48.385495      0.54999999    -1309.1995     -642.18779      202.59138    
     73000   36500          373.75258     -810.37185      1010.8599      2349.6294      4031.8752     -1682.2459      1644.5046      2415.2627     -1963.1994      19.579642     -44.27187      -1586.2842     -2167.8373     -111.71592      113278         48.385495      48.385495      48.385495      0.54999999    -685.10316     -860.61316     -885.39922    
     74000   37000          377.94654     -705.94937      1217.8559      2384.1149      4077.1178     -1693.0028      1573.7496      2520.7774     -1997.2074      21.548025     -65.845576     -1580.9236     -2165.1014     -111.71592      113278         48.385495      48.385495      48.385495      0.54999999    -642.905       -1202.079      -272.86412    
     75000   37500          377.86233     -358.78561      1716.7295      2309.4589      4076.2094     -1766.7505      1577.2095      2439.5425     -1982.0749      20.225058     -77.088006     -1577.931      -2166.6336     -111.71592      113278         48.385495      48.385495      48.385495      0.54999999    -4.0211287     -254.60587     -817.72982    
     76000   38000          384.81077     -404.65299      1808.2394      2476.7437      4151.166      -1674.4223      1542.332       2483.0475     -1956.3895      20.406699     -9.0470459     -1587.2767     -2167.4953     -111.71592      113278         48.385495      48.385495      48.385495      0.54999999     441.61439     -392.0149      -1263.5584    
     77000   38500          389.36104     -579.94069      1694.7136      2652.8008      4200.2523     -1547.4515      1639.3426      2519.1995     -1972.8552      20.56171       0.9918753     -1585.9005     -2168.7913     -111.71592      113278         48.385495      48.385495      48.385495      0.54999999    -1137.8655     -315.3355      -286.62108    
     78000   39000          384.81899     -643.67003      1494.085       2557.4559      4151.2547     -1593.7989      1646.4987      2512.3818     -1950.0468      21.203392     -74.246393     -1580.3787     -2169.2109     -111.71592      113278         48.385495      48.385495      48.385495      0.54999999    -630.71621     -947.60394     -352.68995    
     79000   39500          383.65372      37.729346      2549.6015      2487.271       4138.6843     -1651.4133      1619.9863      2452.0327     -1951.2084      20.315715     -30.28903      -1591.6488     -2170.6018     -111.71592      113278         48.385495      48.385495      48.385495      0.54999999    -153.67852      88.557798      178.30876    
     80000   40000          386.82411      146.29138      2767.3175      2525.6378      4172.885      -1647.2473      1596.3327      2498.0933     -1978.2936      20.506982     -32.310741     -1587.6464     -2163.9295     -111.71592      113278         48.385495      48.385495      48.385495      0.54999999     615.80919     -300.96082      124.02578    
     81000   40500          385.74991     -125.10427      2361.8409      2568.5186      4161.297      -1592.7784      1595.1619      2527.7027     -1966.5137      20.968005     -7.197739      -1590.0976     -2172.802      -111.71592      113278         48.385495      48.385495      48.385495      0.54999999    -209.0509      -152.09998     -14.161928    
     82000   41000          380.82482      32.615997      2521.6114      2467.7283      4108.1674     -1640.4391      1671.6434      2450.4088     -1989.198       19.142871     -39.318237     -1586.5284     -2166.5895     -111.71592      113278         48.385495      48.385495      48.385495      0.54999999     242.42241     -58.996913     -85.577511    
     83000   41500          382.89584      143.69705      2726.784       2489.3903      4130.5087     -1641.1184      1567.3613      2551.4154     -1996.6764      20.314182     -21.018431     -1591.3655     -2171.1489     -111.71592      113278         48.385495      48.385495      48.385495      0.54999999     422.35708     -351.30855      360.04262    
     84000   42000          385.29032      18.876248      2524.099       2492.9147      4156.3392     -1663.4245      1652.1211      2468.8542     -1981.2093      20.097401     -63.979759     -1591.3603     -2167.9478     -111.71592      113278         48.385495      48.385495      48.385495      0.54999999     128.18032     -591.09847      519.54689    
     85000   42500          385.98379     -294.55236      2153.3996      2640.0129      4163.82       -1523.8071      1591.9072      2597.7162     -1959.8683      20.09597      -16.217941     -1585.4403     -2172          -111.71592      113278         48.385495      48.385495      48.385495      0.54999999    -29.675814     -174.46279     -679.51848    
     86000   43000          383.58301     -1015.1338      956.90325      2633.9484      4137.9215     -1503.9731      1676.6139      2509.8759     -1953.3731      20.226584     -12.428823     -1577.6879     -2167.1996     -111.71592      113278         48.385495      48.385495      48.385495      0.54999999    -1606.4369     -489.19743     -949.76706    
     87000   43500          380.70088      286.25789      3088.8778      2615.9673      4106.8304     -1490.8631      1609.2305      2556.7978     -1951.847       20.181447      19.572053     -1575.7745     -2169.0233     -111.71592      113278         48.385495      48.385495      48.385495      0.54999999    -469.05989      1363.2127     -35.379169    
     88000   44000          394.22881     -917.83317      1183.0319      2699.3322      4252.7636     -1553.4315      1662.0853      2523.0201     -1990.9774      21.138838     -17.793763     -1584.0205     -2166.884      -111.71592      113278         48.385495      48.385495      48.385495      0.54999999    -1324.6581     -319.99908     -1108.8424    
     89000   44500          394.03979     -190.15761      2426.3701      2740.5187      4250.7246     -1510.2058      1630.7817      2554.4966     -1974.5486      20.795416      9.7071954     -1585.1332     -2166.3049     -111.71592      113278         48.385495      48.385495      48.385495      0.54999999     289.9458      -70.454343     -789.96428    
     90000   45000          385.23051     -335.00022      2036.8516      2590.2865      4155.694      -1565.4075      1623.4553      2551.9064     -2011.0966      20.78389       6.3566762     -1583.9214     -2172.8918     -111.71592      113278         48.385495      48.385495      48.385495      0.54999999    -423.93638     -262.19456     -318.86972    
     91000   45500          389.97526     -64.971931      2616.1281      2723.4645      4206.8782     -1483.4137      1695.1724      2550.6655     -1989.5288      21.196552      0.066197753   -1587.8388     -2173.1468     -111.71592      113278         48.385495      48.385495      48.385495      0.54999999     955.51726     -511.67835     -638.7547     
     92000   46000          396.17415     -468.17615      2075.0025      2848.4498      4273.7491     -1425.2993      1670.749       2606.8105     -1957.9853      21.575636     -6.3713012     -1587.6045     -2172.4733     -111.71592      113278         48.385495      48.385495      48.385495      0.54999999    -350.48587     -729.91405     -324.12854    
     93000   46500          394.75883     -452.53711      2040.2149      2787.8258      4258.4812     -1470.6554      1698.5356      2561.4386     -1986.1772      20.76569      -8.5555283     -1583.2429     -2173.4196     -111.71592      113278         48.385495      48.385495      48.385495      0.54999999     173.24654     -744.06478     -786.79309    
     94000   47000          403.72836     -30.438102      2856.8789      2907.1639      4355.2406     -1448.0766      1688.9717      2542.286      -1958.5551      21.012588      14.228776     -1588.9851     -2167.0355     -111.71592      113278         48.385495      48.385495      48.385495      0.54999999     1116.8462     -975.75412     -232.40635    
     95000   47500          387.19674     -633.05879      1625.0426      2670.8832      4176.9048     -1506.0215      1687.479       2573.5221     -1981.3605      21.359999     -37.996228     -1596.6306     -2172.3954     -111.71592      113278         48.385495      48.385495      48.385495      0.54999999    -589.58221     -525.00563     -784.58851    
     96000   48000          398.52025      34.923184      2838.6773      2780.9827      4299.0578     -1518.0751      1634.8202      2600.5757     -1972.8801      20.81114      -36.707745     -1590.4002     -2174.2941     -111.71592      113278         48.385495      48.385495      48.385495      0.54999999     559.8537      -175.51415     -279.57001    
     97000   48500          398.08154      180.48985      3199.23        2901.0529      4294.3251     -1393.2722      1690.8331      2591.7097     -1936.3173      20.413688     -6.0726877     -1586.4712     -2167.3675     -111.71592      113278         48.385495      48.385495      48.385495      0.54999999     140.11856      98.858934      302.49207    
     98000   49000          413.21254     -125.0953       2723.4556      2930.1185      4457.5515     -1527.4331      1668.2657      2516.0777     -1939.5002      19.735894     -37.540337     -1590.4682     -2164.0037     -111.71592      113278         48.385495      48.385495      48.385495      0.54999999    -759.1446       560.52642     -176.66772    
     99000   49500          409.26273     -116.73468      2730.9039      2923.7546      4414.9428     -1491.1882      1617.8077      2593.7656     -1949.4556      19.996937     -16.472724     -1588.1329     -2168.6972     -111.71592      113278         48.385495      48.385495      48.385495      0.54999999     121.00756      999.51581     -1470.7274    
    100000   50000          413.57062     -211.55217      2691.0036      3040.497       4461.4144     -1420.9174      1658.1449      2612.4556     -1963.2547      20.666092     -13.680535     -1576.1166     -2159.1323     -111.71592      113278         48.385495      48.385495      48.385495      0.54999999    -506.01886     -473.93811      345.30047    
    101000   50500          398.44782     -269.86934      2391.0141      2836.8499      4298.2764     -1461.4265      1680.1219      2564.1152     -1958.9745      20.494226     -22.391392     -1577.8765     -2166.9155     -111.71592      113278         48.385495      48.385495      48.385495      0.54999999    -715.10106      445.97695     -540.48393    
    102000   51000          402.64585      58.717886      3070.8335      2973.829       4343.5629     -1369.7339      1763.7718      2564.6147     -1965.8066      19.717519     -8.5544461     -1580.0957     -2163.3812     -111.71592      113278         48.385495      48.385495      48.385495      0.54999999    -302.07346      297.12105      181.10608    
    103000   51500          402.65812      98.360372      3134.0848      2971.5892      4343.6952     -1372.1061      1728.5123      2600.1072     -1946.0532      20.153187     -17.640311     -1589.3907     -2167.7945     -111.71592      113278         48.385495      48.385495      48.385495      0.54999999     191.4607       299.06174     -195.44132    
    104000   52000          399.01328     -287.50252      2425.2517      2900.2184      4304.3763     -1404.1579      1691.8628      2595.3003     -1956.8644      21.032548     -8.0891122     -1582.5281     -2164.872      -111.71592      113278         48.385495      48.385495      48.385495      0.54999999    -652.11552     -675.38557      464.99351    
    105000   52500          412.59328     -255.31557      2605.1146      3026.907       4450.8712     -1423.9643      1706.4847      2614.9539     -1966.5036      21.235743     -59.451545     -1579.5045     -2161.179      -111.71592      113278         48.385495      48.385495      48.385495      0.54999999     18.209068      18.682389     -802.83816    
    106000   53000          412.13159     -382.48999      2464.6096      3096.4997      4445.8908     -1349.3911      1735.7631      2640.6629     -1973.683       21.135875     -25.378083     -1583.0616     -2164.8302     -111.71592      113278         48.385495      48.385495      48.385495      0.54999999    -688.44673     -128.94861     -330.07461    
    107000   53500          410.91562     -810.69434      1635.7807      2975.0829      4432.7735     -1457.6905      1731.4731      2553.3919     -1958.0469      19.775981     -55.687413     -1581.3023     -2167.2948     -111.71592      113278         48.385495      48.385495      48.385495      0.54999999    -858.35749     -816.28931     -757.43621    
    108000   54000          413.47965     -722.09584      1908.0494      3100.9831      4460.4331     -1359.45        1762.5353      2566.7217     -1949.1488      19.626001     -11.441044     -1578.0388     -2169.7043     -111.71592      113278         48.385495      48.385495      48.385495      0.54999999    -539.48549     -933.87722     -692.92479    
    109000   54500          412.79516     -265.29641      2734.6569      3172.9381      4453.0491     -1280.1109      1765.6319      2685.3656     -1977.3174      21.170791     -31.268849     -1577.4137     -2166.2793     -111.71592      113278         48.385495      48.385495      48.385495      0.54999999    -84.854837     -612.89393     -98.14046     
    110000   55000          412.34486     -344.90898      2452.6796      3022.4843      4448.1915     -1425.7072      1706.1944      2575.1718     -1980.2858      19.539865      18.716508     -1590.0653     -2174.9788     -111.71592      113278         48.385495      48.385495      48.385495      0.54999999     303.26964     -508.64582     -829.35076    
    111000   55500          418.60246      322.88694      3752.444       3219.0208      4515.6956     -1296.6748      1742.7004      2620.5883     -1933.0011      20.151513     -2.7144551     -1576.8374     -2167.5621     -111.71592      113278         48.385495      48.385495      48.385495      0.54999999     939.60019      94.150125     -65.0895      
    112000   56000          422.09406     -76.130749      3119.0055      3244.7768      4553.3615     -1308.5847      1768.6392      2665.4991     -1983.3385      21.058515     -34.976348     -1573.8078     -2171.6588     -111.71592      113278         48.385495      48.385495      48.385495      0.54999999    -712.89062     -22.155108      506.65349    
    113000   56500          417.09807     -767.51089      1893.8703      3161.8316      4499.4669     -1337.6353      1760.1834      2635.5866     -1950.2302      19.425678     -50.541067     -1578.8752     -2173.1844     -111.71592      113278         48.385495      48.385495      48.385495      0.54999999    -938.48693     -999.20855     -364.83719    
    114000   57000          405.88152     -293.07097      2641.2032      3125.3691      4378.4678     -1253.0987      1818.0246      2656.7161     -1958.7928      19.454731     -42.327547     -1572.81       -2173.3637     -111.71592      113278         48.385495      48.385495      48.385495      0.54999999    -297.88298     -497.90029     -83.429631    
    115000   57500          418.7642      -524.76014      2358.7907      3225.7172      4517.4404     -1291.7232      1746.2315      2681.8268     -1958.1787      20.134065     -19.298567     -1584.3509     -2178.0875     -111.71592      113278         48.385495      48.385495      48.385495      0.54999999    -286.16013     -587.68817     -700.43213    
    116000   58000          419.64106      87.890215      3439.9557      3294.7572      4526.8996     -1232.1423      1801.3478      2700.9868     -1964.4823      20.259514     -41.392985     -1576.4001     -2172.4611     -111.71592      113278         48.385495      48.385495      48.385495      0.54999999    -130.62458      187.32725      206.96798    
    117000   58500          428.57842      496.91333      4231.6287      3410.7063      4623.3118     -1212.6055      1747.5082      2721.621      -1953.617       19.615376      3.3629889     -1582.9613     -2168.1348     -111.71592      113278         48.385495      48.385495      48.385495      0.54999999     206.21841      450.45542      834.06614    
    118000   59000          409.67512     -656.28207      2120.0815      3204.2879      4419.3915     -1215.1035      1837.5463      2675.0559     -1964.6441      19.390833     -30.85954      -1581.3772     -2170.2158     -111.71592      113278         48.385495      48.385495      48.385495      0.54999999     39.826211     -923.20766     -1085.4648    
    119000   59500          422.24757     -464.73639      2651.9485      3419.7132      4555.0174     -1135.3043      1885.135       2686.0466     -1962.8606      19.69233      -5.1938945     -1586.9811     -2171.1426     -111.71592      113278         48.385495      48.385495      48.385495      0.54999999    -408.6674      -404.48408     -581.05769    
    120000   60000          428.32182     -631.34467      2354.6072      3397.616       4620.5437     -1222.9277      1860.2111      2657.1642     -1972.1512      20.820252     -48.134628     -1572.0991     -2168.7382     -111.71592      113278         48.385495      48.385495      48.385495      0.54999999    -567.98126     -1250.2612     -75.791526    
    121000   60500          425.69474      402.62124      3969.016       3303.8683      4592.204      -1288.3357      1760.4025      2672.7313     -1972.5991      21.184001     -27.040774     -1576.7336     -2166.28       -111.71592      113278         48.385495      48.385495      48.385495      0.54999999    -134.52033      1275.3271      67.057006    
    122000   61000          424.26476     -537.9072       2326.8967      3215.5427      4576.778      -1361.2352      1821.4578      2553.7906     -1944.1329      19.568402     -78.450683     -1571.4332     -2162.0353     -111.71592      113278         48.385495      48.385495      48.385495      0.54999999    -868.56887     -26.658386     -718.49433    
    123000   61500          431.26108     -980.63746      1816.6562      3436.7118      4652.2512     -1215.5393      1840.6368      2684.8671     -1974.3327      19.973438     -59.658385     -1567.4257     -2159.5998     -111.71592      113278         48.385495      48.385495      48.385495      0.54999999    -847.13287     -1093.7114     -1001.0681    
    124000   62000          429.53385      130.76512      3660.0509      3444.0213      4633.6186     -1189.5973      1817.5552      2692.8008     -1964.6974      22.181699     -17.805582     -1571.916      -2167.716      -111.71592      113278         48.385495      48.385495      48.385495      0.54999999     342.26636      239.64674     -189.61774    
    125000   62500          424.49541     -463.32894      2690.6232      3456.0627      4579.2661     -1123.2034      1841.6258      2755.4616     -1960.5634      20.445719     -43.157185     -1571.109      -2165.907      -111.71592      113278         48.385495      48.385495      48.385495      0.54999999     508.01243     -859.8886      -1038.1107    
    126000   63000          430.60057      95.110605      3687.149       3530.0222      4645.1259     -1115.1037      1827.6846      2765.9153     -1969.8895      22.128609     -0.54645438    -1586.5766     -2173.8196     -111.71592      113278         48.385495      48.385495      48.385495      0.54999999     11.247557      247.79325      26.291011    
    127000   63500          438.52656     -5.3908949      3635.4867      3644.3927      4730.6279     -1086.2352      1874.4505      2682.3732     -1927.3338      19.229138      15.525338     -1580.3585     -2170.121      -111.71592      113278         48.385495      48.385495      48.385495      0.54999999     256.1054      -448.14733      175.86924    
    128000   64000          422.46249      123.17826      3678.7067      3475.2108      4557.3359     -1082.1251      1833.3122      2773.8625     -1955.9957      21.705113     -4.780314      -1576.9027     -2173.3263     -111.71592      113278         48.385495      48.385495      48.385495      0.54999999    -138.42037      791.57912     -283.62397    
    129000   64500          435.70291     -132.84027      3474.1601      3693.618       4700.1676     -1006.5496      1772.8503      2786.5489     -1946.387       19.837307      97.809752     -1572.1714     -2165.0375     -111.71592      113278         48.385495      48.385495      48.385495      0.54999999    -71.859037     -629.04657      302.3848     
    130000   65000          439.7311       11.311965      3640.6743      3621.9865      4743.622      -1121.6355      1838.4927      2670.446      -1929.7164      19.529025      24.224361     -1574.5856     -2170.0256     -111.71592      113278         48.385495      48.385495      48.385495      0.54999999    -651.54095      19.101239      666.3756     
    131000   65500          444.35933     -395.62077      3090.5159      3744.0986      4793.5492     -1049.4506      1864.6258      2728.0682     -1937.6999      21.589437      9.2655615     -1572.4722     -2162.8276     -111.71592      113278         48.385495      48.385495      48.385495      0.54999999     174.69931     -1142.439      -219.12264    
    132000   66000          435.18525     -465.63908      2997.4619      3766.7179      4694.5834     -927.86553      1980.0298      2682.9535     -1931.2359      20.093061      51.102051     -1569.3662     -2161.4419     -111.71592      113278         48.385495      48.385495      48.385495      0.54999999    -379.18074     -188.15244     -829.58407    
    133000   66500          437.48144     -693.00921      2695.2576      3840.1389      4719.3536     -879.21466      1944.8048      2799.8428     -1930.356       20.609975      15.846794     -1566.9632     -2162.9999     -111.71592      113278         48.385495      48.385495      48.385495      0.54999999    -1181.4805     -455.17615     -442.37099    
    134000   67000          438.67271     -31.71213       3575.594       3627.9838      4732.2044     -1104.2206      1848.3172      2712.1741     -1951.1219      22.149371      14.268367     -1578.7138     -2171.2939     -111.71592      113278         48.385495      48.385495      48.385495      0.54999999     555.64524     -451.36893     -199.4127     
    135000   67500          455.73257     -438.66449      3198.8092      3923.502       4916.2386     -992.73662      1948.2532      2655.8378     -1943.8467      18.933715      80.677998     -1578.8917     -2173.7009     -111.71592      113278         48.385495      48.385495      48.385495      0.54999999    -358.1414      -529.10275     -428.74933    
    136000   68000          437.82091      134.1385       3911.0632      3689.4606      4723.0157     -1033.5551      1899.1102      2665.0834     -1972.9324      19.528583      94.039128     -1571.8675     -2166.5165     -111.71592      113278         48.385495      48.385495      48.385495      0.54999999    -153.13809      943.03451     -387.48092    
    137000   68500          432.85411     -415.87353      3022.7005      3709.7416      4669.4361     -959.69445      1831.2737      2812.4645     -1976.8323      22.496684      81.937968     -1568.6895     -2162.3455     -111.71592      113278         48.385495      48.385495      48.385495      0.54999999     214.96031     -648.0159      -814.56501    
    138000   69000          444.82068     -127.6666       3655.4622      3866.373       4798.5261     -932.15308      1879.6837      2825.527      -1986.0277      21.246375      78.409324     -1584.6458     -2166.346      -111.71592      113278         48.385495      48.385495      48.385495      0.54999999     285.49989     -868.12128      199.62159    
    139000   69500          440.67573     -350.99082      3195.8746      3775.7267      4753.8122     -978.08553      1898.3692      2789.8347     -1965.3764      21.963158      21.967924     -1581.4525     -2163.3915     -111.71592      113278         48.385495      48.385495      48.385495      0.54999999    -162.90419     -32.975564     -857.09271    
    140000   70000          462.07371      462.74815      4808.3209      4043.8409      4984.644      -940.80309      1866.7937      2823.2651     -1957.1806      21.564866      55.65746      -1582.5195     -2168.3842     -111.71592      113278         48.385495      48.385495      48.385495      0.54999999    -92.123701      870.40683      609.96131    
    141000   70500          444.25656     -429.45279      3114.5778      3824.0524      4792.4406     -968.38816      1876.2648      2846.0026     -1996.9702      21.17345       34.700013     -1580.2871     -2169.2717     -111.71592      113278         48.385495      48.385495      48.385495      0.54999999    -358.0667       29.376544     -959.66821    
    142000   71000          452.26988     -145.53339      3557.5955      3798.023       4878.8847     -1080.8617      1827.1576      2721.6434     -1956.2371      19.662071      56.342509     -1580.929      -2168.5012     -111.71592      113278         48.385495      48.385495      48.385495      0.54999999    -444.85702     -347.93819      356.19505    
    143000   71500          458.67033     -271.48157      3482.9935      3931.4928      4947.9298     -1016.437       1836.19        2798.7806     -1937.6295      21.288995      13.168215     -1579.0033     -2169.232      -111.71592      113278         48.385495      48.385495      48.385495      0.54999999    -72.80103      -845.25526      103.61158    
    144000   72000          458.97564     -20.312432      3855.679       3889.236       4951.2234     -1061.9874      1901.0104      2741.79       -1971.6165      21.296345      6.0823249     -1590.7333     -2169.8166     -111.71592      113278         48.385495      48.385495      48.385495      0.54999999     234.83774      353.57983     -649.35486    
    145000   72500          446.66807     -281.1115       3373.5579      3837.9663      4818.4548     -980.48858      1875.4063      2806.447      -1954.8536      19.923827      27.915886     -1586.4748     -2168.8532     -111.71592      113278         48.385495      48.385495      48.385495      0.54999999    -611.37151     -72.133117     -159.82987    
    146000   73000          444.55608      960.33548      5496.2377      3909.7218      4795.6716     -885.94979      1860.6607      2878.9988     -1937.185       21.545737      40.357336     -1582.7053     -2167.6222     -111.71592      113278         48.385495      48.385495      48.385495      0.54999999     1491.9092      925.25708      463.84021    
    147000   73500          459.41817     -250.19178      3621.6381      4034.9658      4955.9972     -921.03149      1960.5779      2749.1969     -1935.8399      21.39998       43.613186     -1587.5177     -2172.4618     -111.71592      113278         48.385495      48.385495      48.385495      0.54999999    -299.42326     -92.492154     -358.65994    
    148000   74000          451.54202     -491.65197      3142.0673      3954.2977      4871.0328     -916.73517      1881.0455      2810.3088     -1914.5877      21.691763      39.094657     -1581.3023     -2172.9858     -111.71592      113278         48.385495      48.385495      48.385495      0.54999999    -687.7454      -362.35525     -424.85525    
    149000   74500          449.60806     -936.01814      2382.0876      3928.4302      4850.1702     -921.73996      1930.8601      2828.0014     -1960.4485      21.539385      28.538274     -1592.1318     -2178.0988     -111.71592      113278         48.385495      48.385495      48.385495      0.54999999    -1764.2291     -772.20665     -271.61865    
    150000   75000          459.20949     -430.45322      3385.8046      4096.9321      4953.7461     -856.81404      1965.2048      2844.7912     -1940.2856      20.610793      12.192158     -1586.8269     -2172.5006     -111.71592      113278         48.385495      48.385495      48.385495      0.54999999    -168.39236     -850.21021     -272.7571     
    151000   75500          453.93328      176.31751      4311.6846      4020.4004      4896.8287     -876.42829      1856.0836      2880.8731     -1941.8105      20.601483      72.829716     -1592.1908     -2172.8149     -111.71592      113278         48.385495      48.385495      48.385495      0.54999999    -232.00468      246.36132      514.5959     
    152000   76000          455.97336     -100.85373      3803.1246      3969.7393      4918.8362     -949.09688      1920.7776      2776.5365     -1956.6615      20.788166      40.890282     -1583.2204     -2168.2075     -111.71592      113278         48.385495      48.385495      48.385495      0.54999999    -895.10132     -192.67919      785.21933    
    153000   76500          448.42294      22.554227      3952.9089      3915.6483      4837.3856     -921.73731      1912.9644      2843.9993     -1968.8516      21.14007       34.508425     -1587.8369     -2177.661      -111.71592      113278         48.385495      48.385495      48.385495      0.54999999    -370.51108      103.20738      334.96638    
    154000   77000          460.20646     -166.01212      3729.1612      4003.4204      4964.501      -961.08052      1878.2141      2848.977      -1945.9958      21.005738      3.5353778     -1587.2349     -2179.5821     -111.71592      113278         48.385495      48.385495      48.385495      0.54999999    -1030.7689      254.72193      278.01058    
    155000   77500          469.75227      149.47602      4487.3723      4240.4314      5067.4769     -827.04549      1943.6955      2804.2033     -1917.0087      19.925291      99.357487     -1595.6842     -2181.5342     -111.71592      113278         48.385495      48.385495      48.385495      0.54999999     123.73513     -433.08741      757.78034    
    156000   78000          456.29139     -86.658175      4025.5815      4168.7446      4922.2669     -753.52232      1966.3951      2905.8797     -1942.7792      21.322786      59.260266     -1587.0309     -2176.5701     -111.71592      113278         48.385495      48.385495      48.385495      0.54999999     427.70255     -897.89636      210.21928    
    157000   78500          460.48032     -255.17393      3808.0789      4229.6373      4967.4552     -737.8179       1993.9902      2860.3971     -1925.9152      21.723933      64.720073     -1578.8927     -2173.8413     -111.71592      113278         48.385495      48.385495      48.385495      0.54999999    -283.00978     -629.69815      147.18614    
    158000   79000          465.45922      471.86974      4948.8331      4169.2838      5021.1653     -851.88149      1868.713       2822.2039     -1913.0743      18.800025      116.02001     -1591.0789     -2173.4652     -111.71592      113278         48.385495      48.385495      48.385495      0.54999999    -217.66284      733.74827      899.52379    
    159000   79500          472.22909     -713.50605      3151.5079      4330.2509      5094.1957     -763.94483      1969.7605      2852.2547     -1918.4931      19.74667       58.960913     -1573.3999     -2172.7747     -111.71592      113278         48.385495      48.385495      48.385495      0.54999999    -1051.9938     -929.62126     -158.90313    
    160000   80000          468.54174     -890.47103      2877.8676      4348.9644      5054.4181     -705.4537       1955.0331      2919.9992     -1915.9509      20.043838      53.400666     -1571.0561     -2166.9235     -111.71592      113278         48.385495      48.385495      48.385495      0.54999999    -489.21402     -773.92244     -1408.2766    
    161000   80500          464.83981     -230.85403      3837.3313      4218.7122      5014.4835     -795.7713       1952.7601      2852.3406     -1953.152       19.579632      86.682129     -1579.5947     -2174.387      -111.71592      113278         48.385495      48.385495      48.385495      0.54999999    -437.23773      882.17062     -1137.495     
    162000   81000          474.76965      345.92249      5101.0983      4529.6194      5121.6021     -591.98271      2022.2195      2920.5323     -1912.9062      21.199207      95.802685     -1570.3135     -2168.5167     -111.71592      113278         48.385495      48.385495      48.385495      0.54999999     379.94537      233.70882      424.1133     
    163000   81500          465.8795      -787.5497       3066.444       4367.5103      5025.6992     -658.18885      1999.7421      2860.0425     -1903.7192      19.780343      116.21919     -1577.7831     -2172.4707     -111.71592      113278         48.385495      48.385495      48.385495      0.54999999    -1051.5484     -790.53492     -520.56575    
    164000   82000          473.49478     -1034.6629      2650.4774      4359.7854      5107.8494     -748.064        1993.0616      2900.7452     -1937.0803      21.465869      30.154222     -1582.4031     -2174.0075     -111.71592      113278         48.385495      48.385495      48.385495      0.54999999    -704.98077     -1633.4641     -765.54375    
    165000   82500          479.63899     -192.8326       4237.1972      4555.765       5174.1304     -618.36539      2071.7113      2884.7627     -1935.2944      20.406519      95.365131     -1583.3802     -2171.9364     -111.71592      113278         48.385495      48.385495      48.385495      0.54999999    -367.77805      219.65154     -430.37128    
[...]
    265000   132500         569.676        0.7135739      6747.8661      6746.6873      6145.4093      601.27801      2395.8904      3470.4434     -1882.8301      21.762758      331.54258     -1575.1878     -2160.3432     -111.71592      113278         48.385495      48.385495      48.385495      0.54999999     827.57715     -189.46752     -635.96891    
    266000   133000         567.81805      387.05897      7312.2486      6672.8104      6125.3665      547.44388      2395.3784      3453.0913     -1881.5672      23.198597      275.34579     -1561.834      -2156.169      -111.71592      113278         48.385495      48.385495      48.385495      0.54999999     412.55219      1272.2995     -523.67479    
    267000   133500         569.16752     -76.334345      6532.6499      6658.7576      6139.924       518.83362      2324.4032      3460.2565     -1882.1079      22.027539      312.09948     -1567.9582     -2149.8869     -111.71592      113278         48.385495      48.385495      48.385495      0.54999999     120.08862     -889.7496       540.65795    
    268000   134000         576.23386     -833.70028      5547.329       6924.6381      6216.1525      708.48553      2486.13        3523.8173     -1880.8276      22.93243       273.32035     -1559.3992     -2157.4878     -111.71592      113278         48.385495      48.385495      48.385495      0.54999999    -1005.4713     -976.3767      -519.25286    
    269000   134500         583.32761      278.63426      7244.6799      6784.364       6292.6767      491.68732      2307.2064      3443.4193     -1862.2156      22.467313      308.29095     -1569.4017     -2158.0794     -111.71592      113278         48.385495      48.385495      48.385495      0.54999999     778.26888      216.0012      -158.3673     
    270000   135000         598.72046     -31.044382      7086.2565      7137.5432      6458.7279      678.81533      2401.9125      3484.6665     -1861.9137      22.745598      334.45097     -1556.6288     -2146.4176     -111.71592      113278         48.385495      48.385495      48.385495      0.54999999     366.35746     -117.26359     -342.22702    
    271000   135500         581.74429      184.7805       7312.3976      7007.1322      6275.5965      731.53568      2398.7068      3503.2268     -1859.0931      24.644063      381.15607     -1560.7382     -2156.3667     -111.71592      113278         48.385495      48.385495      48.385495      0.54999999     162.71475     -376.48541      768.11216    
    272000   136000         574.73527      851.71783      8291.5935      6884.5187      6199.9863      684.53232      2386.4017      3397.4955     -1858.1699      21.270188      456.09397     -1568.8037     -2149.7554     -111.71592      113278         48.385495      48.385495      48.385495      0.54999999     1544.9757     -129.70204      1139.8798    
    273000   136500         579.40007     -378.86375      6277.8429      6903.7422      6250.3082      653.43405      2429.7834      3451.2829     -1883.2669      22.052218      339.66188     -1553.0227     -2153.0568     -111.71592      113278         48.385495      48.385495      48.385495      0.54999999    -749.30434      163.78635     -551.07325    
    274000   137000         590.08836      13.079556      7202.0673      7180.4593      6365.6086      814.85068      2492.3512      3496.7193     -1841.4417      21.75971       364.57808     -1564.1682     -2154.9478     -111.71592      113278         48.385495      48.385495      48.385495      0.54999999    -967.70445      749.84717      257.09595    
    275000   137500         586.83132      307.40152      7621.807       7113.9663      6330.4731      783.49321      2485.6154      3489.4319     -1874.4786      23.185161      377.07518     -1559.1029     -2158.2328     -111.71592      113278         48.385495      48.385495      48.385495      0.54999999     804.62009     -397.3579       514.94238    
    276000   138000         592.03261     -555.01695      6095.0585      7011.9706      6386.5823      625.38832      2396.9674      3414.772      -1880.7134      21.808933      408.43654     -1576.4839     -2159.3993     -111.71592      113278         48.385495      48.385495      48.385495      0.54999999    -884.71175     -832.57789      52.238804    
    277000   138500         595.81682      289.92471      7578.4755      7099.5073      6427.4047      672.10255      2464.6598      3448.2792     -1924.7877      23.49519       384.33055     -1564.5032     -2159.3712     -111.71592      113278         48.385495      48.385495      48.385495      0.54999999    -248.49282      215.68299      902.58395    
    278000   139000         601.72939     -770.36382      5910.8593      7183.5338      6491.1869      692.34691      2494.869       3477.3486     -1851.8385      21.982736      275.61348     -1566.0686     -2159.5599     -111.71592      113278         48.385495      48.385495      48.385495      0.54999999    -196.24619     -1087.8617     -1026.9836    
    279000   139500         572.35586     -53.427561      6903.1478      6991.4124      6174.3183      817.09412      2465.6022      3549.624      -1840.5321      23.096956      346.95978     -1567.3632     -2160.2935     -111.71592      113278         48.385495      48.385495      48.385495      0.54999999    -600.66123      43.310377      397.06817    
    280000   140000         585.53535     -457.95183      6449.8114      7206.3677      6316.4928      889.87495      2533.0688      3513.5339     -1876.6528      23.543977      431.24908     -1570.0638     -2164.8042     -111.71592      113278         48.385495      48.385495      48.385495      0.54999999    -945.55938     -552.71334      124.41723    
    281000   140500         596.24537     -761.73237      5924.2451      7182.66        6432.0277      750.63232      2479.6244      3464.1328     -1837.7571      22.671759      339.12474     -1560.8442     -2156.3201     -111.71592      113278         48.385495      48.385495      48.385495      0.54999999    -965.94604     -49.699779     -1269.5513    
    282000   141000         577.81876     -412.43538      6252.7023      6934.0634      6233.2497      700.81369      2426.877       3499.4891     -1885.9403      23.753302      350.76008     -1560.2738     -2153.8517     -111.71592      113278         48.385495      48.385495      48.385495      0.54999999     83.168253     -325.07246     -995.40192    
    283000   141500         596.52664     -213.65134      6952.7753      7305.7366      6435.0619      870.67467      2493.2347      3580.5469     -1871.4573      23.367825      361.54913     -1560.9159     -2155.6506     -111.71592      113278         48.385495      48.385495      48.385495      0.54999999    -101.59469     -507.51688     -31.842446    
    284000   142000         604.78136     -604.09504      6302.3959      7300.3872      6524.1101      776.27707      2495.8641      3496.3705     -1875.1979      23.469237      361.17661     -1568.2404     -2157.165      -111.71592      113278         48.385495      48.385495      48.385495      0.54999999    -1200.7324     -465.53783     -146.01487    
    285000   142500         603.94926      270.74375      7718.8394      7271.5589      6515.1338      756.4251       2383.3912      3528.0139     -1856.009       23.178689      394.52137     -1561.8522     -2154.8189     -111.71592      113278         48.385495      48.385495      48.385495      0.54999999     312.5799       509.38892     -9.737557     
    286000   143000         593.22442     -690.61994      6134.3937      7275.3278      6399.439       875.88882      2542.6689      3500.0011     -1860.6607      21.786644      382.09995     -1562.0391     -2147.968      -111.71592      113278         48.385495      48.385495      48.385495      0.54999999    -580.55425     -1116.7114     -374.59418    
    287000   143500         600.6367      -173.83107      7211.5341      7498.7106      6479.3994      1019.3112      2657.2864      3535.9784     -1871.2278      24.169119      387.46801     -1562.5043     -2151.8588     -111.71592      113278         48.385495      48.385495      48.385495      0.54999999     266.41437     -287.31009     -500.59748    
    288000   144000         588.77082     -209.03721      6910.0322      7255.3707      6351.3956      903.97513      2470.7484      3526.8403     -1811.5065      22.482795      408.84389     -1554.9174     -2158.5165     -111.71592      113278         48.385495      48.385495      48.385495      0.54999999     535.42197     -699.46285     -463.07077    
    289000   144500         609.23677      466.05335      8079.0332      7309.0928      6572.1731      736.91974      2408.2982      3437.7308     -1847.4631      22.728877      432.89302     -1564.9696     -2152.2986     -111.71592      113278         48.385495      48.385495      48.385495      0.54999999     684.86064      445.74769      267.55171    
    290000   145000         593.00113      44.433792      7308.3479      7234.9413      6397.0303      837.911        2439.6421      3527.1752     -1840.1523      21.810418      398.00923     -1555.0577     -2153.516      -111.71592      113278         48.385495      48.385495      48.385495      0.54999999     550.48268     -137.0679      -280.11341    
    291000   145500         606.59184     -478.45307      6730.6734      7521.0986      6543.6407      977.45786      2578.222       3560.7218     -1849.2847      22.236579      377.66478     -1557.1497     -2154.9529     -111.71592      113278         48.385495      48.385495      48.385495      0.54999999    -293.03255     -285.83772     -856.48894    
    292000   146000         590.68986      296.06881      7713.3541      7224.2356      6372.0973      852.1383       2437.1094      3622.7035     -1852.2629      23.523478      340.32775     -1563.9367     -2155.3262     -111.71592      113278         48.385495      48.385495      48.385495      0.54999999     179.4636       560.8331       147.90972    
    293000   146500         599.21866     -397.35627      6608.4973      7264.9471      6464.1022      800.8449       2441.3432      3528.1664     -1827.8707      22.928487      335.18454     -1547.5525     -2151.3546     -111.71592      113278         48.385495      48.385495      48.385495      0.54999999    -1315.9068      393.88098     -270.043      
    294000   147000         595.2795      -263.55779      6914.1004      7349.5093      6421.6083      927.90105      2593.7681      3483.5272     -1836.8608      22.856856      368.92301     -1552.7198     -2151.5935     -111.71592      113278         48.385495      48.385495      48.385495      0.54999999    -94.896174     -1044.3931      348.61592    
    295000   147500         622.95629      40.483404      7695.3006      7628.4202      6720.1731      908.24715      2584.9715      3521.9689     -1822.2853      21.966252      311.89888     -1557.8231     -2152.45       -111.71592      113278         48.385495      48.385495      48.385495      0.54999999    -84.516914      195.36816      10.598966    
    296000   148000         615.63823     -212.26821      7387.6382      7738.3145      6641.2291      1097.0854      2614.8925      3576.6159     -1827.9312      21.215594      401.19172     -1544.3191     -2144.58       -111.71592      113278         48.385495      48.385495      48.385495      0.54999999    -325.88385     -474.03855      163.11777    
    297000   148500         609.4897       278.83281      8069.5621      7608.9182      6574.9015      1034.0166      2564.4716      3588.6385     -1837.1964      23.775498      389.60827     -1548.152      -2147.1289     -111.71592      113278         48.385495      48.385495      48.385495      0.54999999     589.16262      332.94525     -85.609442    
    298000   149000         595.77367     -744.00885      6239.2671      7468.402       6426.9392      1041.4628      2537.7971      3698.2702     -1863.4801      24.008607      336.95233     -1546.1728     -2145.9125     -111.71592      113278         48.385495      48.385495      48.385495      0.54999999    -395.65833     -1154.5282     -681.84002    
    299000   149500         604.89693      352.88337      8052.8608      7469.8822      6525.3568      944.52539      2497.7243      3641.8071     -1890.5457      24.712976      371.6372      -1551.5394     -2149.2712     -111.71592      113278         48.385495      48.385495      48.385495      0.54999999     33.02978       341.90132      683.71901    
    300000   150000         619.38187     -507.43115      6930.6217      7768.92        6681.6139      1087.306       2593.9182      3600.8716     -1847.2725      23.734422      405.95911     -1548.5973     -2141.3075     -111.71592      113278         48.385495      48.385495      48.385495      0.54999999    -502.39905     -756.61332     -263.28109    
Loop time of 11252.1 on 1 procs for 300000 steps with 3620 atoms

Performance: 1.152 ns/day, 20.837 hours/ns, 26.662 timesteps/s, 96.516 katom-step/s
41.7% CPU use with 1 MPI tasks x 1 OpenMP threads

MPI task timing breakdown:
Section |  min time  |  avg time  |  max time  |%varavg| %total
---------------------------------------------------------------
Pair    | 350.5      | 350.5      | 350.5      |   0.0 |  3.12
Bond    | 5300.8     | 5300.8     | 5300.8     |   0.0 | 47.11
Kspace  | 4937.7     | 4937.7     | 4937.7     |   0.0 | 43.88
Neigh   | 488.21     | 488.21     | 488.21     |   0.0 |  4.34
Comm    | 69.363     | 69.363     | 69.363     |   0.0 |  0.62
Output  | 9.0761     | 9.0761     | 9.0761     |   0.0 |  0.08
Modify  | 69.46      | 69.46      | 69.46      |   0.0 |  0.62
Other   |            | 26.95      |            |       |  0.24

Nlocal:           3620 ave        3620 max        3620 min
Histogram: 1 0 0 0 0 0 0 0 0 0
Nghost:           6609 ave        6609 max        6609 min
Histogram: 1 0 0 0 0 0 0 0 0 0
Neighs:              0 ave           0 max           0 min
Histogram: 1 0 0 0 0 0 0 0 0 0
FullNghs:  1.06512e+06 ave 1.06512e+06 max 1.06512e+06 min
Histogram: 1 0 0 0 0 0 0 0 0 0

Total # of neighbors = 1065122
Ave neighs/atom = 294.2326
Ave special neighs/atom = 5.9723757
Neighbor list builds = 5135
Dangerous builds = 0

# --- Cleanup ---
unfix nvt_fix

undump dump_nvt

# --- Write Output ---
write_dump all custom nvt_softheat_last.dump id type mol x y z xu yu zu vx vy vz modify sort id
write_data /home/arz2/PolyJarvis/data/PVC1/lammps/equil/nvt_softheat/nvt_softheat_out.data
System init for write_data ...
PPPM initialization ...
  using 12-bit tables for long-range coulomb
  G vector (1/distance) = 0.28916327
  grid = 30 30 30
  stencil order = 5
  estimated absolute RMS force accuracy = 0.00033761496
  estimated relative force accuracy = 1.0167174e-06
  using double precision KISS FFT
  3d grid and FFT values/proc = 50653 27000
Generated 6 of 6 mixed pair_coeff terms from sixthpower/sixthpower mixing rule

print "STAGE COMPLETE: NVT T=300.0->610.0K steps=300000"
STAGE COMPLETE: NVT T=300.0->610.0K steps=300000
quit
 ...
PPPM initialization ...
  using 12-bit tables for long-range coulomb
  G vector (1/distance) = 0.28916327
  grid = 30 30 30
  stencil order = 5
  estimated absolute RMS force accuracy = 0.00033761496
  estimated relative force accuracy = 1.0167174e-06
  using double precision KISS FFT
  3d grid and FFT values/proc = 50653 27000


---------------------------------------------------------------------
    Device Time Info (average) for kspace: 
---------------------------------------------------------------------
Data Out:        21.2755 s.
Data In:         121.6352 s.
Kernel (map):    12.9619 s.
Kernel (rho):    95.7110 s.
Force interp:    18.5487 s.
Total rho:       129.9484 s.
Total interp:    140.1838 s.
Force copy:      7.7586 s.
Total:           277.8909 s.
CPU Poisson:     4881.4252 s.
CPU Data Cast:   11.5202 s.
CPU Idle Time:   9.1618 s.
Max Mem / Proc:  13.60 MB.
---------------------------------------------------------------------


--------------------------------------------------------------------------
- Using acceleration for pppm:
-  with 1 proc(s) per device.
-  with 1 thread(s) per proc.
-  Horizontal vector operations: ENABLED
-  Shared memory system: No
--------------------------------------------------------------------------
Device 0: Quadro RTX 6000, 72 CUs, 23/24 GB, 1.8 GHZ (Mixed Precision)
--------------------------------------------------------------------------

Initializing Device and compiling on process 0...Done.
Initializing Device 0 on core 0...Done.



---------------------------------------------------------------------
      Device Time Info (average): 
---------------------------------------------------------------------
Data Transfer:   7.5934 s.
Neighbor copy:   30.3614 s.
Neighbor unpack: 0.0000 s.
Force calc:      26.4447 s.
Device Overhead: 6.7757 s.
CPU Cast/Pack:   21.9599 s.
CPU Driver_Time: 5.2879 s.
CPU Idle_Time:   4.8330 s.
Average split:   1.0000.
Max Mem / Proc:  10.04 MB.
Prefetch mode:   None.
Vector width:    32.
Lanes / atom:    8.
Pair block:      256.
Neigh block:     128.
Neigh mode:      Host.
---------------------------------------------------------------------


--------------------------------------------------------------------------
- Using acceleration for lj/class2/coul/long:
-  with 1 proc(s) per device.
-  with 1 thread(s) per proc.
-  Horizontal vector operations: ENABLED
-  Shared memory system: No
--------------------------------------------------------------------------
Device 0: Quadro RTX 6000, 72 CUs, 23/24 GB, 1.8 GHZ (Mixed Precision)
--------------------------------------------------------------------------

Initializing Device and compiling on process 0...Done.
Initializing Device 0 on core 0...Done.

Generated 6 of 6 mixed pair_coeff terms from sixthpower/sixthpower mixing rule
STAGE COMPLETE: NVT T=300.0->610.0K steps=300000
Cuda driver error 4 in call at file '/home/arz2/lammps/lib/gpu/geryon/nvd_timer.h' in line 98.
Cuda driver error 4 in call at file '/home/arz2/lammps/lib/gpu/geryon/nvd_timer.h' in line 99.
Cuda driver error 4 in call at file '/home/arz2/lammps/lib/gpu/geryon/nvd_timer.h' in line 98.
Cuda driver error 4 in call at file '/home/arz2/lammps/lib/gpu/geryon/nvd_timer.h' in line 99.
Cuda driver error 4 in call at file '/home/arz2/lammps/lib/gpu/geryon/nvd_timer.h' in line 98.
Cuda driver error 4 in call at file '/home/arz2/lammps/lib/gpu/geryon/nvd_timer.h' in line 99.
Cuda driver error 4 in call at file '/home/arz2/lammps/lib/gpu/geryon/nvd_timer.h' in line 98.
Cuda driver error 4 in call at file '/home/arz2/lammps/lib/gpu/geryon/nvd_timer.h' in line 99.
Cuda driver error 4 in call at file '/home/arz2/lammps/lib/gpu/geryon/nvd_timer.h' in line 98.
Cuda driver error 4 in call at file '/home/arz2/lammps/lib/gpu/geryon/nvd_timer.h' in line 99.
Cuda driver error 4 in call at file '/home/arz2/lammps/lib/gpu/geryon/nvd_timer.h' in line 98.
Cuda driver error 4 in call at file '/home/arz2/lammps/lib/gpu/geryon/nvd_timer.h' in line 99.
Cuda driver error 4 in call at file '/home/arz2/lammps/lib/gpu/geryon/nvd_timer.h' in line 98.
Cuda driver error 4 in call at file '/home/arz2/lammps/lib/gpu/geryon/nvd_timer.h' in line 99.
Cuda driver error 4 in call at file '/home/arz2/lammps/lib/gpu/geryon/nvd_timer.h' in line 98.
Cuda driver error 4 in call at file '/home/arz2/lammps/lib/gpu/geryon/nvd_timer.h' in line 99.
Cuda driver error 4 in call at file '/home/arz2/lammps/lib/gpu/geryon/nvd_timer.h' in line 98.
Cuda driver error 4 in call at file '/home/arz2/lammps/lib/gpu/geryon/nvd_timer.h' in line 99.
Cuda driver error 4 in call at file '/home/arz2/lammps/lib/gpu/geryon/nvd_timer.h' in line 98.
Cuda driver error 4 in call at file '/home/arz2/lammps/lib/gpu/geryon/nvd_timer.h' in line 99.
