units real
atom_style full
boundary p p p

# --- Force Field Styles ---
pair_style lj/class2/coul/long 9.5 9.5
kspace_style pppm 1e-6
dielectric 1.000000
bond_style class2
angle_style class2
dihedral_style class2
improper_style class2
special_bonds lj/coul 0 0 1
pair_modify mix sixthpower tail yes
neighbor 2.0 bin
neigh_modify delay 0 every 1 check yes
neigh_modify one 4000
# KOKKOS: package loaded via -pk kokkos on the command line

read_data /home/alexzhao/PolyJarvis/data/PEEK4/lammps/equil/npt_prod300/npt_prod300_out.data
Reading data file ...
  orthogonal box = (5.1240839 5.1240839 5.1240839) to (51.931445 51.931445 51.931445)
  1 by 1 by 1 MPI processor grid
  reading atoms ...
  8720 atoms
  reading velocities ...
  8720 velocities
  scanning bonds ...
  3 = max bonds/atom
  scanning angles ...
  9 = max angles/atom
  scanning dihedrals ...
  18 = max dihedrals/atom
  scanning impropers ...
  4 = max impropers/atom
  orthogonal box = (5.1240839 5.1240839 5.1240839) to (51.931445 51.931445 51.931445)
  1 by 1 by 1 MPI processor grid
  reading bonds ...
  9480 bonds
  reading angles ...
  15104 angles
  reading dihedrals ...
  22512 dihedrals
  reading impropers ...
  4864 impropers
Finding 1-2 1-3 1-4 neighbors ...
  special bond factors lj:    0        0        1       
  special bond factors coul:  0        0        1       
     3 = max # of 1-2 neighbors
     6 = max # of 1-3 neighbors
     9 = max # of special neighbors
  special bonds CPU = 0.006 seconds
  read_data CPU = 0.390 seconds
include /home/alexzhao/PolyJarvis/data/PEEK4/lammps/cell/emc_build.params
# LAMMPS parameters created by EMC v9.4.4, build Jul 31 2025 20:33:44

# Variables

variable	seed		index	734812
variable	ntotal		index	8720
variable	fshape		index	1
variable	output		index	emc_build
variable	field		index	pcff/pcff
variable	location1	index	~/emc/field/
variable	nav		index	0.6022141179
variable	temperature	index	300
variable	radius		index	5
variable	nrelax		index	100
variable	weight_nonbond	index	0.0001
variable	weight_bond	index	0.0001
variable	weight_focus	index	1
variable	cutoff		index	9.5
variable	charge_cutoff	index	9.5
variable	kappa		index	4
variable	density1	index	0.66
variable	lprevious	index	0
variable	lphase		index	57.0555285531
variable	f_poly		index	8
variable	chem_repeat	index	*Oc1ccc(Oc2ccc(C(=O)c3ccc(cc3)*)cc2)cc1
variable	chem_cap	index	*[H]
variable	lg_repeat	index	34
variable	lg_cap		index	1
variable	norm_poly	index	100
variable	l_poly		index	1090
variable	mg_repeat	index	260.29514
variable	mg_cap		index	0
variable	m_poly		index	8329.44448
variable	n_poly		index	8
variable	mtotal		index	73822.38416
variable	nphase1		index	8720
variable	mphase1		index	73822.38416
variable	vphase1		index	185734.764243
variable	lbox		index	57.0555285531
variable	lphase1		index	57.0555285531
variable	lxx		index	57.0555285531
variable	lyy		index	57.0555285531
variable	lzz		index	57.0555285531
variable	lzy		index	0
variable	lzx		index	0
variable	lyx		index	0
variable	vtotal		index	185734.764243
variable	nl_poly		index	8

# Types

variable	type_c_0	index	1
variable	type_cp		index	2
variable	type_hc		index	3
variable	type_ho		index	4
variable	type_o_1	index	5
variable	type_oc		index	6
variable	type_oh		index	7

variable	type_bond_c_0_cp index	1
variable	type_bond_c_0_o_1 index	2
variable	type_bond_cp_cp	index	3
variable	type_bond_cp_hc	index	4
variable	type_bond_cp_oc	index	5
variable	type_bond_cp_oh	index	6
variable	type_bond_ho_oh	index	7

variable	type_angle_c_0_cp_cp index	1
variable	type_angle_cp_c_0_cp index	2
variable	type_angle_cp_c_0_o_1 index	3
variable	type_angle_cp_cp_cp index	4
variable	type_angle_cp_cp_hc index	5
variable	type_angle_cp_cp_oc index	6
variable	type_angle_cp_cp_oh index	7
variable	type_angle_cp_oc_cp index	8
variable	type_angle_cp_oh_ho index	9

# Clusters

variable	n0_poly		index	1
variable	n1_poly		index	8
variable	nl_poly		index	8

# Flags

variable	flag_charged	index	1

# Masses

mass		1    12.01115  # c_0
mass		2    12.01115  # cp
mass		3     1.00797  # hc
mass		4     1.00797  # ho
mass		5    15.99940  # o_1
mass		6    15.99940  # oc
mass		7    15.99940  # oh

# Potentials

pair_modify	mix sixthpower tail yes
special_bonds	lj/coul 0 0 1

# Pair Coeffs

pair_coeff	 1  1    0.12000    3.30800  # c_0,c_0
pair_coeff	 2  2    0.06400    4.01000  # cp,cp
pair_coeff	 3  3    0.02000    2.99500  # hc,hc
pair_coeff	 4  4    0.01300    1.09800  # ho,ho
pair_coeff	 5  5    0.26700    3.30000  # o_1,o_1
pair_coeff	 6  6    0.24000    3.53500  # oc,oc
pair_coeff	 7  7    0.24000    3.53500  # oh,oh

# Bond Coeffs

bond_coeff	1    1.48900  339.35740 -655.72360  670.23620  # c_0,cp
bond_coeff	2    1.21600  823.79480 -1878.79400 2303.53110  # c_0,o_1
bond_coeff	3    1.41700  470.83610 -627.61790 1327.63450  # cp,cp
bond_coeff	4    1.09820  372.82510 -803.45260  894.31730  # cp,hc
bond_coeff	5    1.37680  428.87980 -738.23510 1114.96550  # cp,oc
bond_coeff	6    1.37680  428.87980 -738.23510 1114.96550  # cp,oh
bond_coeff	7    0.96500  532.50620 -1282.90500 2004.76580  # ho,oh

# Angle Coeffs

angle_coeff	1  108.40000   43.95940   -8.39240   -9.33790  # c_0,cp,cp
angle_coeff	2  110.58840   34.62140   -7.09390   -7.40320  # cp,c_0,cp
angle_coeff	3  119.30000   65.10160  -17.97660    0.00000  # cp,c_0,o_1
angle_coeff	4  118.90000   61.02260  -34.99310    0.00000  # cp,cp,cp
angle_coeff	5  117.94000   35.15580  -12.46820    0.00000  # cp,cp,hc
angle_coeff	6  123.42000   73.67810  -21.67870    0.00000  # cp,cp,oc
angle_coeff	7  123.42000   73.67810  -21.67870    0.00000  # cp,cp,oh
angle_coeff	8  109.50000   60.00000    0.00000    0.00000  # cp,oc,cp
angle_coeff	9  108.19000   53.12500   -8.50160    0.00000  # cp,oh,ho

# BondBond Coeffs

angle_coeff	1 bb    0.00000    1.48900    1.41700  # c_0,cp,cp
angle_coeff	2 bb    0.00000    1.48900    1.48900  # cp,c_0,cp
angle_coeff	3 bb    0.00000    1.48900    1.21600  # cp,c_0,o_1
angle_coeff	4 bb   68.28560    1.41700    1.41700  # cp,cp,cp
angle_coeff	5 bb    1.07950    1.41700    1.09820  # cp,cp,hc
angle_coeff	6 bb   48.47540    1.41700    1.37680  # cp,cp,oc
angle_coeff	7 bb   48.47540    1.41700    1.37680  # cp,cp,oh
angle_coeff	8 bb    0.00000    1.37680    1.37680  # cp,oc,cp
angle_coeff	9 bb   20.65770    1.37680    0.96500  # cp,oh,ho

# BondAngle Coeffs

angle_coeff	1 ba    0.00000    0.00000    1.48900    1.41700  # c_0,cp,cp
angle_coeff	2 ba    0.00000    0.00000    1.48900    1.48900  # cp,c_0,cp
angle_coeff	3 ba    0.00000    0.00000    1.48900    1.21600  # cp,c_0,o_1
angle_coeff	4 ba   28.87080   28.87080    1.41700    1.41700  # cp,cp,cp
angle_coeff	5 ba   20.00330   24.21830    1.41700    1.09820  # cp,cp,hc
angle_coeff	6 ba   58.47900  107.68060    1.41700    1.37680  # cp,cp,oc
angle_coeff	7 ba   58.47900  107.68060    1.41700    1.37680  # cp,cp,oh
angle_coeff	8 ba    0.00000    0.00000    1.37680    1.37680  # cp,oc,cp
angle_coeff	9 ba   53.86140   23.92240    1.37680    0.96500  # cp,oh,ho

# Dihedral Coeffs

dihedral_coeff	 1    0.00000    0.00000    4.62820    0.00000    0.00000    0.00000  # c_0,cp,cp,cp
dihedral_coeff	 2    0.00000    0.00000    2.16700    0.00000    0.00000    0.00000  # c_0,cp,cp,hc
dihedral_coeff	 3    0.00000    0.00000    2.50000    0.00000    0.00000    0.00000  # cp,c_0,cp,cp
dihedral_coeff	 4    0.00000    0.00000    0.90630    0.00000    0.00000    0.00000  # cp,cp,c_0,o_1
dihedral_coeff	 5    8.36670    0.00000    1.19320    0.00000    0.00000    0.00000  # cp,cp,cp,cp
dihedral_coeff	 6    0.00000    0.00000    3.96610    0.00000    0.00000    0.00000  # cp,cp,cp,hc
dihedral_coeff	 7    0.00000    0.00000    4.84980    0.00000    0.00000    0.00000  # cp,cp,cp,oc
dihedral_coeff	 8    0.00000    0.00000    4.84980    0.00000    0.00000    0.00000  # cp,cp,cp,oh
dihedral_coeff	 9    0.00000    0.00000    1.80000    0.00000    0.00000    0.00000  # cp,cp,oc,cp
dihedral_coeff	10   -0.69000    0.00000    0.50970    0.00000    0.00950    0.00000  # cp,cp,oh,ho
dihedral_coeff	11    0.00000    0.00000    1.87690    0.00000    0.00000    0.00000  # hc,cp,cp,hc
dihedral_coeff	12    0.00000    0.00000    1.72340    0.00000    0.00000    0.00000  # hc,cp,cp,oc
dihedral_coeff	13    0.00000    0.00000    1.72340    0.00000    0.00000    0.00000  # hc,cp,cp,oh

# MiddleBondTorsion Coeffs

dihedral_coeff	 1 mbt    0.00000    0.00000    0.00000    1.41700  # c_0,cp,cp,cp
dihedral_coeff	 2 mbt    0.00000    0.00000    0.00000    1.41700  # c_0,cp,cp,hc
dihedral_coeff	 3 mbt    0.00000    0.00000    0.00000    1.48900  # cp,c_0,cp,cp
dihedral_coeff	 4 mbt    0.00000    0.00000    0.00000    1.48900  # cp,cp,c_0,o_1
dihedral_coeff	 5 mbt   27.59890   -2.31200    0.00000    1.41700  # cp,cp,cp,cp
dihedral_coeff	 6 mbt    0.00000   -1.15210    0.00000    1.41700  # cp,cp,cp,hc
dihedral_coeff	 7 mbt    0.00000    4.82550    0.00000    1.41700  # cp,cp,cp,oc
dihedral_coeff	 8 mbt    0.00000    4.82550    0.00000    1.41700  # cp,cp,cp,oh
dihedral_coeff	 9 mbt    0.00000    0.00000    0.00000    1.37680  # cp,cp,oc,cp
dihedral_coeff	10 mbt    1.15800    3.26970    3.51320    1.37680  # cp,cp,oh,ho
dihedral_coeff	11 mbt    0.00000    4.82280    0.00000    1.41700  # hc,cp,cp,hc
dihedral_coeff	12 mbt    0.00000    5.54320    0.00000    1.41700  # hc,cp,cp,oc
dihedral_coeff	13 mbt    0.00000    5.54320    0.00000    1.41700  # hc,cp,cp,oh

# EndBondTorsion Coeffs

dihedral_coeff	 1 ebt    0.00000    0.00000    0.00000    0.00000    0.00000    0.00000    1.48900    1.41700  # c_0,cp,cp,cp
dihedral_coeff	 2 ebt    0.00000    0.00000    0.00000    0.00000    0.00000    0.00000    1.48900    1.09820  # c_0,cp,cp,hc
dihedral_coeff	 3 ebt    0.00000    0.00000    0.00000    0.00000    0.00000    0.00000    1.48900    1.41700  # cp,c_0,cp,cp
dihedral_coeff	 4 ebt    0.00000    0.00000    0.00000    0.00000    0.00000    0.00000    1.41700    1.21600  # cp,cp,c_0,o_1
dihedral_coeff	 5 ebt   -0.11850    6.32040    0.00000   -0.11850    6.32040    0.00000    1.41700    1.41700  # cp,cp,cp,cp
dihedral_coeff	 6 ebt    0.00000   -6.89580    0.00000    0.00000   -0.46690    0.00000    1.41700    1.09820  # cp,cp,cp,hc
dihedral_coeff	 7 ebt    0.00000    0.26550    0.00000    0.00000    4.89050    0.00000    1.41700    1.37680  # cp,cp,cp,oc
dihedral_coeff	 8 ebt    0.00000    0.26550    0.00000    0.00000    4.89050    0.00000    1.41700    1.37680  # cp,cp,cp,oh
dihedral_coeff	 9 ebt    0.00000    0.00000    0.00000    0.00000    0.00000    0.00000    1.41700    1.37680  # cp,cp,oc,cp
dihedral_coeff	10 ebt    0.90000   -1.34560    1.19000    3.41320    0.58730   -0.13230    1.41700    0.96500  # cp,cp,oh,ho
dihedral_coeff	11 ebt    0.00000   -0.68900    0.00000    0.00000   -0.68900    0.00000    1.09820    1.09820  # hc,cp,cp,hc
dihedral_coeff	12 ebt    0.00000   -1.58670    0.00000    0.00000    4.26410    0.00000    1.09820    1.37680  # hc,cp,cp,oc
dihedral_coeff	13 ebt    0.00000   -1.58670    0.00000    0.00000    4.26410    0.00000    1.09820    1.37680  # hc,cp,cp,oh

# AngleTorsion Coeffs

dihedral_coeff	 1 at    0.00000    0.00000    0.00000    0.00000    0.00000    0.00000  108.40000  118.90000  # c_0,cp,cp,cp
dihedral_coeff	 2 at    0.00000    0.00000    0.00000    0.00000    0.00000    0.00000  108.40000  117.94000  # c_0,cp,cp,hc
dihedral_coeff	 3 at    0.00000    0.00000    0.00000    0.00000    0.00000    0.00000  110.58840  108.40000  # cp,c_0,cp,cp
dihedral_coeff	 4 at    0.00000    0.00000    0.00000    0.00000    0.00000    0.00000  108.40000  119.30000  # cp,cp,c_0,o_1
dihedral_coeff	 5 at    1.97670    1.02390    0.00000    1.97670    1.02390    0.00000  118.90000  118.90000  # cp,cp,cp,cp
dihedral_coeff	 6 at    0.00000    2.50140    0.00000    0.00000    2.71470    0.00000  118.90000  117.94000  # cp,cp,cp,hc
dihedral_coeff	 7 at    0.00000   10.01550    0.00000    0.00000    1.74040    0.00000  118.90000  123.42000  # cp,cp,cp,oc
dihedral_coeff	 8 at    0.00000   10.01550    0.00000    0.00000    1.74040    0.00000  118.90000  123.42000  # cp,cp,cp,oh
dihedral_coeff	 9 at    0.00000    0.00000    0.00000    0.00000    0.00000    0.00000  123.42000  109.50000  # cp,cp,oc,cp
dihedral_coeff	10 at   -5.13600   -1.01220    0.00000    4.68520    0.02300   -0.59800  123.42000  108.19000  # cp,cp,oh,ho
dihedral_coeff	11 at    0.00000    2.45010    0.00000    0.00000    2.45010    0.00000  117.94000  117.94000  # hc,cp,cp,hc
dihedral_coeff	12 at    0.00000    1.87290    0.00000    0.00000    2.57060    0.00000  117.94000  123.42000  # hc,cp,cp,oc
dihedral_coeff	13 at    0.00000    1.87290    0.00000    0.00000    2.57060    0.00000  117.94000  123.42000  # hc,cp,cp,oh

# AngleAngleTorsion Coeffs

dihedral_coeff	 1 aat    0.00000  108.40000  118.90000  # c_0,cp,cp,cp
dihedral_coeff	 2 aat    0.00000  108.40000  117.94000  # c_0,cp,cp,hc
dihedral_coeff	 3 aat    0.00000  110.58840  108.40000  # cp,c_0,cp,cp
dihedral_coeff	 4 aat    0.00000  108.40000  119.30000  # cp,cp,c_0,o_1
dihedral_coeff	 5 aat    0.00000  118.90000  118.90000  # cp,cp,cp,cp
dihedral_coeff	 6 aat   -4.81410  118.90000  117.94000  # cp,cp,cp,hc
dihedral_coeff	 7 aat  -21.02470  118.90000  123.42000  # cp,cp,cp,oc
dihedral_coeff	 8 aat  -21.02470  118.90000  123.42000  # cp,cp,cp,oh
dihedral_coeff	 9 aat    0.00000  123.42000  109.50000  # cp,cp,oc,cp
dihedral_coeff	10 aat   -4.60720  123.42000  108.19000  # cp,cp,oh,ho
dihedral_coeff	11 aat    0.35980  117.94000  117.94000  # hc,cp,cp,hc
dihedral_coeff	12 aat    4.22960  117.94000  123.42000  # hc,cp,cp,oc
dihedral_coeff	13 aat    4.22960  117.94000  123.42000  # hc,cp,cp,oh

# BondBond13 Coeffs

dihedral_coeff	 1 bb13    0.00000    1.48900    1.41700  # c_0,cp,cp,cp
dihedral_coeff	 2 bb13    0.00000    1.48900    1.09820  # c_0,cp,cp,hc
dihedral_coeff	 3 bb13    0.00000    1.48900    1.41700  # cp,c_0,cp,cp
dihedral_coeff	 4 bb13    0.00000    1.41700    1.21600  # cp,cp,c_0,o_1
dihedral_coeff	 5 bb13   53.00000    1.41700    1.41700  # cp,cp,cp,cp
dihedral_coeff	 6 bb13   -6.27410    1.41700    1.09820  # cp,cp,cp,hc
dihedral_coeff	 7 bb13   -2.24360    1.41700    1.37680  # cp,cp,cp,oc
dihedral_coeff	 8 bb13   -2.24360    1.41700    1.37680  # cp,cp,cp,oh
dihedral_coeff	 9 bb13    0.00000    1.41700    1.37680  # cp,cp,oc,cp
dihedral_coeff	10 bb13    1.15900    1.41700    0.96500  # cp,cp,oh,ho
dihedral_coeff	11 bb13   -1.70770    1.09820    1.09820  # hc,cp,cp,hc
dihedral_coeff	12 bb13    2.05170    1.09820    1.37680  # hc,cp,cp,oc
dihedral_coeff	13 bb13    2.05170    1.09820    1.37680  # hc,cp,cp,oh

# Improper Coeffs

improper_coeff	1   38.79490    0.00000  # c_0,cp,cp,o_1
improper_coeff	2    0.00000    0.00000  # cp,c_0,cp,cp
improper_coeff	3    4.89120    0.00000  # cp,cp,cp,hc
improper_coeff	4   13.04210    0.00000  # cp,cp,cp,oc
improper_coeff	5   13.04210    0.00000  # cp,cp,cp,oh

# AngleAngle Coeffs

improper_coeff	1 aa    0.00000    0.00000    0.00000  110.58840  119.30000  119.30000  # c_0,cp,cp,o_1
improper_coeff	2 aa    0.00000    0.00000    0.00000  108.40000  108.40000  118.90000  # cp,c_0,cp,cp
improper_coeff	3 aa    0.00000    0.00000    0.00000  118.90000  117.94000  117.94000  # cp,cp,cp,hc
improper_coeff	4 aa    0.00000    0.00000    0.00000  118.90000  123.42000  123.42000  # cp,cp,cp,oc
improper_coeff	5 aa    0.00000    0.00000    0.00000  118.90000  123.42000  123.42000  # cp,cp,cp,oh


# --- Thermo Output ---
thermo_style custom step time temp press enthalpy etotal ke pe ebond eangle edihed eimp evdwl ecoul elong etail vol lx ly lz density pxx pyy pzz
thermo_modify flush yes
thermo 500

# --- Velocity initialization at T_START (once only — Rule A) ---
velocity all create 750.0 452625 mom yes rot yes dist gaussian

# --- Temperature staircase (inherits momenta across steps — Rule A) ---
variable temps index 750 730 710 690 670 650 630 610 590 570 550 530 510 490 470 450 430 410 390 370 350 330 310 290 270 250
label TEMP_LOOP
  timestep 1
  fix npt_tg all npt temp ${temps} ${temps} 100 iso 1.0 1.0 1000.0
  fix npt_tg all npt temp 750 ${temps} 100 iso 1.0 1.0 1000.0
  fix npt_tg all npt temp 750 750 100 iso 1.0 1.0 1000.0
  run 200000
PPPM Kokkos initialization ...
  using 12-bit tables for long-range coulomb
  G vector (1/distance) = 0.30697585
  grid = 36 36 36
  stencil order = 5
  estimated absolute RMS force accuracy = 0.00037726607
  estimated relative force accuracy = 1.1361256e-06
  using double precision cuFFT
  3d grid and FFT values/proc = 79507 46656
Generated 21 of 21 mixed pair_coeff terms from sixthpower/sixthpower mixing rule
Neighbor list info ...
  update: every = 1 steps, delay = 0 steps, check = yes
  max neighbors/atom: 4000, page size: 100000
  master list distance cutoff = 11.5
  ghost atom cutoff = 11.5
  binsize = 11.5, bins = 5 5 5
  1 neighbor lists, perpetual/occasional/extra = 1 0 0
  (1) pair lj/class2/coul/long/kk, perpetual
      attributes: full, newton off, kokkos_device
      pair build: full/bin/kk/device
      stencil: full/bin/3d
      bin: kk/device
Per MPI rank memory allocation (min/avg/max) = 36.32 | 36.32 | 36.32 Mbytes
   Step          Time           Temp          Press         Enthalpy        TotEng         KinEng         PotEng         E_bond        E_angle        E_dihed        E_impro         E_vdwl         E_coul         E_long         E_tail         Volume           Lx             Ly             Lz          Density          Pxx            Pyy            Pzz      
         0   0              750            5594.8195      47421.9        39054.232      19492.262      19561.97       4073.0597      5788.9095      5276.982       435.45405     -1321.9525      15715.91      -10406.393     -783.87864      102551.6       46.807361      46.807361      46.807361      1.1953488      4213.5993      6610.8185      5960.0407    
       500   500            703.9866       1454.1298      50873.497      48616.683      18296.389      30320.295      7947.0498      8125.8528      8405.9014      1016.8876     -517.01433      15736.084     -10394.467     -755.39601      106418.37      47.388417      47.388417      47.388417      1.1519152      1072.7453      2251.6559      1037.9882    
      1000   1000           744.7848      -848.14985      50017.646      51373.214      19356.721      32016.493      8349.4138      8781.8734      8738.8446      1045.4976     -269.50232      15759.34      -10388.974     -733.53111      109590.46      47.854662      47.854662      47.854662      1.1185731     -1569.5356      704.67243     -1679.5864    
      1500   1500           747.56023     -1347.0547      49880.521      52057.458      19428.853      32628.604      8425.8374      8770.4985      9113.2756      1102.4189     -180.10282      15787.3       -10390.623     -725.44867      110811.44      48.031727      48.031727      48.031727      1.1062481     -1176.4883     -1994.7148     -869.96108    
      2000   2000           746.42379      215.31174      52158.945      51811.956      19399.318      32412.638      8557.9329      8654.579       8880.8335      1109.1192     -158.46511      15761.415     -10392.776     -727.47598      110502.63      47.987068      47.987068      47.987068      1.1093395     -34.799042     -1933.6224      2614.3567    
      2500   2500           743.05221     -648.46887      50371.323      51420.09       19311.691      32108.399      8370.1683      8642.4362      8812.5638      1079.0162     -161.69317      15748.621     -10382.713     -724.89875      110895.51      48.04387       48.04387       48.04387       1.1054095     -341.4886      -741.78625     -862.13175    
      3000   3000           751.73108     -481.81346      50663.83       51445.051      19537.252      31907.798      8261.3295      8464.3538      8937.0818      1069.1396     -225.99705      15784.181     -10382.291     -723.05708      111177.96      48.084625      48.084625      48.084625      1.1026011     -133.04957     -1363.0633      50.672491    
      3500   3500           749.18834      806.16549      53116.335      51811.222      19471.167      32340.055      8496.6856      8919.121       8662.6608      1037.3361     -173.27296      15781.882     -10384.358     -724.17457      111006.4       48.059879      48.059879      48.059879      1.1043052      708.417       -567.57314      2277.6526    
      4000   4000           759.37708      82.218165      52262.057      52128.006      19735.969      32392.037      8419.8401      8688.3702      8886.3965      1118.9992     -113.82214      15785.225     -10392.972     -719.06089      111795.84      48.173538      48.173538      48.173538      1.0965072     -1382.5915      1103.8942      525.35173    
      4500   4500           751.173        1288.0208      54012.28       51901.911      19522.748      32379.162      8586.3428      8669.4977      8645.67        1083.971       0.079777694    15781.855     -10388.253     -715.53611      112346.55      48.25251       48.25251       48.25251       1.0911322      1155.6004      2191.3527      517.10926    
      5000   5000           749.89243     -374.77326      51177.88       51793.231      19489.466      32303.764      8443.3243      8652.0237      8810.8142      1066.0492     -56.048051      15776.657     -10389.056     -714.0241       112584.45      48.286546      48.286546      48.286546      1.0888265     -1116.1648     -658.25086      650.09585    
      5500   5500           737.83948     -683.93587      50424.807      51540.095      19176.214      32363.881      8367.185       8662.3833      8902.0466      1091.6999     -51.396709      15777.149     -10385.186     -718.94479      111813.89      48.176131      48.176131      48.176131      1.0963302      224.49012     -25.616421     -2250.6813    
      6000   6000           738.28789     -2131.492       48045.017      51527.444      19187.868      32339.576      8260.5274      8628.9572      9038.6522      1064.7229     -62.3903        15792.741     -10383.634     -717.5776       112026.93      48.206708      48.206708      48.206708      1.0942453     -3461.3825     -1390.6261     -1542.4673    
      6500   6500           757.57087     -670.65897      51188.564      52280.003      19689.027      32590.977      8518.6233      8725.7487      8835.2729      1081.6578      23.414943      15789.025     -10382.766     -720.39273      111589.15      48.143832      48.143832      48.143832      1.0985382     -100.87281     -1039.8951     -871.20903    
      7000   7000           750.7297      -2582.2189      47656.473      51906.084      19511.227      32394.857      8377.0538      8685.7738      8838.4043      1077.1045      31.590467      15770.933     -10386.003     -712.37894      112844.45      48.323688      48.323688      48.323688      1.0863178     -4253.529      -2407.8298     -1085.2978    
      7500   7500           745.85056     -108.66471      51815.387      51994.513      19384.42       32610.093      8449.959       8596.4927      9090.8601      1086.2382      2.9058485      15765.755     -10382.117     -711.2084       113030.18      48.350185      48.350185      48.350185      1.0845328      1305.8838     -2629.2659      997.38801    
      8000   8000           752.1434       295.56154      52231.382      51744.29       19547.968      32196.321      8324.9373      8598.9107      8860.4065      1053.901      -53.087364      15784.15      -10372.897     -711.38335      113002.38      48.346221      48.346221      48.346221      1.0847996      2445.6546     -801.79285     -757.17709    
      8500   8500           751.47252      1102.4757      53569.965      51773.669      19530.532      32243.136      8519.6694      8493.0105      8828.0408      1068.8471     -91.094452      15803.842     -10379.179     -719.5454       111720.56      48.162723      48.162723      48.162723      1.0972461      1333.3164      192.78999      1781.3207    
      9000   9000           749.87381      49.482975      52000.26       51919.153      19488.983      32430.171      8319.0924      8740.8798      8930.308       1096.5094     -87.50937       15809.843     -10378.953     -715.26015      112389.89      48.258715      48.258715      48.258715      1.0907114     -133.19748      1049.6641     -768.01769    
      9500   9500           737.24586     -188.33278      51246.505      51560.239      19160.786      32399.453      8525.6618      8590.581       8834.2971      1067.6195      14.926341      15748.607     -10382.239     -703.77116      114224.65      48.519905      48.519905      48.519905      1.0731917      1259.1806     -1620.5315     -203.64749    
     10000   10000          746.66542     -172.72748      51518.852      51807.827      19405.597      32402.23       8286.1859      8618.9644      8892.6468      1059.7299      148.34496      15779.277     -10382.919     -700.75692      114715.97      48.589373      48.589373      48.589373      1.0685952     -1459.52        581.25764      360.07993    
     10500   10500          742.25522     -133.63019      51814.652      52036.619      19290.978      32745.641      8478.9667      8777.1573      8940.5885      1122.3255      5.4964181      15803.317     -10382.21      -705.802        113895.98      48.473324      48.473324      48.473324      1.0762885     -690.35799     -324.41674      613.88417    
     11000   11000          759.65809      1953.7233      55646.769      52424.398      19743.273      32681.125      8470.9595      8768.3943      8855.1954      1125.7274      69.28961       15778.316     -10386.758     -710.81186      113093.24      48.359174      48.359174      48.359174      1.0839282      2307.8463      450.18678      3103.1369    
     11500   11500          761.04232     -12.983785      52009.799      52031.214      19779.248      32251.965      8329.8935      8488.1012      8916.7089      1064.0581      38.674007      15799.982     -10385.453     -710.82549      113091.07      48.358865      48.358865      48.358865      1.0839489      1226.2349      1270.6182     -2535.8045    
     12000   12000          756.36542     -1258.6568      49700.437      51771.317      19657.697      32113.62       8133.0993      8536.3134      8985.4931      1099.8587     -72.111395      15803.824     -10372.857     -712.55676      112816.29      48.319668      48.319668      48.319668      1.086589      -1456.5652     -1452.7799     -866.62528    
     12500   12500          754.28367     -245.88972      51238.807      51645.488      19603.593      32041.894      8089.7647      8588.4085      9018.3318      1100.2889     -183.93575      15802.98      -10373.944     -708.84899      113406.4       48.40377       48.40377       48.40377       1.0809349      1049.9285     -380.54457     -1407.0531    
     13000   13000          742.34484     -585.08035      50380.01       51352.244      19293.307      32058.937      8124.4577      8648.1762      8726.0783      1077.4589      75.216583      15783.469     -10375.92      -705.52445      113940.79      48.47968       48.47968       48.47968       1.0758653     -1374.6891     -520.90273      140.35076    
     13500   13500          754.69188     -624.12111      51211.731      52250.601      19614.203      32636.399      8399.1654      8688.7836      9005.0511      1126.1004      13.986826      15782.705     -10379.393     -704.32727      114134.46      48.507132      48.507132      48.507132      1.0740397      172.06777     -1955.2052     -89.225903    
     14000   14000          751.34879     -2358.1367      47897.332      51795.885      19527.317      32268.568      8273.876       8518.701       9119.2387      1080.8979     -135.4943       15785.929     -10374.581     -709.1413       113359.65      48.397118      48.397118      48.397118      1.0813807     -3812.836      -1090.9244     -2170.6498    
     14500   14500          757.67445      190.75729      52175.517      51862.657      19691.719      32170.938      8277.5402      8504.2483      8920.9784      1091.3273     -44.143378      15803.55      -10382.563     -714.8228       112458.66      48.268555      48.268555      48.268555      1.0900445      1353.142      -1491.2298      710.35965    
     15000   15000          755.88734      788.44817      53602.145      52298.168      19645.272      32652.896      8413.4618      8623.156       8968.3373      1090.418       130.96483      15802.169     -10375.611     -708.87606      113402.07      48.403154      48.403154      48.403154      1.0809762      1248.8119     -269.36969      1385.9023    
     15500   15500          749.56186     -644.13216      51001.97       52070.016      19480.875      32589.141      8365.5838      8725.5083      8955.4021      1057.5748      60.09329       15807.097     -10382.118     -707.05335      113694.41      48.444711      48.444711      48.444711      1.0781967     -2409.8528      14.790356      462.66594    
     16000   16000          745.99458     -921.54552      50124.505      51655.925      19388.163      32267.762      8190.1151      8675.6037      8903.8645      1046.0247      16.330636      15809.278     -10373.454     -705.48825      113946.64      48.480509      48.480509      48.480509      1.0758101      1196.8819     -2498.9193     -1462.5991    
     16500   16500          747.24768     -881.71475      50269.981      51742.163      19420.73       32321.433      8339.4927      8608.4696      8760.115       1060.5811      140.74124      15790.72      -10378.687     -702.15624      114487.36      48.557074      48.557074      48.557074      1.0707291     -635.13305     -372.65987     -1637.3513    
     17000   17000          744.76972     -520.82072      50946.47       51815.717      19356.329      32459.388      8435.9841      8563.926       8816.0977      1099.8879      127.40424      15788.991     -10372.902     -702.44453      114440.37      48.550431      48.550431      48.550431      1.0711687      71.946938      233.626       -1868.0351    
     17500   17500          751.96233      807.24569      53529.47       52171.414      19543.262      32628.151      8383.7279      8746.604       8821.1946      1077.0142      179.59396      15793.849     -10373.833     -696.8754       115354.93      48.679419      48.679419      48.679419      1.0626762      1845.6436      666.32728     -90.2338      
     18000   18000          753.84899      424.95091      52933.403      52221.876      19592.296      32629.58       8384.0354      8644.4093      8962.5489      1120.5185      116.57283      15771.789     -10370.294     -700.18786      114809.21      48.602533      48.602533      48.602533      1.0677275      1677.5055     -15.787588     -386.86518    
     18500   18500          749.22188     -1257.9579      49817.739      51923.695      19472.039      32451.656      8283.417       8785.08        8878.8845      1040.8504      25.196125      15813.398     -10375.17      -700.2998       114790.86      48.599944      48.599944      48.599944      1.0678981     -1943.6801     -475.8966      -1354.2968    
     19000   19000          743.45418     -1180.9472      49961.388      51924.355      19322.138      32602.217      8376.8281      8548.3513      9150.0412      1051.8693      57.688864      15792.882     -10375.444     -705.31738      113974.24      48.484424      48.484424      48.484424      1.0755495      629.80464     -734.42903     -3438.2171    
     19500   19500          753.6543      -1726.504       49264.139      52128.643      19587.236      32541.407      8234.6054      8737.2487      9077.0987      1057.6087      39.849063      15772.825     -10377.828     -706.61884      113764.32      48.454639      48.454639      48.454639      1.0775341     -1239.9356     -1198.1126     -2741.4636    
     20000   20000          761.86031      349.78222      52854.969      52272.201      19800.508      32471.693      8267.0899      8505.171       9069.9431      1074.1649      121.90308      15806.46      -10373.039     -703.66956      114241.14      48.52224       48.52224       48.52224       1.0730368      248.10453      389.42006      411.82206    
     20500   20500          742.64652     -786.18668      50755.043      52073.921      19301.147      32772.773      8153.638       8871.1496      9231.3189      1072.8536      18.223352      15800.312     -10374.722     -698.85721      115027.81      48.633361      48.633361      48.633361      1.0656983     -1106.3501      113.85511     -1366.0651    
     21000   21000          745.1249       439.60015      52641.565      51911.987      19365.56       32546.428      8362.9178      8599.9083      8946.5014      1088.2412      144.68245      15780.824     -10376.648     -706.4045       113798.84      48.459539      48.459539      48.459539      1.0772073      651.48691     -794.91606      1462.2296    
     21500   21500          754.02109      502.28575      52896.035      52061.052      19596.769      32464.284      8335.6372      8659.3896      8926.2091      1087.1813      36.125389      15795.088     -10375.347     -705.24561      113985.84      48.486068      48.486068      48.486068      1.0754401     -254.33032      381.82129      1379.3663    
     22000   22000          761.8608       1570.3283      55152.332      52536.954      19800.521      32736.434      8453.7443      8516.6655      9012.8918      1087.6782      248.4923       15786.786     -10369.824     -703.91999      114200.5       48.516485      48.516485      48.516485      1.0734186      2156.5947      1835.7699      718.62039    
     22500   22500          746.30891     -1572.6455      49238.454      51872.032      19396.332      32475.7        8209.9296      8780.7269      8948.3745      1099.5728      45.017617      15763.466     -10371.387     -700.08688      114825.77      48.60487       48.60487       48.60487       1.0675735     -2253.4048     -1703.1105     -761.4212     
     23000   23000          751.21043     -2355.906       48019.262      51926.786      19523.721      32403.066      8297.7892      8570.0996      9074.0038      1082.9467     -41.343862      15794.574     -10375.004     -706.84373      113728.13      48.449499      48.449499      48.449499      1.0778771     -3735.9709      542.80488     -3874.5521    
     23500   23500          752.04013     -1460.1671      49876.278      52298.333      19545.284      32753.049      8317.0235      8828.6029      9060.8314      1097.679       38.032477      15788.703     -10377.823     -706.78221      113738.03      48.450905      48.450905      48.450905      1.0777833     -940.75511     -1954.0331     -1485.7131    
     24000   24000          751.37562     -1643.4831      49609.849      52333.905      19528.014      32805.89       8378.2244      8769.0601      9082.3433      1089.683       82.892381      15778.263     -10374.576     -707.3209       113651.4       48.438602      48.438602      48.438602      1.0786047     -1838.32       -831.53417     -2260.5951    
     24500   24500          749.08584      1216.0172      54238.936      52226.249      19468.503      32757.745      8476.7178      8930.667       8731.3807      1120.7299      84.826257      15787.435     -10374.012     -708.32195      113490.78      48.415772      48.415772      48.415772      1.0801312      1153.1806      2661.3192     -166.44812    
     25000   25000          753.75416     -94.577529      52101.026      52258.129      19589.831      32668.298      8336.1839      8802.3146      9012.6857      1066.7269      40.094654      15781.142     -10370.849     -705.77928      113899.65      48.473844      48.473844      48.473844      1.0762539      655.49202     -193.89119     -745.33342    
     25500   25500          751.19563     -276.03008      51507.13       51969.544      19523.336      32446.208      8453.2477      8718.8964      8701.1713      1037.6269      120.3887       15787.468     -10372.591     -699.83075      114867.79      48.610799      48.610799      48.610799      1.0671829      611.22858     -1437.4004     -1.9183951    
     26000   26000          745.7958       421.55212      52576.573      51876.901      19382.996      32493.904      8392.1668      8686.9894      8940.3769      1079.0917     -0.20442771     15779.047     -10383.563     -706.35654      113806.57      48.460636      48.460636      48.460636      1.0771342      2384.4898      885.27479     -2005.1083    
     26500   26500          750.776        28.282781      52192.684      52145.591      19512.43       32633.161      8444.9956      8818.4332      8783.0471      1084.2609      72.520446      15803.202     -10373.298     -704.10357      114170.72      48.512268      48.512268      48.512268      1.0736986      515.35607     -1355.396       924.8883     
     27000   27000          758.83553     -227.16167      52056.213      52435.319      19721.895      32713.424      8504.838       8639.0326      8969.3216      1081.6576      77.63562       15808.329     -10367.391     -702.49216      114432.61      48.549333      48.549333      48.549333      1.0712413     -949.61245     -1825.0881      2093.2156    
     27500   27500          754.87972     -258.45463      51794.185      52226.714      19619.084      32607.629      8380.6371      8742.6491      8876.1319      1065.7632      135.74586      15776.818     -10370.116     -700.54561      114750.58      48.594258      48.594258      48.594258      1.068273       1973.314      -1097.4737     -1651.2041    
     28000   28000          746.56491      633.314        52966.151      51902.612      19402.985      32499.627      8324.1948      8691.965       8898.5171      1062.0285      113.97584      15788.318     -10379.373     -698.12442      115148.55      48.650371      48.650371      48.650371      1.0645809      1131.8836      86.774339      681.28403    
     28500   28500          752.48771      98.018612      51832.832      51669.268      19556.917      32112.351      8189.1896      8644.9654      8751.2124      1060.1333      42.420906      15805.692     -10381.262     -702.5654       114420.68      48.547646      48.547646      48.547646      1.071353      -1180.5344      565.9505       908.63977    
     29000   29000          738.49513     -754.72439      50249.496      51515.81       19193.254      32322.556      8197.0809      8703.2218      8840.3464      1076.2009      103.27165      15778.712     -10376.278     -698.73745      115047.52      48.636139      48.636139      48.636139      1.0655157     -1996.1467     -1955.5059      1687.4794    
     29500   29500          755.36942      834.02585      53641.691      52238.324      19631.812      32606.512      8457.4359      8693.4274      8842.743       1056.3175      107.22137      15817.128     -10367.761     -696.7476       115376.09      48.682395      48.682395      48.682395      1.0624813      1426.0692      99.061949      976.9464     
     30000   30000          751.56145      87.984958      52520.548      52371.231      19532.844      32838.388      8349.5183      8807.2821      8957.1947      1085.1725      240.85759      15773.179     -10374.816     -690.82337      116365.51      48.82116       48.82116       48.82116       1.0534474     -702.24082     -658.6867       1624.8824    
     30500   30500          749.77484      269.76171      52304.096      51846.002      19486.41       32359.592      8265.8915      8603.1735      8881.281       1077.5086      146.42707      15761.579     -10376.269     -690.38888      116438.74      48.831399      48.831399      48.831399      1.0527848      147.79309      1040.4501     -378.95808    
     31000   31000          743.0672       1268.9861      53812.243      51668.2        19312.081      32356.12       8354.1385      8574.1643      8709.1296      1063.789       247.53392      15781.815     -10374.451     -693.89009      115851.22      48.74913       48.74913       48.74913       1.0581239      683.73636      2494.1527      629.06918    
     31500   31500          750.22784     -564.69933      50977.365      51936.439      19498.184      32438.255      8280.2547      8577.5787      8900.7203      1063.284       196.43997      15791.432     -10371.455     -690.29117      116455.22      48.833703      48.833703      48.833703      1.0526358     -1181.1486     -612.26807      99.318686    
     32000   32000          750.17735     -676.41238      50943.125      52087.793      19496.871      32590.922      8209.2523      8581.2449      9218.9254      1099.3754      100.01599      15761.342     -10379.235     -692.78601      116035.85      48.775013      48.775013      48.775013      1.0564403     -707.80547     -184.28366     -1137.148     
     32500   32500          755.05607     -2112.9678      48526.405      52092.934      19623.668      32469.266      8252.2579      8656.647       8970.7889      1064.2998      144.25215      15762.648     -10381.627     -694.56714      115738.29      48.733285      48.733285      48.733285      1.0591563     -1169.3356     -2279.2743     -2890.2935    
     33000   33000          750.28381     -1399.9447      49768.565      52114.508      19499.638      32614.87       8571.9405      8597.1764      8886.8863      1059.9071      77.837902      15791.814     -10370.692     -699.61727      114902.84      48.615743      48.615743      48.615743      1.0668574     -1970.6691     -990.76371     -1238.4014    
     33500   33500          753.65211     -485.07716      51311.223      52122.931      19587.179      32535.752      8225.614       8849.159       8977.7471      1037.8339      4.584196       15803.219     -10362.406     -700.61238      114739.64      48.592715      48.592715      48.592715      1.0683748      221.03922      347.38888     -2023.6596    
     34000   34000          741.71153     -485.49771      51110.318      51935.247      19276.847      32658.399      8350.491       8678.1157      8955.9701      1070.6142      195.69116      15783.236     -10375.718     -689.98237      116507.34      48.840987      48.840987      48.840987      1.0521649     -61.430444      154.37727     -1549.44      
     34500   34500          749.90726      897.92189      53230.293      51718.714      19489.852      32228.862      8116.0351      8672.0323      8735.9267      1055.6066      245.70466      15777.929     -10374.373     -696.42565      115429.43      48.689896      48.689896      48.689896      1.0619904      1701.0003      135.90595      856.85943    
     35000   35000          747.2082       217.37013      52344.012      51976.546      19419.704      32556.842      8371.739       8793.4417      8818.7022      1104.2187      61.178042      15777.194     -10369.632     -693.50519      115915.52      48.758147      48.758147      48.758147      1.0575369      212.92607      123.2242       315.96011    
     35500   35500          749.55436     -428.69187      51575.087      52303.375      19480.68       32822.695      8477.4507      8828.0585      8893.229       1079.2906      134.41708      15781.854     -10371.605     -690.09599      116488.16      48.838307      48.838307      48.838307      1.0523382     -1207.5794      391.60276     -470.09897    
     36000   36000          743.1753      -497.60291      51038.123      51873.425      19314.89       32558.535      8380.9389      8639.1145      8893.2639      1074.9727      151.52617      15784.371     -10365.652     -698.4035       115102.54      48.64389       48.64389       48.64389       1.0650064      1683.5284     -107.45243     -3068.8848    
     36500   36500          746.32252     -1976.6271      48730.835      52075.588      19396.686      32678.902      8342.6865      8761.9393      8994.4135      1043.1522      118.00132      15782.969     -10364.259     -692.83206      116028.14      48.773932      48.773932      48.773932      1.0565105     -1950.376      -1659.3431     -2320.1621    
     37000   37000          741.32183      499.54101      52822.099      51978.165      19266.719      32711.446      8372.5386      8841.1419      8834.2696      1066.0907      166.29212      15803.672     -10372.559     -693.95314      115840.69      48.747654      48.747654      48.747654      1.05822        943.12598     -1395.0475      1950.5446    
     37500   37500          752.95706      774.97364      53544.392      52242.684      19569.115      32673.569      8426.4209      8657.7774      9015.8559      1069.0219      78.516689      15799.665     -10373.689     -697.97591      115173.05      48.653821      48.653821      48.653821      1.0643544     -111.04792      1810.4891      625.47976    
     38000   38000          747.12899      1179.8042      53867.915      51898.491      19417.646      32480.846      8362.333       8728.6686      8774.3887      1082.6572      100.34986      15809.6       -10377.152     -702.32468      114459.9       48.553192      48.553192      48.553192      1.0709859     -436.37169      192.51405      3783.2703    
     38500   38500          743.2329       373.35253      52614.009      51990.158      19316.387      32673.771      8345.4865      8704.1646      8988.1098      1070.6949      146.44574      15794.227     -10375.358     -701.62561      114573.94      48.569312      48.569312      48.569312      1.0699199      227.92994      759.46419      132.66345    
     39000   39000          753.71887     -263.59054      51760.726      52205.764      19588.914      32616.849      8230.7409      8704.8831      8947.9465      1105.6319      215.6444       15790.071     -10378.068     -694.38429      115768.77      48.737562      48.737562      48.737562      1.0588775     -627.80421      292.18168     -455.1491     
     39500   39500          758.21421      2.784915       52455.847      52451.173      19705.747      32745.426      8462.6348      8745.6378      8914.5844      1067.1882      131.12625      15793.691     -10369.437     -698.47896      115090.1       48.642138      48.642138      48.642138      1.0651215      407.34126     -1073.0583      674.07182    
     40000   40000          750.40602      986.42336      53949.365      52297.061      19502.814      32794.246      8442.042       8659.221       8916.7664      1044.5066      298.82872      15803.207     -10370.326     -699.90707      114855.27      48.609032      48.609032      48.609032      1.0672993      726.09089      637.42556      1595.7536    
     40500   40500          744.52196     -1127.4946      50098.5        52020.66       19349.89       32670.77       8405.212       8604.8674      8870.5575      1085.0517      264.54312      15805.536     -10364.997     -687.68901      116895.88      48.89522       48.89522       48.89522       1.0486678     -2622.1207     -986.14088      225.77774    
     41000   41000          747.05434     -752.88788      50626.406      51901.302      19415.705      32485.597      8378.8282      8519.2848      8918.044       1071.1753      170.24998      15792.622     -10364.608     -692.34515      116109.74      48.785364      48.785364      48.785364      1.055768      -1777.9995     -483.77066      3.1065133    
     41500   41500          750.56573      603.38068      53268.892      52245.176      19506.965      32738.211      8369.671       8695.0225      8864.9722      1072.1777      310.80111      15790.742     -10365.176     -691.00142      116335.53      48.816966      48.816966      48.816966      1.0537189     -1565.4277      1252.6335      2122.9362    
     42000   42000          753.24342      605.93033      53373.043      52353.842      19576.558      32777.284      8192.6447      8661.5801      9205.2583      1090.7479      185.62775      15816.717     -10375.291     -696.99528      115335.09      48.676628      48.676628      48.676628      1.062859       1098.5172      1775.7988     -1056.525     
     42500   42500          750.93221      1459.021       54845.401      52415.66       19516.49       32899.17       8496.4661      8757.9167      8893.5625      1080.8508      239.33347      15795.176     -10364.135     -703.9937       114188.54      48.514792      48.514792      48.514792      1.073531       1586.5835      1123.3548      1667.1247    
     43000   43000          756.86958      1691.6958      55154.767      52296.091      19670.8        32625.291      8460.9521      8524.5332      8771.5177      1109.6054      340.66566      15790.57      -10372.553     -693.78437      115868.87      48.751606      48.751606      48.751606      1.0579627      331.89432      608.85524      4134.3378    
     43500   43500          751.67976      1127.5943      54027.525      52114.65       19535.918      32578.732      8479.7699      8565.4071      8808.9094      1059.217       249.58289      15787.616     -10371.771     -691.08829      116320.9       48.814921      48.814921      48.814921      1.0538514      930.76023      2719.5157     -267.49291    
     44000   44000          759.95941      119.63455      52571.994      52369.774      19751.104      32618.67       8351.735       8526.2216      8910.5419      1093.5315      312.25811      15795.208     -10370.826     -693.58624      115901.97      48.756248      48.756248      48.756248      1.0576605      6.9967083     -153.84069      505.74764    
     44500   44500          753.03783     -1116.9133      50290.599      52175.879      19571.214      32604.665      8458.634       8789.7536      8702.8566      1036.2787      217.29579      15783.315     -10383.468     -694.56166      115739.2       48.733413      48.733413      48.733413      1.059148      -1780.6457     -568.97037     -1001.124     
     45000   45000          748.63944     -1488.994       49494.576      51989.859      19456.902      32532.958      8334.937       8532.8189      9083.1345      1057.0647      116.07334      15786.711     -10377.781     -699.58474      114908.19      48.616496      48.616496      48.616496      1.0668077     -825.22238     -1750.9329     -1890.8266    
     45500   45500          743.05913     -534.90319      50471.814      51360.328      19311.871      32048.457      8113.5286      8712.1016      8695.8362      1033.736       69.213903      15793.754     -10369.713     -705.79372      113897.32      48.473514      48.473514      48.473514      1.0762759     -71.042715     -1422.3126     -111.35424    
     46000   46000          754.49026     -3734.7405      45842.692      52115.773      19608.963      32506.811      8252.9217      8602.6427      9084.5982      1041.9035      119.40555      15776.419     -10371.08      -697.98596      115171.39      48.653588      48.653588      48.653588      1.0643697     -3245.9839     -5435.0458     -2523.1918    
     46500   46500          756.63624     -356.38679      51623.668      52228.612      19664.736      32563.876      8307.2233      8626.6852      9012.5199      1059.6476      149.7688       15783.176     -10375.144     -690.67436      116390.61      48.82467       48.82467       48.82467       1.0532202     -574.95643     -937.7233       443.51936    
     47000   47000          754.71285     -2826.6206      47312.81       52093.479      19614.748      32478.731      8332.6616      8732.1528      8930.9283      1044.3157      48.814283      15769.202     -10379.344     -693.18006      115969.89      48.765769      48.765769      48.765769      1.0570411     -3488.7408     -2268.2444     -2722.8767    
     47500   47500          749.52163     -1149.0062      49802.132      51745.854      19479.83       32266.025      8151.1165      8531.0321      8957.3026      1039.4745      164.16607      15795.043     -10372.11      -693.03539      115994.1       48.769162      48.769162      48.769162      1.0568205     -1021.6349     -113.3645      -2312.0191    
     48000   48000          748.63043     -833.88323      50591.007      51998.349      19456.667      32541.681      8300.188       8824.8252      8762.8834      1075.6938      171.70792      15781.527     -10375.144     -694.66104      115722.64      48.731089      48.731089      48.731089      1.0592995      838.28657     -949.43044     -2390.5058    
     48500   48500          755.24574     -217.69997      51848.27       52214.778      19628.597      32586.181      8196.2735      8818.1189      8967.4698      1124.0991      53.509206      15793.925     -10367.214     -696.37303      115438.15      48.691122      48.691122      48.691122      1.0619102     -3232.0327      1261.9853      1316.9475    
     49000   49000          749.05773      2368.8977      56114.654      52153.602      19467.773      32685.829      8445.3802      8628.8553      8905.3926      1132.3614      155.52528      15790.368     -10372.054     -701.13706      114653.78      48.580591      48.580591      48.580591      1.0691749      3963.9062      1754.9426      1387.8444    
     49500   49500          760.4937       818.35393      53596.285      52218.6        19764.99       32453.61       8380.6704      8698.0022      8619.4141      1084.3661      257.33247      15785.437     -10371.612     -696.39958      115433.75      48.690503      48.690503      48.690503      1.0619506      2634.7403     -618.33358      438.65506    
     50000   50000          754.67293      1140.6243      53904.455      51973.939      19613.71       32360.229      8294.4146      8657.0861      8703.809       1053.8767      225.26126      15793.298     -10367.517     -692.68608      116052.59      48.777359      48.777359      48.777359      1.0562879      1993.9189      1778.6743     -350.72046    
     50500   50500          755.66844      385.33394      52949.158      52295.79       19639.583      32656.207      8261.7756      8663.3945      8939.3402      1097.1709      263.27433      15799.264     -10368.013     -691.42765      116263.81      48.806933      48.806933      48.806933      1.0543689     -78.111671      643.00581      591.1077     
     51000   51000          749.8779       888.0458       53552.725      52040.022      19489.089      32550.933      8338.5702      8599.6626      8927.3909      1083.8034      186.22626      15783.711     -10368.432     -688.25413      116799.9       48.881834      48.881834      48.881834      1.0495295     -1320.4938      3223.8045      760.82671    
     51500   51500          747.62625      42.814813      52238.646      52166.497      19430.569      32735.928      8436.9624      8678.8019      8998.7753      1060.0083      133.22849      15799.713     -10371.561     -695.71326      115547.62      48.706509      48.706509      48.706509      1.0609041     -641.46677     -80.403563      850.31477    
     52000   52000          749.24449     -1092.3641      50465.419      52300.11       19472.627      32827.484      8319.4652      8901.2336      8896.3653      1099.5213      189.08074      15794.29      -10372.473     -698.02596      115164.79      48.652658      48.652658      48.652658      1.0644307     -2237.7572     -1122.6087      83.273503    
     52500   52500          743.01882     -1066.1919      49982.4        51782.416      19310.824      32471.593      8260.4961      8509.1441      9104.8453      1077.1346      111.03503      15781.03      -10372.092     -694.42634      115761.76      48.736578      48.736578      48.736578      1.0589416     -292.65556     -2265.7233     -640.19675    
     53000   53000          739.8108      -432.27746      50999.378      51725.763      19227.448      32498.315      8242.4256      8678.578       8897.281       1051.4728      208.43977      15790.199     -10370.081     -697.69114      115220.06      48.66044       48.66044       48.66044       1.0639202     -2729.3665      953.4802       479.05388    
     53500   53500          752.58032      1528.6403      54585.862      51999.583      19559.324      32440.259      8275.7664      8563.5261      8821.3766      1128.2222      236.99873      15791.838     -10377.469     -692.94217      116009.7       48.771349      48.771349      48.771349      1.0566784      3391.7682     -85.159338      1279.312     
     54000   54000          750.26306     -397.21659      51659.845      52337.477      19499.099      32838.379      8291.9081      8850.1873      9018.5854      1122.1298      115.35839      15806.402     -10366.193     -687.22689      116974.49      48.906177      48.906177      48.906177      1.0479631     -436.34751     -168.97296     -586.3293     
     54500   54500          749.36213     -306.36379      51612.09       52131.436      19475.684      32655.751      8394.5522      8685.0532      8878.9856      1055.7199      230.9556       15783.283     -10372.798     -691.58864      116236.75      48.803146      48.803146      48.803146      1.0546144     -1275.4        -116.97472      473.28336    
     55000   55000          746.96717     -871.8089       50348.34       51829.565      19413.44       32416.125      8188.1541      8666.7946      8944.5943      1086.3156      103.68707      15794.96      -10368.381     -690.02911      116499.45      48.839884      48.839884      48.839884      1.0522362     -604.96629     -617.0439      -1393.4165    
     55500   55500          740.91557     -1232.8622      49876.672      51969.365      19256.161      32713.205      8138.3354      8729.9442      9122.1992      1093.6974      215.44089      15786.112     -10372.525     -690.67879      116389.87      48.824566      48.824566      48.824566      1.0532269      445.12757     -3067.3178     -1076.3964    
     56000   56000          745.08839      223.25718      52396.581      52017.223      19364.611      32652.613      8080.1567      8877.2511      8958.7309      1056.8403      271.24164      15785.195     -10376.803     -689.96014      116511.1       48.841512      48.841512      48.841512      1.052131       199.52925     -191.91445      662.15675    
     56500   56500          750.23645      1419.5287      54592.147      52187.801      19498.407      32689.393      8338.7508      8697.6596      8906.6539      1068.2084      265.56332      15788.995     -10376.438     -692.17247      116138.7       48.78942       48.78942       48.78942       1.0555047      2159.6941      1272.9587      825.93344    
     57000   57000          753.61907      1297.9646      54510.631      52317.003      19586.32       32730.682      8400.7226      8707.186       8896.0469      1078.5791      214.48024      15806.267     -10372.6       -693.69265      115884.19      48.753755      48.753755      48.753755      1.0578228      1544.7008      1568.1179      781.07517    
     57500   57500          751.39709     -939.56581      50567.391      52160.386      19528.572      32631.814      8412.2037      8688.743       8838.0008      1072.9259      221.73182      15773.682     -10375.474     -691.48087      116254.86      48.805681      48.805681      48.805681      1.05445       -1319.0584     -575.9547      -923.68432    
     58000   58000          748.63477      888.75425      53478.527      51974.476      19456.78       32517.695      8193.0236      8599.1962      8935.4253      1065.6204      304.67701      15793.433     -10373.68      -692.76531      116039.32      48.775499      48.775499      48.775499      1.0564087      2790.5767      461.47201     -585.78593    
     58500   58500          739.52448     -284.96696      51447.98       51933.041      19220.007      32713.034      8485.1139      8609.4974      8896.8168      1110.405       208.34762      15778.625     -10375.772     -688.75596      116714.8       48.869959      48.869959      48.869959      1.0502948      1706.4147     -2948.0902      386.77467    
     59000   59000          736.06308     -1187.9855      49655.796      51680.559      19130.046      32550.513      8293.9349      8660.0734      8928.703       1068.9284      161.13832      15812.086     -10374.35      -687.86632      116865.75      48.891018      48.891018      48.891018      1.0489381     -596.85458     -1630.2013     -1336.9007    
     59500   59500          744.10939     -1915.158       48966.331      52199.564      19339.167      32860.396      8566.1307      8568.7921      9020.3492      1079.7877      212.68748      15784.188     -10371.539     -694.44029      115759.43      48.736252      48.736252      48.736252      1.0589629     -2636.6126     -1508.3259     -1600.5355    
     60000   60000          748.03047      1318.6824      54426.999      52192.015      19441.075      32750.941      8293.9736      8761.5004      8988.7112      1099.3294      196.93648      15780.645     -10370.156     -691.72441      116213.93      48.799952      48.799952      48.799952      1.0548214     -702.97979      3836.6895      822.3376     
     60500   60500          748.7852       711.49774      53391.745      52185.753      19460.69       32725.063      8392.5255      8835.0816      8843.6201      1079.3554      144.22204      15796.248     -10365.989     -691.66603      116223.74      48.801325      48.801325      48.801325      1.0547324      1721.5214     -158.50602      571.47787    
     61000   61000          753.60909      592.40891      52588.386      51584.802      19586.061      31998.741      8157.0996      8599.6272      8633.1997      1048.8405      148.09991      15780.941     -10369.067     -692.04608      116159.91      48.79239       48.79239       48.79239       1.0553119     -704.94529     -646.91516      3129.0872    
     61500   61500          740.64646      1959.7568      55231.518      51917.945      19249.167      32668.779      8360.6673      8840.1612      8797.7717      1063.4827      160.71197      15818.337     -10372.353     -693.3824       115936.04      48.761025      48.761025      48.761025      1.0573497      2083.8461      2442.2532      1353.1713    
     62000   62000          750.70196      855.22135      53505.626      52071.59       19510.506      32561.084      8421.8253      8730.0729      8873.2038      1055.0132      64.625829      15793.142     -10376.799     -699.17474      114975.57      48.625997      48.625997      48.625997      1.0661825      1806.7552      1071.6261     -312.71724    
     62500   62500          749.27739     -1129.7641      50438.217      52325.552      19473.482      32852.07       8433.8209      8687.332       9194.5168      1102.4         15.240693      15788.432     -10369.673     -701.78826      114547.39      48.56556       48.56556       48.56556       1.0701679     -965.9109      -2045.6353     -377.74601    
     63000   63000          755.28354     -1481.7363      49863.419      52361.649      19629.58       32732.07       8298.6659      8765.8454      9055.8007      1101.9659      95.404129      15786.334     -10371.946     -695.35338      115607.42      48.71491       48.71491       48.71491       1.0603553     -1015.9851     -2734.7445     -694.47923    
     63500   63500          758.4834       12.840791      52538.041      52516.419      19712.743      32803.676      8493.6544      8675.471       8901.8389      1068.507       237.58662      15793.01      -10366.392     -696.21833      115463.8       48.694728      48.694728      48.694728      1.0616743      252.7748      -326.00663      111.7542     
     64000   64000          749.80116     -599.30152      51017.592      52027.498      19487.094      32540.404      8287.0656      8646.0102      8924.7134      1128.7577      145.23287      15784.23      -10375.606     -695.71519      115547.3       48.706464      48.706464      48.706464      1.060907      -609.7335      -1924.3086      736.13758    
     64500   64500          744.06424     -1061.243       50104.188      51896.629      19337.994      32558.635      8285.6124      8633.5585      9027.1076      1079.0027      106.42677      15796.854     -10369.927     -694.12436      115812.12      48.743645      48.743645      48.743645      1.0584811     -1708.8205     -1893.8102      418.90156    
     65000   65000          745.71803     -904.28916      50421.301      51947.32       19380.975      32566.345      8274.68        8711.9345      8959.6287      1074.9399      150.36046      15766.769     -10371.967     -694.72777      115711.53      48.729529      48.729529      48.729529      1.0594013     -1642.1209      112.09439     -1182.841     
     65500   65500          753.48023      1256.3688      54333.751      52213.273      19582.712      32630.561      8236.3982      8690.3875      8878.6241      1064.6266      337.05562      15797.235     -10373.766     -694.62524      115728.61      48.731926      48.731926      48.731926      1.0592449      3397.1244     -807.80204      1179.7839    
     66000   66000          746.49748     -29.023819      52178.108      52227.327      19401.233      32826.094      8409.1771      8828.8558      8881.5183      1119.5434      162.37634      15791.456     -10366.833     -691.3482       116277.17      48.808803      48.808803      48.808803      1.0542477     -141.50955     -352.19108      406.62917    
     66500   66500          754.706        744.90788      53259.451      52007.505      19614.57       32392.936      8295.1214      8633.5298      8828.865       1081.9663      109.19485      15808.465     -10364.206     -697.56454      115240.97      48.663383      48.663383      48.663383      1.0637271      769.27405      692.35716      773.09243    
     67000   67000          743.24085     -733.65555      50945.959      52188.476      19316.594      32871.882      8324.0186      8737.9829      9099.3729      1075.5485      224.05665      15779.479     -10368.576     -692.24026      116127.33      48.787828      48.787828      48.787828      1.055608      -790.30851     -1063.2539     -347.40426    
     67500   67500          742.10407      269.09519      52654.89       52196.668      19287.049      32909.619      8304.3608      8925.6839      8904.654       1093.9918      237.22567      15804.909     -10361.207     -688.48912      116760.03      48.876272      48.876272      48.876272      1.0498879      1876.9181     -980.52311     -89.10938     
     68000   68000          758.47848      1441.5152      54894.746      52469.131      19712.615      32756.516      8319.9341      8714.8925      8966.5872      1083.575       257.77228      15776.219     -10362.464     -696.73027      115378.96      48.682799      48.682799      48.682799      1.0624549      2008.607       1648.1262      667.81242    
     68500   68500          756.5815      -38.156217      52393.038      52457.775      19663.313      32794.462      8380.679       8753.0206      8849.9733      1105.2044      264.53406      15807.797     -10366.746     -690.99942      116335.86      48.817013      48.817013      48.817013      1.0537159     -885.39928      448.92201      322.00862    
     69000   69000          750.32337     -933.4462       50774.154      52354.6        19500.666      32853.933      8299.7654      8758.9336      9081.6193      1097.1969      168.44974      15810.521     -10362.553     -692.43177      116095.21      48.783329      48.783329      48.783329      1.0559001     -137.99079     -415.23775     -2247.1101    
     69500   69500          747.21189      358.99686      52687.931      52084.746      19419.8        32664.945      8325.8398      8634.6768      9037.767       1137.4166      105.01115      15796.273     -10372.039     -697.76152      115208.43      48.658803      48.658803      48.658803      1.0640275      358.10546      1156.5092     -437.62408    
     70000   70000          746.49452     -708.84719      50752.949      51945.293      19401.156      32544.137      8338.5537      8705.6825      8884.2349      1080.6176      102.43026      15803.317     -10370.699     -696.97656      115338.19      48.677064      48.677064      48.677064      1.0628305     -1139.5235     -258.56787     -728.45018    
     70500   70500          747.51557      1609.1826      54430.276      51722.138      19427.693      32294.446      8204.3163      8586.3549      8889.5652      1058.8782      121.52229      15802.234     -10368.425     -696.6294       115395.66      48.685148      48.685148      48.685148      1.0623011      2552.2717      1566.4396      708.83645    
     71000   71000          743.94488      2205.0427      55346.179      51625.492      19334.891      32290.601      8231.2657      8562.9665      8768.7302      1078.9363      229.80804      15787.065     -10368.172     -694.80204      115699.16      48.727792      48.727792      48.727792      1.0595145      2762.11        1688.5808      2164.4372    
     71500   71500          751.40164      179.29654      52623.01       52318.788      19528.69       32790.098      8436.3674      8600.7028      9029.1725      1093.8129      188.26341      15811.62      -10369.841     -690.95402      116343.51      48.818082      48.818082      48.818082      1.0536466      1814.5052      469.58907     -1746.2047    
     72000   72000          760.21595     -1374.8125      50169.552      52504.361      19757.771      32746.589      8256.8386      8544.6494      9342.558       1037.552       122.30312      15813.009     -10370.32      -690.3342       116447.96      48.832688      48.832688      48.832688      1.0527015     -2008.0345     -1752.9975     -363.4056     
     72500   72500          742.08767      572.82163      52869.495      51907.964      19286.623      32621.341      8344.6895      8567.4715      9054.9149      1102.8609      112.81316      15807.515     -10368.924     -698.43089      115098.02      48.643254      48.643254      48.643254      1.0650482      1126.0414      1807.0636     -1214.64      
     73000   73000          748.08906     -23.416049      51675.157      51714.11       19442.597      32271.513      8181.459       8605.3193      8951.6805      1060.952       28.287714      15816.569     -10372.754     -704.754        114065.35      48.497339      48.497339      48.497339      1.0746904     -670.27748      1222.2235     -622.19421    
     73500   73500          756.30798      565.60869      53085.129      52139.088      19656.205      32482.883      8443.593       8547.7151      8895.8665      1078.8505      103.02717      15789.18      -10375.349     -700.92771      114688.02      48.585427      48.585427      48.585427      1.0688557     -932.41696      197.68676      2431.5563    
     74000   74000          756.60036      1165.6296      54231.725      52264.235      19663.803      32600.432      8430.8665      8555.6003      8916.1058      1094.9987      181.18996      15798.067     -10376.397     -694.56865      115738.04      48.73325       48.73325       48.73325       1.0591586      2248.765      -449.60644      1697.7302    
     74500   74500          748.2619       1970.6617      55340.144      52021.498      19447.089      32574.409      8268.4037      8784.6028      8740.183       1055.1621      290.53424      15810.615     -10375.092     -696.17493      115471         48.69574       48.69574       48.69574       1.0616081      2001.7494      2087.0414      1823.1942    
     75000   75000          753.45843     -814.7569       50918.864      52295.857      19582.146      32713.712      8425.9144      8623.0327      9067.4698      1110.6684      61.679586      15802.732     -10377.785     -693.68669      115885.19      48.753894      48.753894      48.753894      1.0578137     -753.95544     -2566.7936      876.47837    
     75500   75500          755.19641     -1.8374665      52421.937      52425.038      19627.315      32797.723      8250.0427      8855.0155      8963.1611      1068.2437      233.44405      15805.66      -10377.845     -694.84505      115692         48.726787      48.726787      48.726787      1.0595801      356.71184      136.30381     -498.52805    
     76000   76000          759.84666      861.25159      53962.961      52523.003      19748.174      32774.83       8469.2689      8672.5821      8892.0321      1097.3279      209.07772      15798.855     -10364.314     -701.2091       114642         48.578927      48.578927      48.578927      1.0692848     -1179.705       793.51376      2969.946     
     76500   76500          750.64604      43.017166      52104.103      52032.368      19509.052      32523.315      8251.4235      8709.4493      8911.182       1093.8812      128.59238      15801.101     -10372.314     -703.03802      114343.76      48.536765      48.536765      48.536765      1.0720737      691.63589     -709.83483      147.25044    
     77000   77000          739.05174      214.35125      52237.709      51875.983      19207.72       32668.262      8326.1322      8626.7818      9024.4418      1129.5417      152.79277      15787.534     -10378.962     -694.72458      115712.06      48.729603      48.729603      48.729603      1.0593964     -787.73831      341.8749       1088.9172    
     77500   77500          745.9867       21.934052      51897.602      51860.636      19387.958      32472.678      8304.4359      8582.6578      9010.8626      1087.5391      74.948939      15789.468     -10377.235     -695.63722      115560.25      48.708284      48.708284      48.708284      1.0607881     -26.874136     -2007.0451      2099.7214    
     78000   78000          748.11045      670.64404      53268.865      52144.944      19443.153      32701.791      8328.8334      8809.1903      8886.3313      1095.6092      139.01552      15813.309     -10370.497     -699.55792      114912.59      48.617118      48.617118      48.617118      1.0667668     -675.05858      653.56616      2033.4245    
     78500   78500          743.33129      212.15342      52240.733      51882.587      19318.944      32563.643      8246.5804      8730.9019      8853.4737      1070.0193      234.09369      15796.273     -10367.7       -694.4758       115753.51      48.735421      48.735421      48.735421      1.059017       99.292011     -819.70406      1356.8723    
     79000   79000          749.29711      293.5409       52814.075      52317.859      19473.994      32843.864      8448.4123      8716.0101      8854.5439      1080.039       301.20608      15814.269     -10370.616     -693.52913      115911.52      48.757586      48.757586      48.757586      1.0575734     -940.04296      860.76759      959.89808    
     79500   79500          739.1508      -1677.0015      48781.534      51606.339      19210.295      32396.044      8087.6359      8650.0268      8941.4017      1060.3133      245.38116      15781.501     -10370.216     -696.00462      115499.25      48.699712      48.699712      48.699712      1.0613484     -1694.3824     -1273.6795     -2062.9425    
     80000   80000          752.48915      1078.5726      53587.044      51783.885      19556.954      32226.931      8370.2524      8523.002       8722.6147      1067.5205      148.35802      15780.422     -10385.238     -701.26569      114632.75      48.57762       48.57762       48.57762       1.069371       991.11436      769.62893      1474.9745    
     80500   80500          745.35404      405.65499      52517.944      51842.739      19371.515      32471.224      8484.4677      8648.5496      8791.3906      1069.0612      91.809681      15766.327     -10380.382     -704.34963      114130.84      48.506619      48.506619      48.506619      1.0740738      747.14695      87.112373      382.70565    
     81000   81000          752.60196     -157.72072      51817.987      52082.554      19559.886      32522.668      8479.0781      8524.2487      8865.5603      1092.716       167.82301      15773.594     -10380.353     -698.90851      115019.37      48.632171      48.632171      48.632171      1.0657765     -484.45982      1203.1166     -1191.8189    
     81500   81500          756.4302      -100.82753      52365.489      52534.462      19659.381      32875.081      8529.8624      8704.9407      8967.4873      1059.077       202.28061      15793.718     -10382.286     -699.56933      114910.72      48.616853      48.616853      48.616853      1.0667842     -944.47045      1743.8237     -1101.8359    
     82000   82000          749.45191      297.92716      52793.978      52297.518      19478.018      32819.501      8371.1771      8751.8711      9022.4131      1111.7076      134.47902      15800.055     -10372.203     -703.54647      114261.13      48.52507       48.52507       48.52507       1.072849       1168.6883     -1495.8654      1220.9585    
     82500   82500          743.51143      697.51016      53208.751      52037.038      19323.626      32713.412      8446.2362      8825.8495      8839.6454      1046.8215      135.05924      15793.793     -10373.992     -697.90552      115184.66      48.655457      48.655457      48.655457      1.0642471      536.64768      982.80415      573.07864    
     83000   83000          748.68678     -168.57328      51657.252      51940.62       19458.132      32482.488      8382.6867      8519.1801      9000.0065      1061.2554      145.28665      15756.759     -10382.687     -697.43908      115261.7       48.666301      48.666301      48.666301      1.0635358     -1656.3984      799.58613      351.09242    
     83500   83500          755.38451      372.89625      52669.7        52042.006      19632.204      32409.802      8180.0404      8520.1017      9056.4231      1110.4498      169.77173      15754.537     -10381.521     -696.47814      115420.73      48.688673      48.688673      48.688673      1.0620704      1550.8824     -221.09357     -211.10006    
     84000   84000          746.94881     -1472.0793      49692.515      52206.899      19412.963      32793.937      8298.6134      8657.5705      9158.7651      1118.5816      138.42839      15794.381     -10372.403     -686.38332      117118.25      48.926204      48.926204      48.926204      1.0466767     -2328.3266     -98.226898     -1989.6842    
     84500   84500          760.44173      1672.1989      55315.251      52496.67       19763.639      32733.031      8313.9289      8810.1555      8837.0443      1063.2659      274.96795      15807.254     -10373.586     -695.54405      115575.73      48.710459      48.710459      48.710459      1.060646       2044.0169      2113.8781      858.70169    
     85000   85000          753.58544     -1061.7449      50540.624      52327.745      19585.447      32742.299      8284.5018      8885.2846      9066.2819      1039.5864      67.998868      15779.472     -10380.826     -696.51967      115413.85      48.687705      48.687705      48.687705      1.0621338     -186.9543      -1310.783      -1687.4975    
     85500   85500          741.96198     -241.16683      51603.092      52008.791      19283.357      32725.434      8353.2914      8720.829       9014.673       1053.5414      182.56129      15769.277     -10368.738     -696.91709      115348.03      48.678448      48.678448      48.678448      1.0627398      566.4024      -110.85691     -1179.046     
     86000   86000          752.55096      51.580711      51953.974      51867.059      19558.561      32308.499      8146.2107      8692.4225      8953.0693      1051.2867      80.728746      15770.376     -10385.596     -695.76345      115539.29      48.705338      48.705338      48.705338      1.0609806     -2281.4454      743.25729      1692.9303    
     86500   86500          761.28924     -2113.1479      49216.374      52787.073      19785.666      33001.407      8344.3695      8796.1881      9269.3058      1091.4933      89.323808      15784.863     -10374.137     -693.81531      115863.71      48.750881      48.750881      48.750881      1.0580098     -45.809643     -2820.8258     -3472.8082    
     87000   87000          746.50459     -819.2637       50713.327      52090.813      19401.418      32689.396      8282.2827      8617.1752      9167.564       1070.6322      116.16582      15809.101     -10373.525     -697.27442      115288.92      48.670132      48.670132      48.670132      1.0632847     -1473.6932     -768.85174     -215.24621    
[...]
   5176000   5176000        249.00403      983.65172      26110.76       24657.842      6471.5358      18186.306      3637.8076      5603.638       4640.9124      382.52614     -1343.3528      15679.588     -10414.813     -793.72007      101280.06      46.613099      46.613099      46.613099      1.2103562      1364.2317      1592.8281     -6.1046223    
   5176500   5176500        245.20363      275.02345      24894.448      24487.326      6372.7646      18114.562      3589.0733      5563.2907      4744.1591      371.65129     -1410.1991      15674.445     -10417.858     -791.97737      101502.92      46.647264      46.647264      46.647264      1.2076987      1318.3566     -952.50768      459.22141    
   5177000   5177000        245.59837      715.7495       25546.849      24486.882      6383.0237      18103.859      3608.6679      5608.619       4661.022       378.80794     -1418.6465      15680.713     -10415.325     -791.65538      101544.2       46.653587      46.653587      46.653587      1.2072077      948.77508     -407.72128      1606.1947    
   5177500   5177500        249.01341      693.59901      25616.542      24591.026      6471.7796      18119.247      3569.1841      5617.489       4690.872       368.64111     -1416.997       15701.895     -10411.837     -792.92709      101381.34      46.628633      46.628633      46.628633      1.209147      -140.77762      603.05921      1618.5155    
   5178000   5178000        248.94921     -614.17266      23738.163      24645.303      6470.1111      18175.192      3573.9468      5643.1317      4727.7181      384.13789     -1422.0698      15683.902     -10415.575     -793.74911      101276.35      46.61253       46.61253       46.61253       1.2104005     -1282.4374     -235.9257      -324.15488    
   5178500   5178500        250.84974      424.07901      25358.533      24729.245      6519.5051      18209.739      3626.3954      5629.3319      4679.9439      360.32714     -1352.5043      15683.667     -10417.421     -790.06791      101748.23      46.684813      46.684813      46.684813      1.204787       939.09091      132.99925      200.14685    
   5179000   5179000        252.91853      1081.3447      26263.732      24679.179      6573.2724      18105.907      3561.5734      5596.777       4683.4142      386.19326     -1389.0517      15685.39      -10418.389     -800.06385      100477         46.489572      46.489572      46.489572      1.2200299      272.06625      1697.6013      1274.3667    
   5179500   5179500        254.07484      880.19039      25966.058      24664.081      6603.3246      18060.756      3569.7919      5551.1385      4714.2488      373.13788     -1411.2146      15680.333     -10416.679     -792.57501      101426.38      46.635536      46.635536      46.635536      1.2086101      403.56531      673.61109      1563.3948    
   5180000   5180000        249.85718     -1167.8067      22765.325      24490.465      6493.7089      17996.756      3464.1854      5593.9453      4789.832       373.36673     -1490.647       15682.908     -10416.835     -793.62218      101292.55      46.615016      46.615016      46.615016      1.2102069     -2601.7354     -1006.5481      104.86338    
   5180500   5180500        248.07931     -849.56804      23234.765      24492.209      6447.5026      18044.706      3527.7407      5526.7448      4806.0678      379.3719      -1474.6659      15694.068     -10414.621     -792.09413      101487.96      46.644972      46.644972      46.644972      1.2078768     -189.32512     -1048.652      -1310.727     
   5181000   5181000        254.27887      331.74713      25214.524      24724.538      6608.6271      18115.911      3553.416       5625.9947      4742.1148      367.52254     -1447.1799      15690.67      -10416.627     -793.76401      101274.45      46.612239      46.612239      46.612239      1.2104232      200.74248     -873.86125      1668.3602    
   5181500   5181500        248.75299     -282.79937      24209.803      24628.718      6465.0112      18163.707      3650.5581      5579.8268      4712.2862      373.72473     -1417.1954      15678.896     -10414.389     -791.44279      101571.48      46.657764      46.657764      46.657764      1.2068835      850.42186     -2124.3835      425.56355    
   5182000   5182000        249.99856      179.47347      24845.946      24580.088      6497.3833      18082.705      3524.9843      5573.6903      4736.8326      382.15668     -1383.5325      15665.356     -10416.783     -791.43916      101571.94      46.657835      46.657835      46.657835      1.206878       719.96413     -1234.2076      1052.6639    
   5182500   5182500        247.17395     -21.0054        24506.565      24537.712      6423.9726      18113.739      3563.9489      5550.4892      4747.9669      372.30815     -1409.6855      15702.243     -10413.532     -790.65405      101672.8       46.673274      46.673274      46.673274      1.2056808      717.47021     -169.14682     -611.33959    
   5183000   5183000        252.6856       377.18635      25219.057      24664.983      6567.2186      18097.764      3506.0877      5575.2779      4775.0523      383.22639     -1423.2438      15694.403     -10413.039     -798.09607      100724.73      46.527749      46.527749      46.527749      1.2170292     -527.42026      779.3708       879.60852    
   5183500   5183500        249.97744      281.93514      25103.71       24687.632      6496.8343      18190.798      3514.6998      5667.7714      4771.527       374.03235     -1406.2446      15682.303     -10413.291     -794.40587      101192.62      46.599682      46.599682      46.599682      1.211402      -236.64147     -382.22834      1464.6752    
   5184000   5184000        250.20086      69.028649      24743.196      24641.35       6502.6409      18138.709      3559.0467      5513.2228      4823.2007      379.10027     -1392.6059      15673.699     -10416.954     -794.60841      101166.83      46.595722      46.595722      46.595722      1.2117108      284.22288      116.07142     -193.20836    
   5184500   5184500        245.08244     -2012.6567      21582.472      24562.728      6369.6148      18193.113      3573.4321      5628.0927      4804.5258      374.20041     -1454.3967      15677.75      -10410.491     -791.74139      101533.17      46.651898      46.651898      46.651898      1.2073389     -2018.4122     -2887.8926     -1131.6652    
   5185000   5185000        248.79752     -590.1767       23620          24490.908      6466.1686      18024.739      3588.9739      5602.2268      4685.4584      346.95669     -1455.4102      15672.335     -10415.801     -794.46905      101184.57      46.598446      46.598446      46.598446      1.2114983      267.65623     -1269.9652     -768.22111    
   5185500   5185500        250.65703      934.68595      26061.796      24682.121      6514.4968      18167.624      3581.9842      5635.2267      4726.3939      368.96124     -1400.0554      15673.17      -10418.056     -794.24813      101212.72      46.602766      46.602766      46.602766      1.2111614      1009.9664      1046.2197      747.87175    
   5186000   5186000        250.46873      1125.7673      26302.856      24642.776      6509.6029      18133.173      3535.8518      5678.4896      4724.7877      358.56812     -1431.0764      15681.16      -10414.608     -795.0359       101112.43      46.587369      46.587369      46.587369      1.2123627      712.66871      722.61032      1942.0229    
   5186500   5186500        251.94918     -397.28582      24001.18       24588.05       6548.0792      18039.971      3477.2395      5531.1154      4806.7404      371.64156     -1408.8868      15677.238     -10415.117     -793.64844      101289.2       46.614501      46.614501      46.614501      1.210247      -1651.5668      1124.8975     -665.1882     
   5187000   5187000        247.69628     -353.21391      24010.576      24529.313      6437.5477      18091.765      3576.929       5488.8386      4801.7417      362.97405     -1407.7611      15682.545     -10413.502     -798.2852       100700.87      46.524074      46.524074      46.524074      1.2173176     -1216.3325      25.136118      131.55469    
   5187500   5187500        253.74736      143.84754      24842.746      24630.104      6594.8134      18035.29       3553.8873      5563.0637      4704.1294      367.91627     -1407.9148      15670.89      -10416.682     -793.08404      101361.28      46.625556      46.625556      46.625556      1.2093863      620.04459     -38.250116     -150.25185    
   5188000   5188000        251.90138     -121.75679      24510.508      24690.813      6546.8369      18143.976      3639.1036      5618.0358      4703.2569      362.10465     -1440.4291      15675.843     -10413.939     -791.68457      101540.46      46.653014      46.653014      46.653014      1.2072522     -89.683924      2029.3677     -2304.9541    
   5188500   5188500        252.71141      610.22825      25498.285      24598.709      6567.8894      18030.819      3548.3467      5625.069       4700.5061      348.5963      -1457.1575      15682.288     -10416.829     -795.28273      101081.05      46.582549      46.582549      46.582549      1.2127391      644.35992      619.97476      566.35007    
   5189000   5189000        250.4299      -17.622037      24584.574      24610.5        6508.5937      18101.906      3586.4863      5598.3827      4748.082       365.24582     -1472.8703      15691.993     -10415.413     -796.88433      100877.89      46.55132       46.55132       46.55132       1.2151814      272.85753     -873.1947       547.47106    
   5189500   5189500        254.23236     -1065.1525      23205.337      24777.422      6607.4185      18170.004      3512.3703      5558.9395      4856.4773      387.26414     -1422.227       15692.523     -10415.343     -794.33347      101201.85      46.601097      46.601097      46.601097      1.2112916     -1249.8892     -1042.9957     -902.57253    
   5190000   5190000        249.72952      354.3022       25115.657      24593.438      6490.3911      18103.047      3572.4156      5609.7586      4730.0534      377.01187     -1456.144       15686.036     -10416.085     -795.40456      101065.57      46.58017       46.58017       46.58017       1.2129249     -422.75665      407.29788      1078.3654    
   5190500   5190500        247.71964      409.36462      25156.431      24551.805      6438.1549      18113.65       3528.1867      5557.1203      4769.3086      394.56084     -1390.6637      15673.225     -10418.088     -793.76267      101274.62      46.612265      46.612265      46.612265      1.2104212     -340.66718      1747.0832     -178.32216    
   5191000   5191000        252.17788      325.94023      25179.985      24699.552      6554.0232      18145.529      3540.1853      5634.2389      4752.38        379.61184     -1429.273       15681.501     -10413.115     -795.37482      101069.35      46.580751      46.580751      46.580751      1.2128795     -1250.3584      862.29976      1365.8793    
   5191500   5191500        251.63393      717.07775      25812.5        24751.848      6539.886       18211.962      3570.3041      5585.7067      4764.5883      388.83102     -1351.8622      15670.373     -10415.979     -792.6115       101421.71      46.63482       46.63482       46.63482       1.2086657      699.572        888.97901      562.68224    
   5192000   5192000        249.63373     -889.21479      23298.924      24613.944      6487.9014      18126.042      3487.3287      5621.0103      4825.4612      380.62553     -1441.9885      15671.828     -10418.223     -792.75996      101402.72      46.631909      46.631909      46.631909      1.2088921     -1822.5112     -1071.9428      226.80962    
   5192500   5192500        246.40078     -937.3399       23129.959      24512.527      6403.8781      18108.649      3557.4205      5568.3227      4802.9253      375.94543     -1457.0413      15677.535     -10416.459     -794.83635      101137.82      46.591268      46.591268      46.591268      1.2120584     -1568.407      -183.28579     -1060.3269    
   5193000   5193000        249.06973     -1214.3684      22776.648      24578.82       6473.2432      18105.577      3531.722       5603.6229      4817.1709      375.58746     -1468.3393      15663.507     -10417.694     -789.98962      101758.32      46.686355      46.686355      46.686355      1.2046676     -651.15613     -2809.3809     -182.56817    
   5193500   5193500        251.74433      1025.0026      26210.437      24697.192      6542.7552      18154.436      3592.6192      5586.4943      4737.1252      372.38949     -1402.6127      15684.469     -10416.048     -794.11399      101229.82      46.60539       46.60539       46.60539       1.2109569      690.03307      1013.9417      1371.0329    
   5194000   5194000        251.18977      1424.631       26728.216      24620.374      6528.3425      18092.031      3605.9084      5613.515       4618.8231      355.47673     -1377.8731      15688.56      -10412.379     -792.37631      101451.81      46.639434      46.639434      46.639434      1.2083071      2275.3525      745.27004      1253.2704    
   5194500   5194500        251.61212      588.41178      25436.509      24565.887      6539.3192      18026.568      3599.4128      5608.3548      4641.9154      378.87751     -1462.442       15678.278     -10417.829     -792.35327      101454.76      46.639886      46.639886      46.639886      1.2082719      516.93136     -246.36582      1494.6698    
   5195000   5195000        248.16341      1074.3921      26017.372      24439.875      6449.6883      17990.186      3627.6069      5575.2118      4642.8527      367.18083     -1470.798       15670.492     -10422.36      -798.4751       100676.92      46.520386      46.520386      46.520386      1.2176072     -325.14144      1664.6416      1883.6761    
   5195500   5195500        250.7719      -867.53541      23427.306      24706.75       6517.4823      18189.268      3614.8609      5530.1584      4883.7258      387.05795     -1484.7013      15675.411     -10417.245     -794.9376       101124.94      46.589289      46.589289      46.589289      1.2122128     -2168.873      -590.49194      156.75868    
   5196000   5196000        252.04764     -248.26468      24268.042      24634.846      6550.6383      18084.207      3540.2748      5576.4912      4759.5474      379.18835     -1445.856       15686.939     -10412.378     -793.50194      101307.9       46.61737       46.61737       46.61737       1.2100236      680.35707     -1173.9379     -251.21326    
   5196500   5196500        245.47455     -922.35655      23071.044      24431.766      6379.8056      18051.96       3520.4945      5584.3756      4751.2837      363.79795     -1423.3031      15672.513     -10417.202     -794.68824      101156.67      46.594162      46.594162      46.594162      1.2118326     -881.18853     -55.109903     -1830.7712    
   5197000   5197000        249.40428     -465.02573      23995.909      24685.336      6481.9383      18203.398      3541.8156      5611.2088      4822.5734      389.47427     -1422.8405      15676.291     -10415.125     -790.77959      101656.66      46.670804      46.670804      46.670804      1.2058722      528.82653     -1773.882      -150.02172    
   5197500   5197500        253.20447     -20.417263      24628.768      24658.819      6580.7038      18078.116      3479.8842      5515.2165      4857.0405      372.96956     -1416.0041      15684.48      -10415.472     -796.53677      100921.91      46.55809       46.55809       46.55809       1.2146514      607.07395     -1221.3482      553.02243    
   5198000   5198000        250.21611      263.13126      25026.161      24637.02       6503.0375      18133.983      3563.3346      5615.5182      4754.9973      374.97961     -1448.7017      15689.233     -10415.378     -792.74464      101404.68      46.63221       46.63221       46.63221       1.2088687      270.95407      330.79413      187.64559    
   5198500   5198500        249.56139     -917.64646      23217.757      24573.866      6486.0215      18087.845      3528.7394      5526.3094      4820.3158      376.26752     -1412.6156      15668.232     -10419.404     -793.31924      101331.23      46.620948      46.620948      46.620948      1.209745       250.7274      -1162.9277     -1840.7391    
   5199000   5199000        251.02441     -587.83363      23736.149      24604.084      6524.0447      18080.039      3494.2947      5608.828       4818.0576      365.58905     -1484.3051      15690.583     -10413.008     -794.02568      101241.07      46.607118      46.607118      46.607118      1.2108222      115.17609     -505.79402     -1372.883     
   5199500   5199500        248.4203      -1385.9806      22478.499      24535.074      6456.3649      18078.709      3453.2301      5624.2374      4831.8541      367.64357     -1471.2396      15684.437     -10411.453     -790.09597      101744.62      46.68426       46.68426       46.68426       1.2048297     -1459.4823     -2022.163      -676.29659    
   5200000   5200000        249.9949       304.93625      25034.663      24586.294      6497.2883      18089.005      3518.408       5594.4305      4762.4274      378.30265     -1427.3842      15679.255     -10416.434     -797.33472      100820.91      46.542553      46.542553      46.542553      1.2158682      1383.4585     -317.34072     -151.30901    
Loop time of 421.827 on 1 procs for 200000 steps with 8720 atoms

Performance: 40.965 ns/day, 0.586 hours/ns, 474.129 timesteps/s, 4.134 Matom-step/s
100.0% CPU use with 1 MPI tasks x 1 OpenMP threads

MPI task timing breakdown:
Section |  min time  |  avg time  |  max time  |%varavg| %total
---------------------------------------------------------------
Pair    | 59.04      | 59.04      | 59.04      |   0.0 | 14.00
Bond    | 57.207     | 57.207     | 57.207     |   0.0 | 13.56
Kspace  | 210.45     | 210.45     | 210.45     |   0.0 | 49.89
Neigh   | 14.183     | 14.183     | 14.183     |   0.0 |  3.36
Comm    | 4.3181     | 4.3181     | 4.3181     |   0.0 |  1.02
Output  | 0.055244   | 0.055244   | 0.055244   |   0.0 |  0.01
Modify  | 67.287     | 67.287     | 67.287     |   0.0 | 15.95
Other   |            | 9.281      |            |       |  2.20

Nlocal:           8720 ave        8720 max        8720 min
Histogram: 1 0 0 0 0 0 0 0 0 0
Nghost:          20367 ave       20367 max       20367 min
Histogram: 1 0 0 0 0 0 0 0 0 0
Neighs:              0 ave           0 max           0 min
Histogram: 1 0 0 0 0 0 0 0 0 0
FullNghs:  4.80125e+06 ave 4.80125e+06 max 4.80125e+06 min
Histogram: 1 0 0 0 0 0 0 0 0 0

Total # of neighbors = 4801248
Ave neighs/atom = 550.60183
Ave special neighs/atom = 5.6385321
Neighbor list builds = 3929
Dangerous builds = 0
  unfix npt_tg
  shell echo '{"stage":"T${temps}","status":"done"}' >> /home/alexzhao/PolyJarvis/data/PEEK4/lammps/thermal/tg_sweep_r100/tg_progress.jsonl
  print "STAGE COMPLETE: Tg step T=${temps}K P=1.0atm steps=200000"
STAGE COMPLETE: Tg step T=250K P=1.0atm steps=200000
  next temps
  jump SELF TEMP_LOOP

write_data tg_step_out.data
System init for write_data ...
PPPM Kokkos initialization ...
  using 12-bit tables for long-range coulomb
  G vector (1/distance) = 0.30739382
  grid = 36 36 36
  stencil order = 5
  estimated absolute RMS force accuracy = 0.00037116296
  estimated relative force accuracy = 1.1177462e-06
  using double precision cuFFT
  3d grid and FFT values/proc = 79507 46656
Generated 21 of 21 mixed pair_coeff terms from sixthpower/sixthpower mixing rule
Total wall time: 3:19:27
