LAMMPS data file via write_data, version 22 Jul 2025, timestep = 2000000, units = real

6420 atoms
4 atom types
6810 bonds
8 bond types
12000 angles
15 angle types
19110 dihedrals
24 dihedral types
5600 impropers
14 improper types

4.733944679520885 46.00074035046435 xlo xhi
4.733944679520885 46.00074035046435 ylo yhi
4.733944679520885 46.00074035046435 zlo zhi

Masses

1 12.01115
2 12.01115
3 12.01115
4 1.00797

Pair Coeffs # lj/class2/coul/long/kk

1 0.054 4.01
2 0.054 4.01
3 0.064 4.01
4 0.02 2.995

Bond Coeffs # class2/kk

1 1.53 299.67 -501.77 679.81
2 1.53 299.67 -501.77 679.81
3 1.501 321.902 -521.821 572.163
4 1.101 345 -691.89 844.6
5 1.501 321.902 -521.821 572.163
6 1.101 345 -691.89 844.6
7 1.417 470.836 -627.618 1327.63
8 1.0982 372.825 -803.453 894.317

Angle Coeffs # class2/kk

1 112.67 39.516 -7.443 -9.5583
2 108.4 43.9594 -8.3924 -9.3379
3 110.77 41.453 -10.604 5.129
4 112.67 39.516 -7.443 -9.5583
5 108.4 43.9594 -8.3924 -9.3379
6 110.77 41.453 -10.604 5.129
7 120.05 44.7148 -22.7352 0
8 112.67 39.516 -7.443 -9.5583
9 110.77 41.453 -10.604 5.129
10 120.05 44.7148 -22.7352 0
11 111 44.3234 -9.4454 0
12 111 44.3234 -9.4454 0
13 118.9 61.0226 -34.9931 0
14 117.94 35.1558 -12.4682 0
15 107.66 39.641 -12.921 -2.4318

BondBond Coeffs

1 0 1.53 1.53
2 0 1.53 1.501
3 3.3872 1.53 1.101
4 0 1.53 1.53
5 0 1.53 1.501
6 3.3872 1.53 1.101
7 12.0676 1.501 1.417
8 0 1.53 1.53
9 3.3872 1.53 1.101
10 12.0676 1.501 1.417
11 2.9168 1.501 1.101
12 2.9168 1.501 1.101
13 68.2856 1.417 1.417
14 1.0795 1.417 1.0982
15 5.3316 1.101 1.101

BondAngle Coeffs

1 8.016 8.016 1.53 1.53
2 0 0 1.53 1.501
3 20.754 11.421 1.53 1.101
4 8.016 8.016 1.53 1.53
5 0 0 1.53 1.501
6 20.754 11.421 1.53 1.101
7 47.0579 31.0771 1.501 1.417
8 8.016 8.016 1.53 1.53
9 20.754 11.421 1.53 1.101
10 47.0579 31.0771 1.501 1.417
11 26.4608 11.7717 1.501 1.101
12 26.4608 11.7717 1.501 1.101
13 28.8708 28.8708 1.417 1.417
14 20.0033 24.2183 1.417 1.0982
15 18.103 18.103 1.101 1.101

Dihedral Coeffs # class2/kk

1 0 0 0.0514 0 -0.143 0
2 0 0 0 0 0.158 180
3 0 0 0.0316 0 -0.1681 0
4 -0.2802 0 -0.0678 0 -0.0122 0
5 0 0 0.0514 0 -0.143 0
6 0 0 0.0316 0 -0.1681 0
7 -0.2802 0 -0.0678 0 -0.0122 0
8 0 0 4.4072 0 0 0
9 0 0 1.559 0 0 0
10 0 0 0 0 0.158 180
11 0 0 0.0316 0 -0.1681 0
12 0 0 0 0 0.158 180
13 0 0 0.0316 0 -0.1681 0
14 0 0 4.4072 0 0 0
15 0 0 1.559 0 0 0
16 -0.0228 0 0.028 0 -0.1863 0
17 -0.0228 0 0.028 0 -0.1863 0
18 -0.2801 0 -0.0678 0 -0.0122 0
19 -0.2801 0 -0.0678 0 -0.0122 0
20 8.3667 0 1.1932 0 0 0
21 0 0 3.9661 0 0 0
22 -0.1432 0 0.0617 0 -0.1083 0
23 -0.1432 0 0.0617 0 -0.1083 0
24 0 0 1.8769 0 0 0

AngleAngleTorsion Coeffs

1 -22.045 112.67 112.67
2 0 112.67 108.4
3 -16.164 112.67 110.77
4 0 108.4 120.05
5 -22.045 112.67 112.67
6 -16.164 112.67 110.77
7 0 108.4 120.05
8 -14.4097 120.05 118.9
9 4.4444 120.05 117.94
10 0 112.67 108.4
11 -16.164 112.67 110.77
12 0 112.67 108.4
13 -16.164 112.67 110.77
14 -14.4097 120.05 118.9
15 4.4444 120.05 117.94
16 0 108.4 110.77
17 0 108.4 110.77
18 -5.8888 120.05 111
19 -5.8888 120.05 111
20 0 118.9 118.9
21 -4.8141 118.9 117.94
22 -12.564 110.77 110.77
23 -12.564 110.77 110.77
24 0.3598 117.94 117.94

EndBondTorsion Coeffs

1 -0.0732 0 0 -0.0732 0 0 1.53 1.53
2 0 0 0 0 0 0 1.53 1.501
3 0.2486 0.2422 -0.0925 0.0814 0.0591 0.2219 1.53 1.101
4 0 0 0 0 0 0 1.53 1.417
5 -0.0732 0 0 -0.0732 0 0 1.53 1.53
6 0.2486 0.2422 -0.0925 0.0814 0.0591 0.2219 1.53 1.101
7 0 0 0 0 0 0 1.53 1.417
8 0 0.2421 0 0 -0.6918 0 1.501 1.417
9 0 -1.797 0 0 -0.4879 0 1.501 1.0982
10 0 0 0 0 0 0 1.53 1.501
11 0.2486 0.2422 -0.0925 0.0814 0.0591 0.2219 1.53 1.101
12 0 0 0 0 0 0 1.53 1.501
13 0.2486 0.2422 -0.0925 0.0814 0.0591 0.2219 1.53 1.101
14 0 0.2421 0 0 -0.6918 0 1.501 1.417
15 0 -1.797 0 0 -0.4879 0 1.501 1.0982
16 0 0 0 0 0 0 1.501 1.101
17 0 0 0 0 0 0 1.501 1.101
18 -0.5835 1.122 0.3978 1.3997 0.7756 0 1.417 1.101
19 -0.5835 1.122 0.3978 1.3997 0.7756 0 1.417 1.101
20 -0.1185 6.3204 0 -0.1185 6.3204 0 1.417 1.417
21 0 -6.8958 0 0 -0.4669 0 1.417 1.0982
22 0.213 0.312 0.0777 0.213 0.312 0.0777 1.101 1.101
23 0.213 0.312 0.0777 0.213 0.312 0.0777 1.101 1.101
24 0 -0.689 0 0 -0.689 0 1.0982 1.0982

MiddleBondTorsion Coeffs

1 -17.787 -7.1877 0 1.53
2 0 0 0 1.53
3 -14.879 -3.6581 -0.3138 1.53
4 0 0 0 1.501
5 -17.787 -7.1877 0 1.53
6 -14.879 -3.6581 -0.3138 1.53
7 0 0 0 1.501
8 0 9.1792 0 1.417
9 0 3.9421 0 1.417
10 0 0 0 1.53
11 -14.879 -3.6581 -0.3138 1.53
12 0 0 0 1.53
13 -14.879 -3.6581 -0.3138 1.53
14 0 9.1792 0 1.417
15 0 3.9421 0 1.417
16 0 0 0 1.53
17 0 0 0 1.53
18 -5.5679 1.4083 0.301 1.501
19 -5.5679 1.4083 0.301 1.501
20 27.5989 -2.312 0 1.417
21 0 -1.1521 0 1.417
22 -14.261 -0.5322 -0.4864 1.53
23 -14.261 -0.5322 -0.4864 1.53
24 0 4.8228 0 1.417

BondBond13 Coeffs

1 0 1.53 1.53
2 0 1.53 1.501
3 0 1.53 1.101
4 0 1.53 1.417
5 0 1.53 1.53
6 0 1.53 1.101
7 0 1.53 1.417
8 2.5085 1.501 1.417
9 0.8743 1.501 1.0982
10 0 1.53 1.501
11 0 1.53 1.101
12 0 1.53 1.501
13 0 1.53 1.101
14 2.5085 1.501 1.417
15 0.8743 1.501 1.0982
16 0 1.501 1.101
17 0 1.501 1.101
18 -3.4826 1.417 1.101
19 -3.4826 1.417 1.101
20 53 1.417 1.417
21 -6.2741 1.417 1.0982
22 0 1.101 1.101
23 0 1.101 1.101
24 -1.7077 1.0982 1.0982

AngleTorsion Coeffs

1 0.3886 -0.3139 0.1389 0.3886 -0.3139 0.1389 112.67 112.67
2 0 0 0 0 0 0 112.67 108.4
3 -0.2454 0 -0.1136 0.3113 0.4516 -0.1988 112.67 110.77
4 0 0 0 0 0 0 108.4 120.05
5 0.3886 -0.3139 0.1389 0.3886 -0.3139 0.1389 112.67 112.67
6 -0.2454 0 -0.1136 0.3113 0.4516 -0.1988 112.67 110.77
7 0 0 0 0 0 0 108.4 120.05
8 0 -4.4683 0 0 3.8987 0 120.05 118.9
9 0 -0.1242 0 0 3.4601 0 120.05 117.94
10 0 0 0 0 0 0 112.67 108.4
11 -0.2454 0 -0.1136 0.3113 0.4516 -0.1988 112.67 110.77
12 0 0 0 0 0 0 112.67 108.4
13 -0.2454 0 -0.1136 0.3113 0.4516 -0.1988 112.67 110.77
14 0 -4.4683 0 0 3.8987 0 120.05 118.9
15 0 -0.1242 0 0 3.4601 0 120.05 117.94
16 0 0 0 0 0 0 108.4 110.77
17 0 0 0 0 0 0 108.4 110.77
18 0.2251 0.6548 0.1237 4.6266 0.1632 0.0461 120.05 111
19 0.2251 0.6548 0.1237 4.6266 0.1632 0.0461 120.05 111
20 1.9767 1.0239 0 1.9767 1.0239 0 118.9 118.9
21 0 2.5014 0 0 2.7147 0 118.9 117.94
22 -0.8085 0.5569 -0.2466 -0.8085 0.5569 -0.2466 110.77 110.77
23 -0.8085 0.5569 -0.2466 -0.8085 0.5569 -0.2466 110.77 110.77
24 0 2.4501 0 0 2.4501 0 117.94 117.94

Improper Coeffs # class2/kk

1 0 0
2 0 0
3 0 0
4 0 0
5 0 0
6 0 0
7 0 0
8 0 0
9 0 0
10 0 0
11 0 0
12 7.8153 0
13 7.8153 0
14 4.8912 0

AngleAngle Coeffs

1 2.0403 -1.8202 1.0827 108.4 110.77 111
2 0.1184 -1.3199 -1.3199 110.77 112.67 110.77
3 1.0827 -1.8202 2.0403 110.77 108.4 111
4 0.2738 -0.4825 0.2738 110.77 110.77 107.66
5 -1.3199 -1.3199 0.1184 112.67 110.77 110.77
6 0.2738 -0.4825 0.2738 110.77 110.77 107.66
7 2.3794 3.0118 2.3794 111 111 107.66
8 -0.3157 -0.3157 -0.3157 107.66 107.66 107.66
9 0 0 0 112.67 108.4 108.4
10 -1.3199 -1.3199 0.1184 112.67 110.77 110.77
11 2.0403 -1.8202 1.0827 108.4 110.77 111
12 0 0 0 120.05 120.05 118.9
13 0 0 0 120.05 120.05 118.9
14 0 0 0 118.9 117.94 117.94

Atoms # full/kk

3072 5 4 0.1268 9.248523421136543 45.84959886418304 10.559264692069844 0 -1 0
3066 5 4 0.053 6.249377689270403 5.04217520756775 7.404625056288149 0 0 0
3065 5 1 -0.106 6.513475601321989 5.251719829593338 8.44419572345291 0 0 0
3053 5 4 0.053 4.844048973168853 4.78124369844993 9.661423900310517 0 0 0
5097 8 3 -0.1268 5.692618836203316 10.165119371177923 5.315649295758679 1 1 1
3052 5 2 -0.053 5.2984097856146395 5.724480030441639 9.30797479029413 0 0 0
3056 5 4 0.1268 6.65586011957609 8.191497820469792 9.384248859671866 0 0 0
2692 5 4 0.1268 9.344050261093116 9.437240525608665 7.4050755410534945 0 0 0
5093 8 3 -0.1268 6.769491995343305 8.04040400565422 5.530938474077014 1 1 1
5095 8 3 -0.1268 6.067947963405953 9.108451322921738 6.160729758092361 1 1 1
5105 8 4 0.053 8.67884229511587 6.071903245802205 5.338754897312281 1 1 1
3067 5 4 0.053 7.233577536190927 6.048347297379806 8.542939867426751 0 0 0
5094 8 4 0.1268 7.066153900782597 7.2733765521980525 6.259518577688003 1 1 1
2690 5 4 0.1268 8.898061566016572 7.499083940423484 8.913311957664272 0 0 0
2689 5 3 -0.1268 9.58518693627855 8.260940883025246 9.200843097811292 0 0 0
5096 8 4 0.1268 5.88384951353423 9.166449654516148 7.225300695336652 1 1 1
2691 5 3 -0.1268 9.928934150388862 9.350221608671678 8.377061128091672 0 0 0
2687 5 3 -0.1268 10.313187836651405 8.129846237637945 10.411045806765326 0 0 0
2948 5 4 0.1268 6.193542460394415 10.867169570893314 9.464504924060021 0 0 0
3074 5 4 0.1268 11.688232048301423 45.984651327639014 9.95443452164532 0 -1 0
2696 5 4 0.1268 12.172163857552663 11.001363964242767 10.291317444287301 0 0 0
5128 8 4 0.1268 14.16721166493431 7.560549391647665 9.640019587379824 1 1 1
5000 8 4 0.1268 16.49681602442468 5.981670288584986 4.831351555990561 1 1 1
5119 8 1 -0.106 11.221546559839405 7.014294261971094 5.234239368174899 1 1 1
2693 5 3 -0.1268 10.787241517421505 10.329332766332756 8.825034674912443 0 0 0
5126 8 4 0.1268 12.253288994625844 7.52817978835949 8.079306367415713 1 1 1
5120 8 4 0.053 10.747861221757244 6.850256849736862 6.263623188109099 1 1 1
2695 5 3 -0.1268 11.505579434202481 10.187254753390945 9.981307030681243 0 0 0
5123 8 4 0.053 11.582805012371484 9.113355213984597 5.697801356647413 1 1 1
5122 8 1 -0.106 12.16421330688669 8.188323194225106 5.367415701896515 1 1 1
5125 8 3 -0.1268 13.180701042579221 7.656319086057685 7.661307051633579 1 1 1
5133 8 3 -0.1268 14.701907375043914 8.124754174785753 5.890486495162128 1 1 1
5124 8 3 0 13.397822722628725 7.9144446123656955 6.296751933971676 1 1 1
5127 8 3 -0.1268 14.29590988828843 7.700458539457907 8.5707686490518 1 1 1
5129 8 3 -0.1268 15.586482629992823 7.822314439471704 8.091754455955233 1 1 1
5131 8 3 -0.1268 15.83386806161184 7.99752083236641 6.743531390615172 1 1 1
1924 3 4 0.1268 21.03056126605709 4.8775579231275685 10.42515450770654 1 1 0
1915 3 3 -0.1268 21.43189688189777 5.668756571326279 7.126137957649358 1 1 0
1916 3 4 0.1268 20.81240005273155 6.10160735636935 6.352276514077673 1 1 0
39 1 3 -0.1268 21.834910964700864 10.219602163327643 4.795661277965942 0 0 1
5132 8 4 0.1268 16.81116358300062 8.363701977565501 6.4528974154444105 1 1 1
5130 8 4 0.1268 16.53541436654759 7.8582183956643386 8.703151097689362 1 1 1
1923 3 3 -0.1268 21.54389735768067 5.133426241597273 9.470841527692846 1 1 0
1926 3 4 0.053 18.95504577404847 5.963852879756678 9.31963437974923 1 1 0
46 1 4 0.1268 20.48757819017939 9.324863456070098 8.438038083774359 0 0 1
45 1 3 -0.1268 20.94282619596956 9.651927664433543 7.4800881629525175 0 0 1
1912 3 1 -0.106 19.295194208372358 5.679848685077657 8.314924333726937 1 1 0
1914 3 3 0 20.823768831695723 5.489747884245176 8.356726682622696 1 1 0
1913 3 4 0.053 19.004055280606224 6.484466238764354 7.63146495178555 1 1 0
43 1 3 -0.1268 22.256607693305 9.328332579455733 7.028001290188757 0 0 1
41 1 3 -0.1268 22.626499790414975 9.52109246257868 5.7009226387629255 0 0 1
44 1 4 0.1268 23.084382907581794 8.946652091909204 7.6598120159101715 0 0 1
1920 3 4 0.1268 24.63854752328903 4.75849385226941 8.077476853513813 1 1 0
6048 10 4 0.1268 26.618005023299975 5.258134696284257 5.493406236001792 0 1 0
6047 10 3 -0.1268 27.540481846738427 5.418051281076772 6.113389024484446 0 1 0
6073 10 3 -0.1268 26.89225647080516 10.623187509176148 45.60727063678344 0 1 -1
6036 10 4 0.053 28.18572651188294 5.71598654938639 10.159901695592989 0 1 0
1918 3 4 0.1268 23.26508136957193 5.602668079170887 6.071577413915744 1 1 0
3669 6 3 -0.1268 23.860458002583208 10.876502378285654 9.561304429247805 0 0 0
3670 6 4 0.1268 23.856298719648997 10.884635154571093 8.443131332513119 0 0 0
3671 6 3 -0.1268 24.9333701801486 10.231724044387892 10.288494806782941 0 0 0
1917 3 3 -0.1268 22.822758739425982 5.437697489560303 6.994267463055278 1 1 0
1919 3 3 -0.1268 23.546864688278696 4.954761024219944 8.130921781843261 1 1 0
42 1 4 0.1268 23.603087273600302 9.08155570870246 5.355093867410479 0 0 1
1921 3 3 -0.1268 22.884481438740735 4.852073634412855 9.397196155695317 1 1 0
6069 10 4 0.053 27.70945269604725 9.994561393449521 8.048591864714675 0 1 0
3672 6 4 0.1268 25.645135071692756 9.733064254862393 9.736831665732097 0 0 0
6050 10 4 0.1268 26.472536311023042 6.720194357313172 7.3322067169420855 0 1 0
6039 10 4 0.053 27.50454653021362 8.079086420986624 9.217137523298938 0 1 0
6049 10 3 -0.1268 27.522321118031492 6.369783167305297 7.109272449717054 0 1 0
6068 10 4 0.053 27.8649764820177 9.177101632178967 6.556021180325523 0 1 0
6067 10 1 -0.106 28.355576608492342 10.026057313242699 7.168182773306208 0 1 0
6043 10 3 -0.1268 29.853285032215 5.00611138071394 6.554158401076306 0 1 0
6085 10 4 0.053 29.465535530255043 10.674284576755552 4.877155753450471 0 1 0
6038 10 2 -0.053 28.523014103857374 7.575353835012646 9.15081140996209 0 1 0
6040 10 3 0 28.661692698340058 6.742131835053862 7.89036309976798 0 1 0
6055 10 4 0.053 30.234557034886524 10.454992742335456 8.094215572768823 0 1 0
6052 10 4 0.053 29.297047324913596 9.300874066527868 9.88850592459478 0 1 0
6053 10 4 0.053 30.57704399669112 8.244072889393568 9.275732858455974 0 1 0
6058 10 4 0.1268 32.32499848420513 9.419718137368557 8.087696365205131 0 1 0
6063 10 3 -0.1268 31.359544471923464 7.657577664954354 4.763174724382194 0 1 0
6061 10 3 -0.1268 32.63381626723972 7.774847610127839 5.274650208765899 0 1 0
6041 10 3 -0.1268 29.839169583718686 5.998087421840993 7.563230341780775 0 1 0
6042 10 4 0.1268 30.82581007709703 6.110427061153938 8.048956069479708 0 1 0
6051 10 1 -0.106 29.55595435762493 8.706788111270843 9.039776971741032 0 1 0
6066 10 4 0.1268 29.363221275957898 8.175981356533882 5.179809736742223 0 1 0
6054 10 2 -0.053 29.715978711325246 9.596990822295409 7.7808053603065765 0 1 0
6057 10 3 -0.1268 31.98113722322443 8.914806269686675 7.175499989921422 0 1 0
6056 10 3 0 30.651502138481952 8.936455660498838 6.832249121829502 0 1 0
6065 10 3 -0.1268 30.39511803856576 8.315111543536268 5.585221694329931 0 1 0
6059 10 3 -0.1268 32.99795119276962 8.453458344575512 6.426344531773886 0 1 0
1682 3 4 0.1268 33.54570049849655 6.184388571846977 9.452196915405704 0 1 0
6060 10 4 0.1268 34.0152534242186 8.556466555924175 6.738939846693817 0 1 0
2984 5 4 0.1268 38.21322090782583 9.250853088268375 10.492004902085863 -1 0 0
3024 5 4 0.1268 39.86951222164532 6.9995045256546105 10.511413862529809 -1 0 0
3000 5 4 0.1268 36.3201310194308 10.476432018543257 6.84293790791706 -1 0 0
6174 10 4 0.1268 37.782622198260796 4.907015460623564 7.860209717114843 0 1 0
6173 10 3 -0.1268 37.50677050042911 5.123948014954449 6.829185162176601 0 1 0
3003 5 4 0.053 39.090153857954604 9.936565204476214 5.76737439071993 -1 0 0
3001 5 1 -0.106 39.172761885642046 10.000757128231001 6.859238860522361 -1 0 0
6175 10 3 -0.1268 37.671077932778076 6.448127913251061 6.221712803794397 0 1 0
6176 10 4 0.1268 37.9695635255739 7.322670929487421 6.729385044736322 0 1 0
3002 5 4 0.053 38.31080939855855 9.384349243452768 7.294726475022842 -1 0 0
3019 5 4 0.053 39.64404438748751 7.665182827766737 8.001354512494345 -1 0 0
6208 10 4 0.1268 41.610264858365156 44.79336630955456 5.797941251506568 0 0 0
3038 5 3 0 43.5715580896414 4.9876212099657975 9.079940463641043 -1 0 0
3051 5 4 0.053 45.64075152672626 7.6990304928731 8.514503054619095 -1 0 0
3018 5 4 0.053 40.600070160136966 7.483036360823367 6.47590114559971 -1 0 0
3021 5 4 0.053 41.436569286983556 6.350807802404745 8.726846127412959 -1 0 0
3035 5 4 0.053 43.037836932232466 6.681610475543691 6.91645867729204 -1 0 0
6206 10 4 0.1268 43.57947737455743 5.125896494411586 5.675613490154619 0 1 0
3020 5 2 -0.053 41.68099035121003 7.354584272597205 8.421845331444896 -1 0 0
3033 5 1 -0.106 43.117531742776734 7.187922762346847 7.902583634085579 -1 0 0
3031 5 3 -0.1268 42.502726237973945 9.157984580119171 10.294721930120202 -1 0 0
3006 5 3 0 41.69087484690769 9.976713248032153 6.619689610835478 -1 0 0
3050 5 4 0.053 45.43295782045466 6.221182373148949 7.528078388220469 -1 0 0
3022 5 3 0 41.62391137129994 8.10964247996978 9.832379684879372 -1 0 0
3016 5 4 0.1268 41.485790907103706 8.576397298612452 5.018698895848294 -1 0 0
3049 5 1 -0.106 45.44754873452362 6.588425718798466 8.595750880138286 -1 0 0
3005 5 4 0.053 40.6451980125222 9.797739679795814 8.452947661521126 -1 0 0
3015 5 3 -0.1268 42.0346509516191 9.491435327200268 5.305016918647592 -1 0 0
3036 5 2 -0.053 43.985944234472555 6.442034820282603 8.960320270545413 -1 0 0
3032 5 4 0.1268 43.28117657370946 9.357920059574141 9.521025623873836 -1 0 0
3037 5 4 0.053 43.97616143054918 6.93578064922259 9.951496692391341 -1 0 0
3004 5 2 -0.053 40.49203267210798 9.433019377912409 7.42185209474076 -1 0 0
3017 5 1 -0.106 40.55583428093007 7.933397316665021 7.534312820888989 -1 0 0
3034 5 4 0.053 43.57742212492906 8.195871374274315 7.659001684985465 -1 0 0
2660 5 4 0.1268 8.608193767587348 15.981254439687936 10.850328358738102 0 0 0
2906 5 4 0.053 6.513868099850583 16.451463968793867 9.997280445176273 0 0 0
2890 5 4 0.053 6.6773782207075705 14.612765259406636 8.039980485327446 0 0 0
2889 5 1 -0.106 6.708064192179257 15.471786405268844 7.295368019129988 0 0 0
2891 5 4 0.053 5.998832450673282 14.997933358448297 6.662583242547309 0 0 0
2879 5 3 -0.1268 8.633870513045636 13.51094678120014 5.450669435710812 0 0 0
2880 5 4 0.1268 8.901872518575 12.999137454026904 6.3550316663932405 0 0 0
2874 5 4 0.053 9.169660038735032 14.71609050916049 8.305798845834284 0 0 0
2878 5 3 0 8.348108786688872 14.846162270770945 5.410440777967727 0 0 0
2873 5 1 -0.106 9.210876611703185 15.688330657649631 7.7724680809102304 0 0 0
2876 5 2 -0.053 8.082164675137923 15.701202679422193 6.67781559037081 0 0 0
5098 8 4 0.1268 5.311426106016157 11.082985930458706 5.648127341292042 1 1 1
2662 5 4 0.1268 7.634717364301585 13.742930146401624 10.735236151839786 0 0 0
2907 5 4 0.053 4.94098630853709 15.818424180878903 9.263232594248374 0 0 0
2882 5 4 0.1268 8.911620417591028 11.681879574547342 45.68605657531931 0 0 -1
2881 5 3 -0.1268 8.773627277544414 12.760622128048231 45.5826454682871 0 0 -1
2950 5 4 0.1268 5.192891256489855 12.436684125630613 7.829956340570952 0 0 0
2864 5 4 0.1268 11.866200811393632 15.627805787542266 4.945763482726505 0 0 0
2694 5 4 0.1268 10.969948059674007 11.20632011237012 8.185018512087302 0 0 0
2860 5 2 -0.053 10.710655551092795 15.75113726352864 7.335458019931843 0 0 0
2856 5 4 0.1268 14.438110484131405 15.15150635880628 5.831573516391079 0 0 0
2854 5 4 0.1268 15.250285056337727 12.914396148325224 5.3111319302409274 0 0 0
2852 5 4 0.1268 15.11573671769838 11.020849738065959 6.583010120991038 0 0 0
2861 5 4 0.053 10.867618707141762 14.787673805994029 6.7965586521123 0 0 0
2857 5 1 -0.106 11.624271408450063 15.871384951819165 8.576766210220839 0 0 0
2842 5 4 0.053 13.849259692351744 15.626925453014465 10.271130131164162 0 0 0
2853 5 3 -0.1268 14.692498401988829 13.060207153689445 6.200069996077975 0 0 0
2851 5 3 -0.1268 14.608661378583177 11.914848360757718 7.013721325845595 0 0 0
2850 5 4 0.1268 14.15179904606366 11.180942821109834 9.00208098759489 0 0 0
2846 5 3 0 13.725382836455353 14.428153487889412 7.872329372786446 0 0 0
2849 5 3 -0.1268 14.084461810999601 12.063531076941503 8.296911233977672 0 0 0
2855 5 3 -0.1268 14.353822766398338 14.314452110164614 6.636472729791246 0 0 0
2847 5 3 -0.1268 13.63962891971745 13.315829730197903 8.77015168238024 0 0 0
2848 5 4 0.1268 13.06896819782554 13.358045855969737 9.741636071584859 0 0 0
2858 5 4 0.053 11.337950742813977 15.071533569279268 9.337873294484988 0 0 0
2844 5 2 -0.053 13.219290117411493 15.811743597473047 8.299618040655536 0 0 0
53 1 4 0.053 20.867537971308767 13.878523130331677 45.889589696694706 0 0 0
2786 5 4 0.1268 16.02715813861449 13.660574697100694 9.65469811611185 0 0 0
49 1 1 -0.106 19.17382375464316 12.76632751013139 5.052063512350318 0 0 1
63 1 3 -0.1268 20.629242600076868 16.059584265325405 6.0110846831523945 0 0 1
56 1 4 0.1268 17.548826283293092 15.012358412957607 5.506499847485286 0 0 1
2785 5 3 -0.1268 17.00454061535146 13.799131354505217 9.998834968845877 0 0 0
55 1 3 -0.1268 18.337532396289284 15.653667640320446 5.85875589998157 0 0 1
50 1 4 0.053 19.398232269799372 12.634602629438646 6.142745217874606 0 0 1
54 1 3 0 19.638095781058613 15.216687998434832 5.508221522656026 0 0 1
2789 5 3 -0.1268 19.362275715394993 14.099342400337266 9.474509354539231 0 0 0
2790 5 4 0.1268 20.095591200014013 14.021625028128897 8.686524109444678 0 0 0
2788 5 4 0.1268 17.85625831736972 13.534983443845476 7.997583440274097 0 0 0
2787 5 3 -0.1268 18.050287182279888 13.737958131844053 9.087243771674117 0 0 0
48 1 4 0.1268 19.06784909419448 10.515615452287225 6.784975771569195 0 0 1
38 1 3 0 20.570222347592896 10.707408804966812 5.268642241951896 0 0 1
3636 6 4 0.1268 21.787442844082552 15.433004266820783 9.393790600113348 0 0 0
64 1 4 0.1268 21.66704917779325 15.855380068725117 5.713204822456138 0 0 1
47 1 3 -0.1268 20.096541860802724 10.336919790533788 6.5896005925691234 0 0 1
6075 10 3 -0.1268 25.765341224480586 10.607030575466563 44.833558774491486 0 1 -1
6077 10 3 -0.1268 24.736949774185327 11.426474613113774 45.090514862252896 0 1 -1
6078 10 4 0.1268 24.021155584089087 11.651391436472236 44.341206480015714 0 1 -1
3668 6 4 0.1268 22.21288892150264 12.06175314126874 9.852695039332671 0 0 0
3635 6 3 -0.1268 22.896045247455987 15.63831220503328 9.561511442170035 0 0 0
3658 6 4 0.1268 27.927601730786495 13.529937238455943 11.020173694218554 0 0 0
3667 6 3 -0.1268 23.064529595697902 11.6674731011415 10.385968572328647 0 0 0
6079 10 3 -0.1268 24.778036083456467 12.268519632964491 4.956320529754533 0 1 0
6080 10 4 0.1268 23.830882165783866 12.815808538404251 5.176216387594256 0 1 0
6081 10 3 -0.1268 25.833055633334215 12.183983648605512 5.876762061482554 0 1 0
6072 10 3 0 26.92488648355848 11.35373289417958 5.573502092474409 0 1 0
6082 10 4 0.1268 25.797031294925198 12.74167127806852 6.774000761247623 0 1 0
6095 10 3 -0.1268 28.13667267128287 16.295947766754242 5.681220649232131 0 1 0
6070 10 2 -0.053 28.204009528430046 11.410982766011108 6.4464552723072295 0 1 0
6097 10 3 -0.1268 28.375169692719638 15.16025853053845 4.902757384588907 0 1 0
6071 10 4 0.053 28.190912518666067 12.21524364268425 7.17249335741532 0 1 0
3656 6 4 0.1268 30.387305643146746 13.976261773264987 10.878355916347175 0 0 0
2123 4 4 0.053 32.52724491843197 16.306902737644826 8.381976943635467 -1 0 1
2126 4 4 0.1268 31.27000713684536 16.59444409102152 10.16199063232809 -1 0 1
6086 10 2 -0.053 29.330209041918177 12.923685241728753 45.771218302128176 0 1 -1
6093 10 3 -0.1268 28.74037541452094 16.474147865166387 6.898067964054839 0 1 0
6092 10 4 0.1268 30.163567789065027 15.607234848278361 8.2933383338484 0 1 0
2148 4 4 0.1268 33.16612869118374 11.59633958435184 7.386192729146276 -1 0 1
6088 10 3 0 29.247606849745036 14.16501966159104 5.348880682507825 0 1 0
6089 10 3 -0.1268 29.903907296456094 14.370303102865071 6.578041537545523 0 1 0
6090 10 4 0.1268 30.675060225969656 13.654493316074639 6.857584165377467 0 1 0
6083 10 1 -0.106 29.380790983135686 11.65355151171039 5.391702698656965 0 1 0
6084 10 4 0.053 30.266602207475454 11.649761702818497 6.033461409345993 0 1 0
6091 10 3 -0.1268 29.661183817219303 15.474074502982942 7.3645945231025145 0 1 0
2145 4 3 -0.1268 33.06017135021536 12.012678373172099 9.51029102863294 -1 0 1
2146 4 4 0.1268 32.49458557288343 11.136762488111732 9.670744550181391 -1 0 1
2147 4 3 -0.1268 33.5269892248798 12.295226599847865 8.20243215522526 -1 0 1
2143 4 3 -0.1268 33.330664087420274 13.013364537356495 10.522125959262702 -1 0 1
2973 5 4 0.053 39.71262688436211 10.75706410040061 9.799556223093832 -1 0 0
2969 5 1 -0.106 39.94364946322656 12.91168357039288 9.789578992360592 -1 0 0
2142 4 4 0.1268 34.26324846296848 14.903665114291586 10.993050400305037 -1 0 1
2974 5 3 0 38.09117113498431 11.418291103293402 11.04546684655243 -1 0 0
2139 4 4 0.053 35.8061439951109 15.856494658181173 9.748099259227999 -1 0 1
2991 5 3 -0.1268 37.88785731839994 12.91096603394407 5.248020326813358 -1 0 0
2141 4 3 -0.1268 34.091928593570366 14.096550533461617 10.22419542501524 -1 0 1
2138 4 2 -0.053 35.51137688470435 15.63011249702096 8.722149417979713 -1 0 1
2999 5 3 -0.1268 36.42057615577897 11.26499687891625 6.082038650126931 -1 0 0
2989 5 4 0.053 39.65328778606958 12.134116750485132 7.149516242738813 -1 0 0
2151 4 1 -0.106 36.79618668212855 15.224944057067235 7.9967399205667 -1 0 1
2153 4 4 0.053 37.34301827978206 14.467272062605785 8.567266403289594 -1 0 1
2985 5 1 -0.106 38.139518832831754 11.545117577350387 8.633841343183606 -1 0 0
2150 4 4 0.1268 34.76504800199243 13.384126426225285 6.921633899945386 -1 0 1
2140 4 3 0 34.613700918515775 14.343593132309472 8.942165999013557 -1 0 1
2986 5 4 0.053 37.540634199093205 12.484593922360936 8.640683291788328 -1 0 0
2972 5 2 -0.053 39.04815211179687 11.659345685736417 9.886834224775699 -1 0 0
2152 4 4 0.053 36.58251876829684 14.75085101281664 7.038443221110977 -1 0 1
2990 5 3 0 37.65980172550317 11.907577342188603 6.158639601475756 -1 0 0
2988 5 2 -0.053 38.75728724394183 11.45186994409936 7.175696373094853 -1 0 0
2987 5 4 0.053 37.38944179068693 10.688043318180917 8.642945431718939 -1 0 0
2971 5 4 0.053 39.277146834684686 13.822079414385753 9.723723983805675 -1 0 0
2149 4 3 -0.1268 34.384507002936054 13.353540283534308 7.944192082174238 -1 0 1
2992 5 4 0.1268 38.84501944195169 13.42638005639942 5.355788875480972 -1 0 0
2970 5 4 0.053 40.35083509362302 12.86440842055562 8.841591374997583 -1 0 0
2159 4 3 -0.1268 40.76214036634404 15.216608810565074 5.608761963712205 -1 0 1
2160 4 4 0.1268 41.65093689321563 14.580291058833584 5.5991699264407915 -1 0 1
2937 5 1 -0.106 43.86169447536281 15.907733800306259 11.006549520923079 -1 0 0
2939 5 4 0.053 44.19452481526662 16.10669422765975 9.97665411145615 -1 0 0
2157 4 3 -0.1268 39.89958693025453 15.363807179199567 6.675988937139918 -1 0 1
2951 5 3 -0.1268 45.09667021616842 13.297639916174527 9.276566507129113 -1 0 0
2158 4 4 0.1268 40.15701250132622 14.832383359710732 7.614288053077436 -1 0 1
2952 5 4 0.1268 44.76384447399445 14.116253179613528 8.593825834034853 -1 0 0
2954 5 4 0.053 42.43106161146538 13.801481849304915 9.283568950705707 -1 0 0
3010 5 4 0.1268 44.219382896887765 12.314881041030834 6.909812297036906 -1 0 0
2953 5 1 -0.106 42.155629671903526 14.127819793293899 10.301618925144178 -1 0 0
2942 5 3 0 44.59149405112727 13.374270108103557 10.572106378814471 -1 0 0
3008 5 4 0.1268 42.27215795499092 11.2502646302242 8.184553513932524 -1 0 0
3009 5 3 -0.1268 43.54148165754711 11.576966954043598 6.472408902088732 -1 0 0
2955 5 4 0.053 41.62751618549855 15.041015115236275 10.105042184439478 -1 0 0
2957 5 4 0.053 41.50335357501284 12.085449219381875 10.82186944422119 -1 0 0
2956 5 2 -0.053 41.07588357618303 13.061256967496602 10.825856303960553 -1 0 0
2940 5 2 -0.053 43.49939561170821 14.400428911621438 11.043977783633302 -1 0 0
3007 5 3 -0.1268 42.490623712258554 11.023662307833504 7.155239898349403 -1 0 0
2949 5 3 -0.1268 4.801423730975466 12.415913573899946 8.897063057766234 0 0 0
2947 5 3 -0.1268 5.303028501033909 11.472535020629183 9.761328285129183 0 0 0
1182 2 4 0.1268 45.40069468566125 13.554921592155587 5.653609968480497 0 0 1
2913 5 3 -0.1268 6.118087107327042 21.116432493830985 8.434445922545285 0 0 0
2893 5 4 0.053 7.04310879460751 17.471106220210764 7.939764575136113 0 0 0
2917 5 3 -0.1268 7.601006355883152 20.633960214030868 10.321031942219362 0 0 0
2875 5 4 0.053 9.014436561305187 16.397724022759277 8.572649080583094 0 0 0
2905 5 1 -0.106 5.613227496733106 16.67855534985253 9.343592888408702 0 0 0
2915 5 3 -0.1268 7.229840282512182 21.50350610799489 9.198766518374544 0 0 0
2910 5 3 0 5.854789721990739 19.107514275187974 9.770525648766313 0 0 0
2877 5 4 0.053 8.126895383459576 16.776117089154567 6.243314171463688 0 0 0
2872 5 4 0.1268 10.191677961436284 18.3943786696588 7.685411720298909 0 0 0
2892 5 2 -0.053 6.210011372930587 16.796833642246945 7.937251193270108 0 0 0
2911 5 3 -0.1268 5.397442587152116 19.999621848811444 8.766293957587195 0 0 0
2894 5 3 0 5.182496257572558 17.429612089404074 6.923525158056992 0 0 0
2919 5 3 -0.1268 6.967854791306168 19.45194557595741 10.535889450122198 0 0 0
2896 5 4 0.1268 6.6761476666051855 18.919251881821857 6.045491877258494 0 0 0
2895 5 3 -0.1268 5.614886165030276 18.4698130777149 6.084931886100348 0 0 0
2908 5 2 -0.053 4.947173570675201 17.867081077697527 10.046840234188245 0 0 0
2914 5 4 0.1268 5.861277521815288 21.69937239797275 7.5779936527246115 0 0 0
2916 5 4 0.1268 7.864438968685652 22.26931971569872 8.895331114009554 0 0 0
2912 5 4 0.1268 45.73815365896343 19.83192548910017 8.212918355227192 -1 0 0
2870 5 4 0.1268 10.219885306074204 20.26025228490792 5.992172775553303 0 0 0
2871 5 3 -0.1268 10.504166701703525 18.22067264135947 6.659600323241324 0 0 0
2869 5 3 -0.1268 10.53024935078571 19.230315942464145 5.72683195747534 0 0 0
2862 5 3 0 10.893343615266902 16.869253579894206 6.369409514440233 0 0 0
2828 5 2 -0.053 13.864691823638132 17.749878214629128 9.96824137182665 0 0 0
2840 5 4 0.1268 11.900897048529334 19.47697075818059 9.17193389246228 0 0 0
2827 5 4 0.053 15.805202562790575 17.600506860680298 10.571932054122911 0 0 0
2841 5 1 -0.106 14.125352715879345 16.341902350949 9.486969253553523 0 0 0
2859 5 4 0.053 11.341069773355265 16.815741424971336 9.091371717365655 0 0 0
2845 5 4 0.053 13.38400543253692 16.48529695991222 7.45469031858869 0 0 0
2839 5 3 -0.1268 12.859212105994896 19.761853536449077 8.660508063940798 0 0 0
2830 5 3 0 13.929201213993391 18.90959952742678 8.916605363466996 0 0 0
2831 5 3 -0.1268 15.11433815456733 19.322148342399714 8.37255562625982 0 0 0
2837 5 3 -0.1268 12.937460717687234 20.85145520204454 7.788265584316237 0 0 0
2835 5 3 -0.1268 14.104895851003308 21.22722229314243 7.184600983230315 0 0 0
2833 5 3 -0.1268 15.254011830977298 20.519295776157293 7.570815333914278 0 0 0
2834 5 4 0.1268 16.23870909549892 20.82723020236586 7.063159229977232 0 0 0
2832 5 4 0.1268 16.060442669302326 18.869742148396554 8.61771163761413 0 0 0
2843 5 4 0.053 15.140630098003482 16.155700237161504 9.288339017833557 0 0 0